Title
82320
    1SAPS     N    1   2.416   1.326  11.483 -0.4003  0.0295  0.0306
    1SAPS   HN1    2   2.339   1.298  11.418  0.4794 -0.8573 -0.6442
    1SAPS   HN2    3   2.499   1.331  11.422 -0.4829  1.0844 -0.0082
    1SAPS   HN3    4   2.427   1.252  11.555  0.1095  1.5981  1.6067
    1SAPS   C12    5   2.367   1.452  11.541  0.9226 -0.0222  0.0859
    1SAPS  H12A    6   2.319   1.429  11.635 -1.5689 -1.4918 -1.4857
    1SAPS   C13    7   2.479   1.561  11.557  0.6111 -0.4237 -0.5193
    1SAPS  O13A    8   2.597   1.546  11.526  0.4362  0.2089  0.3004
    1SAPS  O13B    9   2.446   1.648  11.637  0.3260  0.0207 -0.0506
    1SAPS   C11   10   2.258   1.514  11.438  0.1599 -0.7111  0.2704
    1SAPS  H11A   11   2.227   1.603  11.497  0.1881 -0.6935  0.2594
    1SAPS  H11B   12   2.170   1.447  11.425 -0.5796  0.2270  0.3567
    1SAPS     P   13   2.215   1.614  11.200 -0.4722 -0.0755 -0.1318
    1SAPS   O13   14   2.074   1.622  11.247 -0.3038 -0.0996 -0.1170
    1SAPS   O14   15   2.276   1.727  11.131 -0.4399 -0.3722  0.2262
    1SAPS   O12   16   2.312   1.557  11.311 -0.6287 -0.0953  0.5058
    1SAPS   O11   17   2.228   1.487  11.112 -0.2187 -0.3093 -0.2334
    1SAPS    C1   18   2.351   1.437  11.051  0.1647 -0.9883  0.4203
    1SAPS    HA   19   2.435   1.425  11.123 -0.1100 -0.5303  0.8160
    1SAPS    HB   20   2.340   1.330  11.023  0.7261 -0.6989 -0.9489
    1SAPS    C2   21   2.389   1.509  10.916 -0.1685 -0.8718  1.0138
    1SAPS    HS   22   2.410   1.614  10.943 -1.1993 -0.7213  1.2379
    1SAPS   O21   23   2.277   1.502  10.823  0.0042 -0.1026  0.3186
    1SAPS   C21   24   2.249   1.596  10.743 -0.0557 -0.5544 -0.0178
    1SAPS   O22   25   2.288   1.713  10.741 -0.6380 -0.4034  0.4035
    1SAPS   C22   26   2.147   1.534  10.648 -0.0040  0.4677 -0.2219
    1SAPS   H2R   27   2.169   1.429  10.619  3.4504  0.1366  3.1417
    1SAPS   H2S   28   2.058   1.528  10.714 -0.0531  0.8709 -0.2492
    1SAPS    C3   29   2.513   1.453  10.842  0.5689 -0.4139 -0.5315
    1SAPS    HX   30   2.486   1.346  10.848 -0.5006 -0.1066  0.2858
    1SAPS    HY   31   2.603   1.483  10.902 -1.5021  0.2606  2.3554
    1SAPS   O31   32   2.544   1.509  10.711  0.0855 -0.0558 -0.0687
    1SAPS   C31   33   2.637   1.432  10.648  0.2284 -0.1231 -0.0136
    1SAPS   O32   34   2.679   1.324  10.687  0.4434  0.4558 -1.1984
    1SAPS   C32   35   2.672   1.486  10.508  0.9906 -0.0244 -0.5360
    1SAPS   H2X   36   2.751   1.560  10.529  1.6155 -1.3237  1.9331
    1SAPS   H2Y   37   2.574   1.530  10.478  0.4038  0.5456  2.0657
    1SAPS   C23   38   2.119   1.619  10.521 -1.2060 -0.6089  0.6359
    1SAPS   H3R   39   2.094   1.724  10.547 -0.7080 -0.5585  0.9202
    1SAPS   H3S   40   2.032   1.567  10.476 -0.2912  0.0402 -1.9443
    1SAPS   C24   41   2.243   1.599  10.432 -0.5389  0.3313 -0.2645
    1SAPS   H4R   42   2.257   1.499  10.385  0.6610  0.6950 -0.7055
    1SAPS   H4S   43   2.336   1.611  10.491 -0.1437  4.2508 -1.5768
    1SAPS   C25   44   2.238   1.700  10.331  0.2477 -0.3323  0.2478
    1SAPS   H5R   45   2.207   1.800  10.364 -1.0227 -1.3686  2.3189
    1SAPS   C26   46   2.252   1.679  10.190  0.0216 -0.0728  0.1196
    1SAPS   H6R   47   2.252   1.772  10.132 -0.5310 -1.1055 -1.5611
    1SAPS   C27   48   2.271   1.545  10.115  0.6273 -0.2693  0.5041
    1SAPS   H7R   49   2.228   1.563  10.015  3.4340  0.9133 -0.5634
    1SAPS   H7S   50   2.198   1.480  10.167  2.0978 -0.1819  2.8016
    1SAPS   C28   51   2.404   1.479  10.113 -0.8778 -0.3804 -0.1702
    1SAPS   H8R   52   2.441   1.422  10.199 -1.8113  1.1777  1.2982
    1SAPS   C29   53   2.488   1.479  10.006 -0.9605  0.0210 -0.1115
    1SAPS   H9R   54   2.587   1.434  10.024 -1.2546 -0.3560  0.5832
    1SAPS  C210   55   2.474   1.539   9.873 -0.2920  0.2450  0.5898
    1SAPS  H10R   56   2.568   1.506   9.823 -0.9402 -2.4490  1.0414
    1SAPS  H10S   57   2.476   1.650   9.869 -1.7487  0.3290  1.8166
    1SAPS  C211   58   2.356   1.483   9.787  0.0869  0.2496  0.0311
    1SAPS  H11R   59   2.278   1.422   9.835 -0.9236  0.5233 -1.2544
    1SAPS  C212   60   2.364   1.498   9.651 -0.8864 -0.1851  0.6166
    1SAPS  H12R   61   2.278   1.464   9.592 -1.3495  2.0467 -0.0334
    1SAPS  C213   62   2.472   1.564   9.573 -0.0682  0.4939  0.0222
    1SAPS  H13R   63   2.562   1.600   9.628 -0.6262  1.4142  0.3420
    1SAPS  H13S   64   2.433   1.661   9.536 -3.1367 -0.2268  1.2311
    1SAPS  C214   65   2.506   1.453   9.480 -0.1871  0.4391 -0.4649
    1SAPS  H14R   66   2.534   1.359   9.531  1.9991  1.6338  0.6067
    1SAPS  C215   67   2.483   1.463   9.346 -0.4496 -0.3525 -0.5671
    1SAPS  H15R   68   2.506   1.380   9.277  0.4787 -0.2000 -0.4475
    1SAPS  C216   69   2.418   1.586   9.284  0.4590  0.2507 -0.7488
    1SAPS  H16R   70   2.478   1.624   9.198 -1.4629  3.5035 -0.7231
    1SAPS  H16S   71   2.406   1.674   9.351  0.0707  0.8635 -1.6074
    1SAPS  C217   72   2.268   1.550   9.245 -0.6428 -0.3560  0.0550
    1SAPS  H17R   73   2.217   1.544   9.343 -0.2620  0.3017  0.3009
    1SAPS  H17S   74   2.268   1.463   9.176  0.4157 -1.5397  1.5175
    1SAPS  C218   75   2.208   1.672   9.179 -0.6040 -0.5183  0.7267
    1SAPS  H18R   76   2.224   1.763   9.241  0.1955  0.0039 -0.2438
    1SAPS  H18S   77   2.097   1.669   9.171 -0.5375 -0.9325 -0.0864
    1SAPS  C219   78   2.249   1.699   9.036  0.3227  0.0492  0.2605
    1SAPS  H19R   79   2.222   1.608   8.978  0.0167  1.0203 -1.1140
    1SAPS  H19S   80   2.359   1.712   9.037  0.2165  1.1023 -1.3428
    1SAPS  C220   81   2.172   1.824   8.982 -0.1023 -0.7100 -0.7367
    1SAPS  H20R   82   2.062   1.808   8.977 -0.1747 -0.1524 -0.9521
    1SAPS  H20S   83   2.211   1.839   8.879 -0.4168  3.0679 -0.3631
    1SAPS  H20T   84   2.192   1.920   9.032  0.1299 -1.6592  1.0260
    1SAPS   C33   85   2.729   1.387  10.419 -0.6881  0.9599  0.2487
    1SAPS   H3X   86   2.657   1.307  10.390 -2.6347  2.3272  1.3016
    1SAPS   H3Y   87   2.806   1.332  10.478 -1.7740  0.7614  1.4819
    1SAPS   C34   88   2.789   1.442  10.292 -0.4607 -0.3521 -0.0437
    1SAPS   H4X   89   2.893   1.476  10.311 -0.0035 -0.2383 -2.5537
    1SAPS   H4Y   90   2.721   1.517  10.245  1.6195  1.2201 -0.6209
    1SAPS   C35   91   2.806   1.333  10.186 -0.4165  0.3064 -0.0466
    1SAPS   H5X   92   2.707   1.319  10.139 -1.5676  0.8445  2.1267
    1SAPS   H5Y   93   2.840   1.236  10.228  0.0299  0.0937 -0.8909
    1SAPS   C36   94   2.900   1.368  10.068 -0.3255  0.2359 -0.6463
    1SAPS   H6X   95   3.006   1.359  10.101 -0.3142  1.7072 -0.2454
    1SAPS   H6Y   96   2.891   1.473  10.032  1.4467  0.9592  0.9145
    1SAPS   C37   97   2.917   1.265   9.946  0.3138  0.4238  0.2491
    1SAPS   H7X   98   2.937   1.163   9.984 -0.0930  0.7962  1.4815
    1SAPS   H7Y   99   3.010   1.294   9.893 -0.6261 -1.6176 -2.6439
    1SAPS   C38  100   2.798   1.268   9.844 -0.0018  0.2445 -0.0051
    1SAPS   H8X  101   2.782   1.372   9.808  0.4920  0.1728 -0.4375
    1SAPS   H8Y  102   2.705   1.245   9.901 -0.9521 -0.6693 -1.8773
    1SAPS   C39  103   2.808   1.168   9.721  0.2550 -0.0976 -0.2294
    1SAPS   H9X  104   2.708   1.175   9.672 -0.7327 -1.4795  1.5414
    1SAPS   H9Y  105   2.814   1.068   9.768 -1.8386  0.1631  0.6457
    1SAPS  C310  106   2.925   1.196   9.627 -0.3430  0.0791  0.0686
    1SAPS  H10X  107   3.024   1.177   9.674 -0.0027  0.6770 -0.4009
    1SAPS  H10Y  108   2.908   1.298   9.589 -1.6796 -0.9632 -2.2412
    1SAPS  C311  109   2.931   1.100   9.507  0.5666 -0.4949  0.4756
    1SAPS  H11X  110   2.835   1.096   9.451 -0.4683 -1.2817  2.2367
    1SAPS  H11Y  111   2.948   0.997   9.546 -0.0301 -0.7961 -0.0406
    1SAPS  C312  112   3.053   1.125   9.418  0.7112  0.6655 -0.1191
    1SAPS  H12X  113   3.145   1.125   9.480  1.6485  0.4059 -1.4711
    1SAPS  H12Y  114   3.044   1.229   9.378  4.0986  0.8333 -0.5742
    1SAPS  C313  115   3.078   1.010   9.310 -0.3353  0.1344 -0.1510
    1SAPS  H13X  116   3.089   0.912   9.360  0.6272 -0.4224 -1.4215
    1SAPS  H13Y  117   3.180   1.017   9.266 -0.2649  1.5639  0.2012
    1SAPS  C314  118   2.966   1.019   9.202  0.2588  0.0974 -0.0205
    1SAPS  H14X  119   2.875   1.040   9.261 -0.1276  1.5456 -1.1029
    1SAPS  H14Y  120   2.954   0.920   9.151 -0.6722  0.2556 -0.1145
    1SAPS  C315  121   2.995   1.135   9.105 -0.4836 -0.2872 -0.1396
    1SAPS  H15X  122   3.085   1.099   9.051 -0.3660  0.7788 -0.6705
    1SAPS  H15Y  123   3.023   1.229   9.157 -0.5611 -1.3824  1.9299
    1SAPS  C316  124   2.896   1.152   8.995 -0.5624  0.3308 -0.4417
    1SAPS  H16X  125   2.798   1.180   9.037 -1.0872  1.6365 -2.4480
    1SAPS  H16Y  126   2.893   1.060   8.932 -0.9146 -0.0634  0.1518
    1SAPS  C317  127   2.935   1.274   8.904  0.0551  0.4808  0.7625
    1SAPS  H17X  128   2.934   1.356   8.980 -0.6471  1.2189 -0.0210
    1SAPS  H17Y  129   2.847   1.303   8.842  0.6120 -0.1526 -0.3429
    1SAPS  C318  130   3.064   1.263   8.828 -0.2851 -0.1562  0.2219
    1SAPS  H18X  131   3.149   1.256   8.899  0.0315  1.8276  0.0669
    1SAPS  H18Y  132   3.070   1.340   8.748 -3.0442  0.1776  0.3027
    1SAPS  H18Z  133   3.067   1.163   8.779  0.5658  0.1911 -0.4578
    2SAPS     N  134   1.222   1.738  10.940 -0.5522 -0.5604  0.6583
    2SAPS   HN1  135   1.307   1.698  10.984  2.0818  2.3513 -1.6126
    2SAPS   HN2  136   1.255   1.807  10.870 -1.6519  0.0535  0.7442
    2SAPS   HN3  137   1.163   1.791  11.006  1.5443 -1.3281  3.2271
    2SAPS   C12  138   1.143   1.629  10.878  0.5016  0.1134  0.1894
    2SAPS  H12A  139   1.202   1.596  10.794  1.2217  0.2494  0.6441
    2SAPS   C13  140   1.128   1.502  10.964  0.1183 -0.0207  0.3209
    2SAPS  O13A  141   1.149   1.497  11.087 -0.5594  0.3407 -0.2842
    2SAPS  O13B  142   1.080   1.401  10.909  0.3849  0.2603  0.1895
    2SAPS   C11  143   1.001   1.686  10.835 -0.0136 -0.5530  0.0925
    2SAPS  H11A  144   0.959   1.713  10.935 -2.1111 -1.5205 -0.5104
    2SAPS  H11B  145   0.945   1.598  10.798  0.4340 -0.5305 -0.6495
    2SAPS     P  146   0.995   1.785  10.592  0.2716 -0.2459  0.0811
    2SAPS   O13  147   0.867   1.711  10.564 -0.3373 -0.0624 -0.6951
    2SAPS   O14  148   0.988   1.920  10.529 -0.2202  0.3304  0.0327
    2SAPS   O12  149   1.013   1.799  10.744 -0.6948 -0.6419 -0.3600
    2SAPS   O11  150   1.128   1.706  10.540 -0.2527 -0.6430  0.4934
    2SAPS    C1  151   1.132   1.569  10.524  0.0051  0.5410 -0.3880
    2SAPS    HA  152   1.230   1.534  10.565 -0.4283 -0.8440 -0.4816
    2SAPS    HB  153   1.052   1.519  10.582 -1.1536  2.6437 -0.1332
    2SAPS    C2  154   1.126   1.513  10.371 -0.3320  0.4198  0.0601
    2SAPS    HS  155   1.227   1.531  10.328  0.4747 -0.2437  1.6578
    2SAPS   O21  156   1.025   1.585  10.297 -0.3678  0.3372 -0.6273
    2SAPS   C21  157   1.064   1.697  10.244  0.3315 -0.7285 -0.8598
    2SAPS   O22  158   1.172   1.751  10.251  0.1372  0.6043  0.6920
    2SAPS   C22  159   0.938   1.764  10.173  0.1321 -0.3835 -0.5447
    2SAPS   H2R  160   0.860   1.777  10.251 -0.0514  0.4409 -0.8668
    2SAPS   H2S  161   0.968   1.867  10.144 -0.1257 -0.7072 -2.0336
    2SAPS    C3  162   1.100   1.359  10.375  0.5349  0.1730  0.2144
    2SAPS    HX  163   1.002   1.340  10.425  0.7516 -1.4628  0.0138
    2SAPS    HY  164   1.179   1.321  10.443  0.5677  0.7073  0.4816
    2SAPS   O31  165   1.118   1.295  10.242 -0.0188  0.2477  0.0325
    2SAPS   C31  166   1.005   1.246  10.188  0.0236  0.0154  0.5815
    2SAPS   O32  167   0.892   1.259  10.236 -0.8081  0.6589 -0.1474
    2SAPS   C32  168   1.035   1.178  10.049 -0.2777  0.7817  0.5126
    2SAPS   H2X  169   0.940   1.183   9.992 -1.9396  0.3059  3.1282
    2SAPS   H2Y  170   1.077   1.075  10.050 -0.3585  0.7446  0.2111
    2SAPS   C23  171   0.883   1.682  10.050  0.0653 -0.0367  0.1416
    2SAPS   H3R  172   0.857   1.577  10.075 -1.4043  0.5767  1.2471
    2SAPS   H3S  173   0.968   1.687   9.979 -1.3110  0.0515 -1.5499
    2SAPS   C24  174   0.749   1.733   9.988 -0.6985  0.0583 -1.0263
    2SAPS   H4R  175   0.662   1.740  10.057 -1.2566 -0.3993 -1.6750
    2SAPS   H4S  176   0.722   1.668   9.902 -0.8421 -0.7372 -0.3874
    2SAPS   C25  177   0.774   1.871   9.929 -0.3188 -0.2487  0.5218
    2SAPS   H5R  178   0.793   1.940  10.012  2.2286  0.7705 -0.8804
    2SAPS   C26  179   0.776   1.912   9.800  0.3545 -0.1252  0.3635
    2SAPS   H6R  180   0.811   2.014   9.779 -0.4237 -0.1487 -1.0778
    2SAPS   C27  181   0.750   1.821   9.683  0.1648  0.8184 -0.3474
    2SAPS   H7R  182   0.646   1.849   9.654 -0.2647 -0.5607 -0.1704
    2SAPS   H7S  183   0.770   1.715   9.709  0.2630  0.7392 -0.7398
    2SAPS   C28  184   0.841   1.858   9.570 -0.0706  0.1753  0.3568
    2SAPS   H8R  185   0.930   1.794   9.565 -0.8322 -0.8963  0.2665
    2SAPS   C29  186   0.820   1.956   9.483 -0.0652  0.0544 -0.5200
    2SAPS   H9R  187   0.897   1.966   9.406  1.6400 -1.7685  0.9070
    2SAPS  C210  188   0.715   2.060   9.458  0.1573 -0.7957 -0.0999
    2SAPS  H10R  189   0.763   2.160   9.464  0.1579 -0.7943 -0.1251
    2SAPS  H10S  190   0.645   2.056   9.545 -1.1045 -0.9257 -1.1047
    2SAPS  C211  191   0.637   2.042   9.330 -0.3799  0.5911 -0.3047
    2SAPS  H11R  192   0.564   1.959   9.326  1.8322 -1.4160 -0.3868
    2SAPS  C212  193   0.633   2.123   9.220  0.3018  0.0391  0.0564
    2SAPS  H12R  194   0.565   2.085   9.142  0.2722  0.3359 -0.0607
    2SAPS  C213  195   0.713   2.250   9.200  0.1859  0.2001  0.0641
    2SAPS  H13R  196   0.794   2.251   9.276 -1.0059  0.2812  1.3432
    2SAPS  H13S  197   0.650   2.338   9.222 -0.5674 -0.3953  0.2904
    2SAPS  C214  198   0.783   2.250   9.064 -0.5464 -0.6672  0.4323
    2SAPS  H14R  199   0.860   2.174   9.046 -1.3977 -1.2559 -0.8331
    2SAPS  C215  200   0.763   2.314   8.954  0.0371  0.0424  0.4398
    2SAPS  H15R  201   0.811   2.278   8.862  0.2465 -1.0263  0.9674
    2SAPS  C216  202   0.651   2.412   8.930 -0.6779 -0.3821 -0.9831
    2SAPS  H16R  203   0.677   2.519   8.946  0.2139 -0.9388  1.3896
    2SAPS  H16S  204   0.566   2.396   8.999  0.4424 -1.9303  0.0618
    2SAPS  C217  205   0.583   2.405   8.786 -0.1817  0.8123 -0.4494
    2SAPS  H17R  206   0.659   2.415   8.706  0.3082 -0.1844 -0.1294
    2SAPS  H17S  207   0.501   2.479   8.781 -2.7007 -1.9034 -0.2671
    2SAPS  C218  208   0.529   2.264   8.767  0.4432  0.1739  0.3856
    2SAPS  H18R  209   0.591   2.181   8.806 -0.0951 -0.3377  0.1428
    2SAPS  H18S  210   0.499   2.253   8.661 -0.5533  1.1468  0.5439
    2SAPS  C219  211   0.392   2.248   8.833  0.0829 -0.5775 -0.0020
    2SAPS  H19R  212   0.337   2.332   8.786 -0.4334  0.2595  2.0191
    2SAPS  H19S  213   0.402   2.267   8.942  2.3683  1.3104 -0.5036
    2SAPS  C220  214   0.317   2.110   8.805 -0.4303 -1.4039 -1.0617
    2SAPS  H20R  215   0.375   2.030   8.855  0.1803  0.1515  0.7852
    2SAPS  H20S  216   0.302   2.097   8.696  1.2779 -0.6411 -1.4103
    2SAPS  H20T  217   0.218   2.117   8.855 -0.4124 -0.1913 -1.1687
    2SAPS   C33  218   1.128   1.273   9.964 -0.0741 -0.0986 -0.7814
    2SAPS   H3X  219   1.221   1.303  10.017 -1.4558  2.0159  0.5354
    2SAPS   H3Y  220   1.081   1.373   9.954  3.0801  1.6712  1.2542
    2SAPS   C34  221   1.154   1.213   9.823 -0.0855 -0.7924  0.0149
    2SAPS   H4X  222   1.146   1.102   9.826 -1.1082 -0.7594 -1.1800
    2SAPS   H4Y  223   1.256   1.246   9.791 -0.4664  1.9479  1.5021
    2SAPS   C35  224   1.057   1.262   9.713  0.2723 -0.1344 -1.1339
    2SAPS   H5X  225   1.081   1.369   9.699 -1.2711  0.2273 -1.0624
    2SAPS   H5Y  226   0.952   1.260   9.749  0.8206 -2.0236  0.4722
    2SAPS   C36  227   1.064   1.190   9.584 -0.8259 -0.0160 -0.1092
    2SAPS   H6X  228   1.037   1.083   9.586 -1.7832  0.1977 -1.0629
    2SAPS   H6Y  229   1.174   1.187   9.566 -0.4747 -2.7934  2.1870
    2SAPS   C37  230   0.989   1.271   9.474 -1.0509  0.2977  0.1956
    2SAPS   H7X  231   0.996   1.380   9.489  0.6995  0.1919  0.1886
    2SAPS   H7Y  232   0.879   1.264   9.491 -0.8884 -0.7357  0.8667
    2SAPS   C38  233   1.044   1.256   9.333  0.4316 -0.5015 -0.7345
    2SAPS   H8X  234   1.030   1.149   9.304 -3.4599 -1.1321  3.0407
    2SAPS   H8Y  235   1.153   1.278   9.341  0.4636 -0.4840 -1.1789
    2SAPS   C39  236   0.975   1.344   9.226  0.3039  0.1574  1.3246
    2SAPS   H9X  237   1.007   1.450   9.230  3.5537 -0.8401  2.7211
    2SAPS   H9Y  238   0.865   1.326   9.233  0.2078 -0.9852 -2.0285
    2SAPS  C310  239   1.006   1.299   9.080  0.0921  0.4558 -0.3012
    2SAPS  H10X  240   0.969   1.194   9.075  2.8611 -0.6218  0.8803
    2SAPS  H10Y  241   1.117   1.304   9.076  0.2616 -0.8527  2.0935
    2SAPS  C311  242   0.910   1.382   8.984 -0.3179 -0.5615 -0.0854
    2SAPS  H11X  243   0.907   1.492   9.004  1.7112 -0.7846  1.5550
    2SAPS  H11Y  244   0.811   1.333   8.973  1.0203 -3.0365 -1.4515
    2SAPS  C312  245   0.961   1.378   8.834 -1.0042 -0.1652 -0.5289
    2SAPS  H12X  246   0.959   1.275   8.792  0.2000 -0.8980  1.1440
    2SAPS  H12Y  247   1.059   1.429   8.821 -1.9676  1.5750 -1.1856
    2SAPS  C313  248   0.865   1.462   8.751  0.0904 -0.4303 -0.5642
    2SAPS  H13X  249   0.875   1.563   8.797 -0.1782 -0.8662  0.4597
    2SAPS  H13Y  250   0.762   1.424   8.762  0.3338 -1.0744 -0.4999
    2SAPS  C314  251   0.909   1.483   8.604  0.2269  0.2291  0.2223
    2SAPS  H14X  252   0.817   1.477   8.542 -0.2532  0.0767  0.9471
    2SAPS  H14Y  253   0.961   1.393   8.564  0.5235  0.8220 -0.7287
    2SAPS  C315  254   0.999   1.600   8.582  0.3704  0.5187  0.0319
    2SAPS  H15X  255   1.099   1.586   8.628 -0.0012 -0.8308  0.4331
    2SAPS  H15Y  256   0.951   1.692   8.621  0.4024  0.9631 -0.9645
    2SAPS  C316  257   1.022   1.613   8.435  0.2605  0.2544  0.3306
    2SAPS  H16X  258   0.923   1.600   8.386 -0.2097  0.3548  1.2452
    2SAPS  H16Y  259   1.083   1.532   8.390  1.6455  0.9930  0.8629
    2SAPS  C317  260   1.091   1.745   8.389  0.3162 -0.8449  0.0657
    2SAPS  H17X  261   1.097   1.722   8.281 -2.4358  1.7372 -0.7038
    2SAPS  H17Y  262   1.186   1.750   8.447  0.8561  1.2906 -0.9659
    2SAPS  C318  263   1.014   1.871   8.395 -0.1496  0.4971 -0.4163
    2SAPS  H18X  264   1.071   1.955   8.352  2.4901 -0.6195  0.8070
    2SAPS  H18Y  265   0.989   1.897   8.500 -0.4297 -0.0211 -0.3527
    2SAPS  H18Z  266   0.919   1.866   8.337  0.7979 -1.4713 -1.8408
    3SAPS     N  267   0.912   3.340  11.123 -0.4025  0.3092 -0.3546
    3SAPS   HN1  268   0.848   3.282  11.065 -0.6735  1.7268 -1.5128
    3SAPS   HN2  269   0.862   3.351  11.214  4.2404 -0.1721  2.4120
    3SAPS   HN3  270   0.910   3.433  11.076 -1.8552  0.9861  0.9725
    3SAPS   C12  271   1.045   3.276  11.120 -0.0648  0.1909 -0.4813
    3SAPS  H12A  272   1.102   3.350  11.173 -0.4824  0.4269 -0.3564
    3SAPS   C13  273   1.059   3.149  11.209 -0.0098  0.1766  0.4648
    3SAPS  O13A  274   0.975   3.132  11.300 -0.9058  0.5790  0.5667
    3SAPS  O13B  275   1.170   3.088  11.210 -0.2333  0.2614  0.5549
    3SAPS   C11  276   1.082   3.253  10.973 -0.2889  0.3422 -0.1705
    3SAPS  H11A  277   1.041   3.157  10.934  1.3776 -0.6950  0.5613
    3SAPS  H11B  278   1.193   3.238  10.973 -0.3622 -0.2103 -0.3910
    3SAPS     P  279   1.152   3.487  10.864  0.0561 -0.0388 -0.0512
    3SAPS   O13  280   1.079   3.589  10.791  0.8495 -0.0198 -0.5036
    3SAPS   O14  281   1.202   3.532  10.994 -0.2952 -0.1351  0.2078
    3SAPS   O12  282   1.052   3.362  10.878  0.4567 -0.0671 -0.3586
    3SAPS   O11  283   1.269   3.442  10.766 -0.0384  0.5063 -0.2143
    3SAPS    C1  284   1.245   3.349  10.654  0.1134 -0.2121 -0.3475
    3SAPS    HA  285   1.301   3.253  10.665 -0.8691 -0.6427  0.9789
    3SAPS    HB  286   1.140   3.312  10.656  0.7539 -2.1976 -1.6650
    3SAPS    C2  287   1.281   3.396  10.508 -0.5034  0.3739 -0.4006
    3SAPS    HS  288   1.391   3.411  10.508 -0.4229 -0.2049 -0.5395
    3SAPS   O21  289   1.202   3.503  10.465  0.1744  0.7486 -0.1201
    3SAPS   C21  290   1.241   3.620  10.508  0.2212  0.2818  0.2938
    3SAPS   O22  291   1.342   3.638  10.572 -0.0739 -0.1728  0.3350
    3SAPS   C22  292   1.146   3.730  10.459 -0.0419  0.2970 -0.7491
    3SAPS   H2R  293   1.085   3.691  10.374  2.6902  0.3050 -2.7893
    3SAPS   H2S  294   1.085   3.738  10.551 -0.7316 -0.9038 -1.0898
    3SAPS    C3  295   1.258   3.283  10.402 -0.1854  0.6559  0.6540
    3SAPS    HX  296   1.152   3.250  10.401  0.2598 -0.7881 -1.5337
    3SAPS    HY  297   1.322   3.205  10.448 -2.3376  0.0060  2.6632
    3SAPS   O31  298   1.303   3.313  10.269 -0.3012  0.1923 -0.1011
    3SAPS   C31  299   1.214   3.350  10.181 -0.3648 -0.1845  0.8039
    3SAPS   O32  300   1.092   3.332  10.179 -0.0613  1.1069  0.4058
    3SAPS   C32  301   1.286   3.417  10.063  0.5732 -0.2447 -0.2244
    3SAPS   H2X  302   1.375   3.353  10.049 -1.0271 -2.2634 -1.4813
    3SAPS   H2Y  303   1.333   3.515  10.089  3.2216 -1.8530  1.2345
    3SAPS   C23  304   1.214   3.859  10.404 -0.0026  0.1939 -0.2345
    3SAPS   H3R  305   1.254   3.911  10.494  0.6973  2.0920 -1.6152
    3SAPS   H3S  306   1.125   3.914  10.365 -0.9996 -1.2478 -0.0530
    3SAPS   C24  307   1.323   3.831  10.304 -0.7822 -0.2503 -0.0495
    3SAPS   H4R  308   1.275   3.776  10.220  0.7580  0.0502 -1.1400
    3SAPS   H4S  309   1.402   3.760  10.339  0.4912  0.8047 -0.7545
    3SAPS   C25  310   1.383   3.956  10.247 -0.1264 -0.2948  0.0639
    3SAPS   H5R  311   1.424   4.019  10.327 -1.5184  1.3384 -0.4834
    3SAPS   C26  312   1.397   3.981  10.117 -0.2133  0.4716  0.8201
    3SAPS   H6R  313   1.470   4.059  10.092  0.4626 -0.2269  0.6001
    3SAPS   C27  314   1.364   3.886  10.000 -0.0207 -0.6599 -0.3100
    3SAPS   H7R  315   1.369   3.779  10.029  2.0745  0.0887  2.3609
    3SAPS   H7S  316   1.448   3.890   9.928 -1.2669  1.2057 -1.7210
    3SAPS   C28  317   1.232   3.910   9.932  0.0193 -0.3254 -0.5815
    3SAPS   H8R  318   1.152   3.861   9.989 -0.4065 -0.5676 -1.3876
    3SAPS   C29  319   1.201   3.970   9.817 -0.3475 -0.3875  0.0523
    3SAPS   H9R  320   1.095   3.968   9.785 -0.2310  0.3955 -0.3993
    3SAPS  C210  321   1.291   4.039   9.715 -0.3958 -0.2033  0.1042
    3SAPS  H10R  322   1.385   4.075   9.761 -0.3880 -0.2165  0.0985
    3SAPS  H10S  323   1.240   4.133   9.684  0.7362  0.0817 -0.9614
    3SAPS  C211  324   1.306   3.942   9.602 -0.4627 -0.3790  0.2696
    3SAPS  H11R  325   1.394   3.877   9.614 -1.2227 -1.3101  0.9609
    3SAPS  C212  326   1.229   3.941   9.492 -0.4487 -1.2168 -0.7305
    3SAPS  H12R  327   1.249   3.864   9.416  2.3954 -1.8042  0.5711
    3SAPS  C213  328   1.107   4.041   9.472 -0.2362  0.2671  0.2056
    3SAPS  H13R  329   1.122   4.072   9.367  2.1301 -1.4606 -0.0217
    3SAPS  H13S  330   1.114   4.134   9.532 -1.5742 -0.9584  2.3539
    3SAPS  C214  331   0.967   3.977   9.501  0.5850 -0.7879 -0.7532
    3SAPS  H14R  332   0.948   3.985   9.609  3.0219 -1.3523 -0.2568
    3SAPS  C215  333   0.878   3.920   9.412 -0.0316 -0.7378  0.8073
    3SAPS  H15R  334   0.777   3.888   9.445 -1.4614  1.6664 -1.0547
    3SAPS  C216  335   0.903   3.913   9.263  0.1331  1.4009 -0.3278
    3SAPS  H16R  336   0.895   3.806   9.232  1.4400  0.7768  1.4076
    3SAPS  H16S  337   1.006   3.942   9.235 -0.6462  3.8901 -0.7611
    3SAPS  C217  338   0.821   4.014   9.194 -0.0286  0.5943 -0.5196
    3SAPS  H17R  339   0.838   4.119   9.227 -1.2770  0.8390 -0.6082
    3SAPS  H17S  340   0.713   3.996   9.215  0.2096 -1.3414 -0.9364
    3SAPS  C218  341   0.848   4.016   9.043  0.2845 -0.0440  0.1223
    3SAPS  H18R  342   0.758   4.061   8.994  1.0424  1.1631 -0.1955
    3SAPS  H18S  343   0.854   3.910   9.012  0.1139 -0.0033 -0.0565
    3SAPS  C219  344   0.972   4.093   9.003  0.3665 -0.1682 -0.1431
    3SAPS  H19R  345   1.063   4.036   9.033  0.2572  0.1669  0.8732
    3SAPS  H19S  346   0.979   4.185   9.066 -2.6353  0.6709 -0.9589
    3SAPS  C220  347   0.984   4.121   8.854 -0.1962  0.0832 -0.4238
    3SAPS  H20R  348   1.079   4.175   8.833  0.3472 -0.0462  1.5635
    3SAPS  H20S  349   0.902   4.190   8.822  0.5912  1.2419  0.0339
    3SAPS  H20T  350   0.984   4.024   8.801 -1.1119 -1.1587  1.7664
    3SAPS   C33  351   1.202   3.435   9.937 -0.0779  0.1474  0.0396
    3SAPS   H3X  352   1.137   3.526   9.946 -0.6248 -0.4681  2.8512
    3SAPS   H3Y  353   1.134   3.350   9.917  0.1405  0.4827 -2.2244
    3SAPS   C34  354   1.292   3.450   9.812 -0.7687 -0.0296  0.6487
    3SAPS   H4X  355   1.317   3.347   9.780 -0.8568  0.1502 -0.0072
    3SAPS   H4Y  356   1.380   3.515   9.827 -1.8346  1.4618  0.4898
    3SAPS   C35  357   1.215   3.520   9.697 -0.3020  0.7611 -0.6733
    3SAPS   H5X  358   1.204   3.628   9.724 -1.0410  0.0487  2.0253
    3SAPS   H5Y  359   1.108   3.493   9.692  0.0332 -0.3880 -1.6862
    3SAPS   C36  360   1.262   3.488   9.562 -0.4733  0.6997 -0.3859
    3SAPS   H6X  361   1.275   3.378   9.555  0.3644  0.6643  1.5414
    3SAPS   H6Y  362   1.367   3.522   9.547  0.3215 -1.9054 -1.0134
    3SAPS   C37  363   1.166   3.542   9.452 -0.4657  0.6134 -0.2405
    3SAPS   H7X  364   1.145   3.650   9.467  0.0430  0.8137 -0.9467
    3SAPS   H7Y  365   1.067   3.492   9.452 -0.2649  0.2088 -0.0314
    3SAPS   C38  366   1.240   3.529   9.314  0.3853  0.0047  0.4537
    3SAPS   H8X  367   1.300   3.435   9.322 -0.6512 -0.6108  1.1644
    3SAPS   H8Y  368   1.311   3.614   9.307  2.5070 -1.6117  1.4411
    3SAPS   C39  369   1.154   3.546   9.188  0.1874 -0.5191 -0.2781
    3SAPS   H9X  370   1.225   3.514   9.109  1.9572 -0.4715  1.2652
    3SAPS   H9Y  371   1.120   3.651   9.170  0.8217 -0.1340  0.7075
    3SAPS  C310  372   1.040   3.441   9.157  1.0822  0.2646  0.7316
    3SAPS  H10X  373   0.956   3.464   9.225 -2.3146  1.4914 -3.6413
    3SAPS  H10Y  374   1.076   3.336   9.160  1.4489  0.3914  0.8338
    3SAPS  C311  375   0.979   3.464   9.017 -0.0640 -0.0044  0.4325
    3SAPS  H11X  376   1.052   3.477   8.934 -2.0940 -1.8866 -1.7077
    3SAPS  H11Y  377   0.955   3.572   9.020  3.0660  0.7709  0.1733
    3SAPS  C312  378   0.854   3.379   8.982  0.1872 -0.0739  1.0098
    3SAPS  H12X  379   0.784   3.358   9.066 -2.2916  3.0046 -0.1921
    3SAPS  H12Y  380   0.897   3.286   8.939  0.5877  0.6244 -0.1323
    3SAPS  C313  381   0.777   3.444   8.864 -0.3265  0.8860  0.1763
    3SAPS  H13X  382   0.851   3.496   8.800 -0.6808  0.7867 -0.3200
    3SAPS  H13Y  383   0.707   3.525   8.893 -1.5425  0.5481 -1.7097
    3SAPS  C314  384   0.699   3.341   8.779 -0.7861 -0.1630  0.1121
    3SAPS  H14X  385   0.626   3.288   8.843 -0.2482  1.7924  2.4446
    3SAPS  H14Y  386   0.775   3.269   8.741  1.2292  0.9931  1.7651
    3SAPS  C315  387   0.622   3.410   8.671  0.1658 -0.3040  0.0479
    3SAPS  H15X  388   0.693   3.480   8.621  0.3052  0.9530  1.9550
    3SAPS  H15Y  389   0.545   3.469   8.726  1.5738 -0.7686  2.5852
    3SAPS  C316  390   0.552   3.315   8.573  0.2532 -0.0912  0.2004
    3SAPS  H16X  391   0.452   3.279   8.605 -0.1484 -0.5683 -1.5374
    3SAPS  H16Y  392   0.601   3.216   8.573 -2.1471 -1.3392 -1.6264
    3SAPS  C317  393   0.543   3.372   8.422 -0.1777 -0.6682 -0.2283
    3SAPS  H17X  394   0.636   3.429   8.403  1.4801 -2.3550  2.4602
    3SAPS  H17Y  395   0.466   3.450   8.403  1.9633  2.1338  2.1854
    3SAPS  C318  396   0.535   3.266   8.306 -0.1976 -0.3193  0.3954
    3SAPS  H18X  397   0.635   3.221   8.290 -0.6163 -0.4704 -1.8980
    3SAPS  H18Y  398   0.495   3.304   8.210 -0.8193  2.8955  1.8364
    3SAPS  H18Z  399   0.470   3.184   8.344  0.3857 -0.0098  2.1463
    4SAPS     N  400   3.098   4.375  10.763 -0.0897  0.1937 -0.5630
    4SAPS   HN1  401   3.057   4.334  10.677  0.5833  1.5539 -1.5659
    4SAPS   HN2  402   3.141   4.299  10.819 -1.0180 -1.4971 -2.1104
    4SAPS   HN3  403   3.018   4.417  10.814  0.5069 -0.9305  1.3358
    4SAPS   C12  404   3.200   4.474  10.722  0.1135 -0.5749 -0.4793
    4SAPS  H12A  405   3.143   4.552  10.673  0.6383 -0.3544 -0.7430
    4SAPS   C13  406   3.269   4.543  10.848  0.6552 -0.2413 -0.4789
    4SAPS  O13A  407   3.226   4.528  10.968 -0.3803 -0.4458  0.5556
    4SAPS  O13B  408   3.348   4.639  10.825  0.5549  0.2802 -0.3898
    4SAPS   C11  409   3.311   4.396  10.640 -0.1340  0.6669  0.4367
    4SAPS  H11A  410   3.393   4.462  10.603  0.9848 -1.8610 -1.7537
    4SAPS  H11B  411   3.273   4.363  10.541  1.6471 -2.4707  0.7374
    4SAPS     P  412   3.504   4.245  10.710 -0.3947  0.2516  0.2338
    4SAPS   O13  413   3.575   4.344  10.796 -0.3233  0.0610 -0.2800
    4SAPS   O14  414   3.535   4.102  10.749  0.8076 -0.3182 -0.1154
    4SAPS   O12  415   3.348   4.278  10.708  0.4043 -0.1609 -0.5195
    4SAPS   O11  416   3.538   4.269  10.553 -0.0721  0.0468 -0.5553
    4SAPS    C1  417   3.555   4.163  10.465  0.3641  0.5786 -0.0378
    4SAPS    HA  418   3.660   4.160  10.426  1.2872 -0.1433  2.4165
    4SAPS    HB  419   3.539   4.059  10.498  0.5083 -0.0004 -1.7136
    4SAPS    C2  420   3.456   4.177  10.343  0.2361 -0.3505 -1.3267
    4SAPS    HS  421   3.351   4.183  10.378  0.8619  2.4828  0.2455
    4SAPS   O21  422   3.467   4.078  10.239 -0.6596  0.2681 -0.1624
    4SAPS   C21  423   3.429   3.957  10.275  0.9230 -0.3616  0.3326
    4SAPS   O22  424   3.385   3.927  10.382  0.2540  0.6321  0.0190
    4SAPS   C22  425   3.444   3.848  10.164  0.2035 -1.1126  0.1278
    4SAPS   H2R  426   3.548   3.811  10.178  0.7057  0.8566  1.8045
    4SAPS   H2S  427   3.385   3.759  10.195  1.1590 -2.2103 -1.1411
    4SAPS    C3  428   3.484   4.314  10.278 -0.2921 -0.1998  0.5476
    4SAPS    HX  429   3.562   4.301  10.200  0.3273 -1.1363  1.3022
    4SAPS    HY  430   3.512   4.378  10.364  2.6528  2.3164 -2.1733
    4SAPS   O31  431   3.370   4.366  10.214 -0.2380  0.3088  0.2194
    4SAPS   C31  432   3.383   4.486  10.158  0.5513 -0.2884 -0.8444
    4SAPS   O32  433   3.487   4.551  10.154 -0.4717 -1.0078  0.0248
    4SAPS   C32  434   3.247   4.523  10.099  0.1156  0.2480  0.0313
    4SAPS   H2X  435   3.174   4.541  10.181  0.1632 -0.4168  0.2129
    4SAPS   H2Y  436   3.207   4.444  10.032  0.6592  0.6346 -0.7630
    4SAPS   C23  437   3.421   3.893  10.018 -0.0066 -0.4893 -0.1063
    4SAPS   H3R  438   3.500   3.970  10.004  1.0619 -2.0714 -3.2246
    4SAPS   H3S  439   3.323   3.943  10.005 -0.6993 -1.5041  1.2026
    4SAPS   C24  440   3.434   3.787   9.906 -0.1391  0.3182 -0.2809
    4SAPS   H4R  441   3.424   3.834   9.806  1.4076  2.2918  0.4518
    4SAPS   H4S  442   3.340   3.730   9.922  0.7289 -0.8231  0.9224
    4SAPS   C25  443   3.562   3.699   9.900 -0.3421 -0.7337  0.6625
    4SAPS   H5R  444   3.582   3.639   9.991  1.3186  1.8080  2.0466
    4SAPS   C26  445   3.650   3.674   9.806 -0.0964  0.2665 -0.5608
    4SAPS   H6R  446   3.735   3.611   9.834 -0.3707  0.2057  0.1347
    4SAPS   C27  447   3.664   3.738   9.666 -0.2650  0.2567  0.0710
    4SAPS   H7R  448   3.639   3.845   9.681 -1.7244  0.1010 -1.1802
    4SAPS   H7S  449   3.588   3.693   9.600  1.6966 -0.7025 -1.5669
    4SAPS   C28  450   3.796   3.713   9.594 -0.0350 -0.2369 -0.2816
    4SAPS   H8R  451   3.889   3.702   9.651 -0.2510 -0.1100  0.0942
    4SAPS   C29  452   3.822   3.727   9.469 -0.7531  0.6865  0.7680
    4SAPS   H9R  453   3.922   3.698   9.434 -1.4899 -1.2584  0.1898
    4SAPS  C210  454   3.728   3.776   9.362 -0.2137 -0.4383 -0.8006
    4SAPS  H10R  455   3.638   3.828   9.399  0.7980  1.0174 -0.3387
    4SAPS  H10S  456   3.697   3.694   9.294 -2.4856  1.6101 -2.3072
    4SAPS  C211  457   3.788   3.887   9.277  0.6981  0.4746  0.8834
    4SAPS  H11R  458   3.761   3.983   9.323  0.4179  0.5739  0.5083
    4SAPS  C212  459   3.853   3.869   9.165 -0.4501  0.2719 -0.2541
    4SAPS  H12R  460   3.914   3.956   9.135 -2.2007  1.5704 -0.1112
    4SAPS  C213  461   3.887   3.734   9.103  0.0746  0.1087  0.3372
    4SAPS  H13R  462   3.793   3.676   9.098 -0.7996  1.5568 -0.4056
    4SAPS  H13S  463   3.943   3.669   9.173  1.5649  0.9798 -0.0269
    4SAPS  C214  464   3.964   3.752   8.971 -0.2148 -0.2644 -0.0256
    4SAPS  H14R  465   4.073   3.748   8.981 -0.1600  2.4556  0.9547
    4SAPS  C215  466   3.909   3.763   8.845 -0.4321 -0.2689  0.1882
    4SAPS  H15R  467   3.973   3.760   8.756 -1.9927 -1.0672 -0.9311
    4SAPS  C216  468   3.757   3.755   8.824 -0.0911 -0.0035 -0.2974
    4SAPS  H16R  469   3.700   3.737   8.918 -0.0193  1.1240 -0.0288
    4SAPS  H16S  470   3.744   3.670   8.754  2.5135  1.4687 -2.6509
    4SAPS  C217  471   3.688   3.870   8.752 -0.3209  0.5632  0.5139
    4SAPS  H17R  472   3.692   3.957   8.821 -1.0629  1.4710 -0.5535
    4SAPS  H17S  473   3.579   3.850   8.739  0.0660 -2.0610  0.9822
    4SAPS  C218  474   3.741   3.898   8.613 -0.8874 -0.5673  0.9080
    4SAPS  H18R  475   3.770   3.800   8.569 -1.9395 -0.6874  0.4737
    4SAPS  H18S  476   3.832   3.961   8.625 -0.7091 -0.6890  0.2586
    4SAPS  C219  477   3.640   3.970   8.524  0.3397  0.4411  0.1949
    4SAPS  H19R  478   3.653   4.078   8.548 -1.6018  1.5144 -3.1426
    4SAPS  H19S  479   3.533   3.943   8.539  0.6504 -1.2584 -0.4916
    4SAPS  C220  480   3.687   3.955   8.378  0.0140  0.0844 -0.0941
    4SAPS  H20R  481   3.796   3.969   8.365 -0.4139  1.4254 -2.6512
    4SAPS  H20S  482   3.633   4.023   8.308 -1.9458 -1.3169  0.0112
    4SAPS  H20T  483   3.671   3.850   8.345 -1.1310 -0.0331  0.7848
    4SAPS   C33  484   3.258   4.660  10.024 -0.0022 -0.2925 -0.1184
    4SAPS   H3X  485   3.324   4.731  10.078 -0.5634  0.7397 -0.7440
    4SAPS   H3Y  486   3.155   4.703  10.032 -0.7706 -1.3585 -3.3832
    4SAPS   C34  487   3.303   4.646   9.881  0.7593 -0.6554 -0.1183
    4SAPS   H4X  488   3.397   4.588   9.866  1.6889  0.3010  1.7952
    4SAPS   H4Y  489   3.318   4.749   9.843 -0.0684 -0.2575  0.6147
    4SAPS   C35  490   3.200   4.587   9.788 -0.6477  0.6227  0.5535
    4SAPS   H5X  491   3.096   4.613   9.817 -1.0394 -0.5509  0.2244
    4SAPS   H5Y  492   3.196   4.476   9.788  0.1358  0.5938  0.3433
    4SAPS   C36  493   3.216   4.636   9.643  0.0817  0.6417  0.0790
    4SAPS   H6X  494   3.186   4.743   9.645  0.1387  0.6603 -0.0855
    4SAPS   H6Y  495   3.132   4.594   9.584  0.1215 -1.6623  1.6210
    4SAPS   C37  496   3.349   4.597   9.574 -0.4298  0.3923 -0.2837
    4SAPS   H7X  497   3.348   4.486   9.559  0.1341  0.4832 -1.0647
    4SAPS   H7Y  498   3.437   4.622   9.637  0.1946 -1.1814 -0.4832
    4SAPS   C38  499   3.371   4.655   9.431  0.2791 -0.6312 -0.3304
    4SAPS   H8X  500   3.381   4.763   9.453  1.0869 -0.3895 -1.8491
    4SAPS   H8Y  501   3.283   4.644   9.365  0.8063  0.5987 -1.2615
    4SAPS   C39  502   3.498   4.612   9.358  0.0008 -0.3163 -0.5575
    4SAPS   H9X  503   3.473   4.505   9.339  0.2776 -0.0991 -2.2627
    4SAPS   H9Y  504   3.579   4.619   9.434  1.0796 -3.0184 -1.3828
    4SAPS  C310  505   3.535   4.682   9.224  0.1041  0.5053  0.5140
    4SAPS  H10X  506   3.628   4.635   9.184 -0.5667 -0.8042  0.4830
    4SAPS  H10Y  507   3.554   4.791   9.237  2.1528  0.0995  1.1913
    4SAPS  C311  508   3.421   4.659   9.121 -0.1002  0.4948  0.9487
    4SAPS  H11X  509   3.334   4.719   9.156 -1.9108 -1.1756 -0.6035
    4SAPS  H11Y  510   3.400   4.551   9.118  1.8288  0.1117  0.3334
    4SAPS  C312  511   3.463   4.699   8.976 -0.1821  0.1962 -0.2117
    4SAPS  H12X  512   3.548   4.639   8.938 -0.1106  0.2713 -0.1715
    4SAPS  H12Y  513   3.489   4.807   8.982 -1.7236  0.4945  1.7331
    4SAPS  C313  514   3.342   4.683   8.880 -0.4726 -0.2325 -0.0811
    4SAPS  H13X  515   3.252   4.739   8.913  0.0627 -0.9590  2.7156
    4SAPS  H13Y  516   3.308   4.577   8.878  1.0797 -0.7393 -0.8193
    4SAPS  C314  517   3.383   4.714   8.738  0.0567  0.0630 -0.1024
    4SAPS  H14X  518   3.433   4.625   8.693 -3.3199 -0.6442 -2.7322
    4SAPS  H14Y  519   3.454   4.799   8.731  0.6643 -0.2951  1.4784
    4SAPS  C315  520   3.250   4.753   8.657 -0.5188 -0.4141  0.0719
    4SAPS  H15X  521   3.206   4.849   8.691  0.7000 -0.4009  1.6895
    4SAPS  H15Y  522   3.174   4.672   8.662 -0.5672 -0.5918 -2.9883
    4SAPS  C316  523   3.272   4.776   8.509 -0.2630  0.5268 -0.4649
    4SAPS  H16X  524   3.289   4.674   8.469 -1.3122  0.4238 -0.6704
    4SAPS  H16Y  525   3.358   4.844   8.487 -0.3696  0.6245 -0.5791
    4SAPS  C317  526   3.159   4.829   8.429 -0.5253 -0.0380  0.1528
    4SAPS  H17X  527   3.125   4.931   8.458  1.4213  0.4591  0.7574
    4SAPS  H17Y  528   3.077   4.764   8.466  0.7000 -0.1434  2.7835
    4SAPS  C318  529   3.158   4.791   8.285 -0.1246  0.0378  0.2710
    4SAPS  H18X  530   3.080   4.846   8.229 -1.5415 -0.8780  1.3186
    4SAPS  H18Y  531   3.128   4.687   8.261 -0.9768  0.6354 -1.2898
    4SAPS  H18Z  532   3.257   4.805   8.236  0.5943 -3.6024  0.5329
    5SAPS     N  533   1.145   2.872  11.011 -0.3026  0.0273 -0.5190
    5SAPS   HN1  534   1.130   2.921  10.920 -0.4858  0.0289 -0.4869
    5SAPS   HN2  535   1.122   2.941  11.085  1.0544 -0.7348  0.6221
    5SAPS   HN3  536   1.240   2.829  11.007 -0.3001 -0.0330  0.2612
    5SAPS   C12  537   1.053   2.763  11.017  0.3761 -0.1288  0.7286
    5SAPS  H12A  538   1.032   2.711  10.925  0.8284  3.7986 -1.6636
    5SAPS   C13  539   1.089   2.657  11.128 -0.1029 -0.1984 -0.2892
    5SAPS  O13A  540   1.172   2.686  11.219 -0.1390 -0.0084  0.6825
    5SAPS  O13B  541   1.014   2.558  11.151  0.1471  0.0848 -0.2441
    5SAPS   C11  542   0.909   2.821  11.059 -0.0791 -0.3758 -0.8713
    5SAPS  H11A  543   0.905   2.844  11.168  0.4213 -0.6366 -0.7936
    5SAPS  H11B  544   0.829   2.749  11.031 -1.7099 -0.1458  2.8906
    5SAPS     P  545   0.741   3.011  10.973  0.6725  0.1419  0.1628
    5SAPS   O13  546   0.637   2.939  11.052 -0.2339 -0.2285  0.5007
    5SAPS   O14  547   0.764   3.154  11.000 -0.6912  0.6261 -0.7289
    5SAPS   O12  548   0.884   2.944  10.989 -0.5635 -0.8694 -0.1416
    5SAPS   O11  549   0.717   2.985  10.816 -0.2430  0.1044 -0.6731
    5SAPS    C1  550   0.820   2.929  10.734  0.2092 -0.6831  0.2796
    5SAPS    HA  551   0.923   2.952  10.767 -0.1037  4.0614 -1.7614
    5SAPS    HB  552   0.810   2.818  10.743 -1.7295 -0.4245  1.9598
    5SAPS    C2  553   0.808   2.959  10.582  0.3216 -0.0052  0.7271
    5SAPS    HS  554   0.901   2.922  10.534 -1.7040 -3.5538 -0.7205
    5SAPS   O21  555   0.791   3.097  10.561  0.5276 -0.6649 -0.6714
    5SAPS   C21  556   0.890   3.175  10.592 -0.0847  0.1249  0.0536
    5SAPS   O22  557   1.000   3.141  10.623  0.4520 -0.1858 -0.4581
    5SAPS   C22  558   0.848   3.324  10.559  0.5126  0.1714 -0.3540
    5SAPS   H2R  559   0.814   3.362  10.658 -0.7600 -1.3905 -0.1654
    5SAPS   H2S  560   0.932   3.390  10.530  0.0128  0.2966 -1.5594
    5SAPS    C3  561   0.699   2.882  10.511  0.3994 -0.0623  0.0733
    5SAPS    HX  562   0.597   2.884  10.555 -0.1518  1.5540 -1.2571
    5SAPS    HY  563   0.729   2.777  10.533  0.2698 -0.2474 -0.6253
    5SAPS   O31  564   0.710   2.902  10.369  0.6092  0.6225  0.6693
    5SAPS   C31  565   0.608   2.974  10.317  0.5260 -0.5685  0.0277
    5SAPS   O32  566   0.511   3.012  10.379 -0.4758  0.1733  0.0507
    5SAPS   C32  567   0.621   2.991  10.170  0.1944  0.3077  0.5132
    5SAPS   H2X  568   0.600   2.898  10.113  2.6220  1.5317 -2.5263
    5SAPS   H2Y  569   0.730   3.010  10.157  0.3140 -0.6327  0.1357
    5SAPS   C23  570   0.739   3.338  10.450 -0.3554  0.1887  0.9205
    5SAPS   H3R  571   0.659   3.263  10.468  0.3073 -0.0430  3.0152
    5SAPS   H3S  572   0.775   3.306  10.350  0.1606  0.7833  0.9108
    5SAPS   C24  573   0.690   3.481  10.436  0.0048  0.4273 -0.0585
    5SAPS   H4R  574   0.780   3.545  10.428 -0.2127  0.4758 -2.6121
    5SAPS   H4S  575   0.652   3.513  10.535 -0.4506 -0.4155  0.0398
    5SAPS   C25  576   0.595   3.516  10.321 -0.2818  0.2211 -0.4578
    5SAPS   H5R  577   0.499   3.464  10.326 -0.2757  0.2274 -0.2743
    5SAPS   C26  578   0.610   3.606  10.224 -0.1352 -0.2232 -0.1211
    5SAPS   H6R  579   0.526   3.607  10.152 -1.6886  1.7533  1.6561
    5SAPS   C27  580   0.717   3.702  10.199  0.0285  0.0820  0.3291
    5SAPS   H7R  581   0.735   3.768  10.286 -1.8773  0.5644  0.3955
    5SAPS   H7S  582   0.678   3.778  10.127 -0.6619 -0.6753 -0.1136
    5SAPS   C28  583   0.844   3.646  10.161 -0.0205  0.1070 -0.1570
    5SAPS   H8R  584   0.876   3.570  10.234  0.5864  0.1994 -0.3218
    5SAPS   C29  585   0.925   3.680  10.055  0.3956  0.3018  0.1296
    5SAPS   H9R  586   1.029   3.644  10.054  1.2634  2.5619  2.3837
    5SAPS  C210  587   0.887   3.780   9.944 -0.3577 -0.4224  0.0973
    5SAPS  H10R  588   0.931   3.881   9.954  0.1170 -0.7092  0.9769
    5SAPS  H10S  589   0.779   3.800   9.954 -0.7056 -1.7776 -0.7571
    5SAPS  C211  590   0.897   3.730   9.801 -0.1523 -0.0216 -0.4203
    5SAPS  H11R  591   0.991   3.676   9.778  0.5138  0.4868  1.0512
    5SAPS  C212  592   0.813   3.753   9.701 -0.4843  0.6524 -0.4458
    5SAPS  H12R  593   0.839   3.717   9.600  2.3386  0.3174  0.3450
    5SAPS  C213  594   0.677   3.813   9.711 -0.7788  1.0065  0.5995
    5SAPS  H13R  595   0.666   3.869   9.616  0.1714  1.6056  0.8376
    5SAPS  H13S  596   0.679   3.884   9.796  0.8928  0.6214  0.8957
    5SAPS  C214  597   0.564   3.712   9.735 -0.2425  0.0533  0.6930
    5SAPS  H14R  598   0.588   3.629   9.804  0.4428 -0.9978 -0.7922
    5SAPS  C215  599   0.445   3.709   9.671 -0.2976 -0.6426 -0.0147
    5SAPS  H15R  600   0.385   3.617   9.677 -0.5130 -0.4281  1.4714
    5SAPS  C216  601   0.410   3.813   9.565  0.5204  0.2860 -0.1946
    5SAPS  H16R  602   0.493   3.838   9.495 -0.2865  3.4291 -0.1371
    5SAPS  H16S  603   0.367   3.903   9.615  0.7808 -0.2878  1.0872
    5SAPS  C217  604   0.300   3.740   9.488  0.5438  0.0508  0.0223
    5SAPS  H17R  605   0.207   3.714   9.544  0.8594  2.1159  1.5662
    5SAPS  H17S  606   0.342   3.643   9.452  0.6979  0.6201 -1.3620
    5SAPS  C218  607   0.246   3.816   9.372  0.2050  0.5666  1.1373
    5SAPS  H18R  608   0.207   3.914   9.407  0.4138  1.4038 -0.8930
    5SAPS  H18S  609   0.327   3.828   9.297 -0.9142  1.1670 -0.0027
    5SAPS  C219  610   0.141   3.739   9.290 -0.3236 -0.2597  0.6652
    5SAPS  H19R  611   0.146   3.754   9.180  1.0911 -0.2635  0.7218
    5SAPS  H19S  612   0.043   3.774   9.329  0.3209 -0.2416  2.2875
    5SAPS  C220  613   0.158   3.586   9.287  0.5061  0.7792 -0.0391
    5SAPS  H20R  614   0.124   3.533   9.378 -0.7967 -0.3513 -1.1621
    5SAPS  H20S  615   0.264   3.563   9.264 -0.3077 -1.9011 -1.3599
    5SAPS  H20T  616   0.099   3.541   9.204 -2.5737  0.2743  2.3160
    5SAPS   C33  617   0.526   3.101  10.102 -0.1305 -0.2355  0.0625
    5SAPS   H3X  618   0.550   3.198  10.151  0.7646 -1.8471  2.9792
    5SAPS   H3Y  619   0.422   3.069  10.125 -0.2517 -0.5282 -0.8888
    5SAPS   C34  620   0.546   3.119   9.956 -0.3309 -0.3476  0.1089
    5SAPS   H4X  621   0.481   3.200   9.916  2.0857  1.3532 -0.4861
    5SAPS   H4Y  622   0.524   3.027   9.898 -1.8388  1.5849 -2.5104
    5SAPS   C35  623   0.689   3.168   9.906  0.1885 -0.0494 -0.7455
    5SAPS   H5X  624   0.760   3.083   9.908  1.4359  0.9960  2.6469
    5SAPS   H5Y  625   0.728   3.238   9.983 -0.8855 -1.4897  1.1572
    5SAPS   C36  626   0.679   3.236   9.774  0.2324  0.1759  0.0823
    5SAPS   H6X  627   0.604   3.318   9.771  0.4013  0.2952 -1.2477
    5SAPS   H6Y  628   0.655   3.159   9.698  0.1648  2.5343 -2.3699
    5SAPS   C37  629   0.816   3.292   9.722  0.2421 -0.0575 -0.5203
    5SAPS   H7X  630   0.875   3.215   9.668 -0.1487 -0.5814 -0.1979
    5SAPS   H7Y  631   0.882   3.334   9.801  1.2979  0.7857 -1.8190
    5SAPS   C38  632   0.792   3.411   9.624  0.3015  0.5162 -0.2571
    5SAPS   H8X  633   0.892   3.442   9.589 -0.2937  1.9224 -0.7211
    5SAPS   H8Y  634   0.750   3.492   9.687 -2.5695 -0.6353 -0.5743
    5SAPS   C39  635   0.701   3.388   9.501  0.4253  0.2901  0.0555
    5SAPS   H9X  636   0.598   3.372   9.538  0.4267 -0.2612 -0.1627
    5SAPS   H9Y  637   0.732   3.298   9.444  1.4993  1.1474 -0.7298
    5SAPS  C310  638   0.700   3.504   9.405 -1.4408  0.0465 -0.6761
    5SAPS  H10X  639   0.800   3.508   9.358 -1.4378  0.6917 -0.6174
    5SAPS  H10Y  640   0.687   3.596   9.466 -1.1748  0.4554 -1.2411
    5SAPS  C311  641   0.601   3.491   9.291 -0.4088  0.0353 -0.8550
    5SAPS  H11X  642   0.502   3.452   9.324  0.9577 -0.6876  2.6090
    5SAPS  H11Y  643   0.642   3.415   9.222 -0.1447 -1.3743  0.8217
    5SAPS  C312  644   0.579   3.621   9.210  0.4647  0.6881  0.0431
    5SAPS  H12X  645   0.675   3.662   9.171 -0.3092  2.2739 -0.2460
    5SAPS  H12Y  646   0.539   3.705   9.270 -1.4987  1.1757 -1.8638
    5SAPS  C313  647   0.491   3.596   9.085  0.4098 -0.0944  0.5234
    5SAPS  H13X  648   0.397   3.551   9.124 -0.2006  1.3323  0.6997
    5SAPS  H13Y  649   0.543   3.514   9.031 -0.4964 -0.2973 -0.0455
    5SAPS  C314  650   0.460   3.711   9.006 -0.0399  0.1044 -0.0743
    5SAPS  H14X  651   0.551   3.753   8.956  0.2851  0.4208  0.7646
    5SAPS  H14Y  652   0.415   3.791   9.069  1.6063 -0.1831  1.5119
    5SAPS  C315  653   0.364   3.673   8.886 -0.1892 -0.3995 -1.0388
    5SAPS  H15X  654   0.410   3.589   8.830 -1.0750 -1.3392 -0.3868
    5SAPS  H15Y  655   0.345   3.757   8.816  0.5349 -1.3869 -2.4266
    5SAPS  C316  656   0.224   3.617   8.923  0.6465  0.2433 -0.4315
    5SAPS  H16X  657   0.160   3.698   8.965  1.2138  0.6705 -0.3840
    5SAPS  H16Y  658   0.218   3.536   8.999  0.0990 -0.8583 -1.6444
    5SAPS  C317  659   0.141   3.578   8.795 -0.2774 -0.5434 -0.2867
    5SAPS  H17X  660   0.080   3.488   8.817 -0.2693 -0.4089  0.3082
    5SAPS  H17Y  661   0.226   3.558   8.727  1.3641 -0.2546  1.6115
    5SAPS  C318  662   0.057   3.697   8.743  0.4311  0.4833 -0.7263
    5SAPS  H18X  663   0.010   3.664   8.648 -1.0417 -0.8132  0.4386
    5SAPS  H18Y  664   0.102   3.799   8.739  0.0676  0.6041 -1.8421
    5SAPS  H18Z  665  -0.033   3.719   8.803  0.7363  2.7112 -1.0346
    6SAPS     N  666   0.276   2.668  10.634  0.5423  0.3132  1.4278
    6SAPS   HN1  667   0.208   2.739  10.599  0.1315  0.7189  3.0104
    6SAPS   HN2  668   0.367   2.714  10.656  0.5170  1.8812 -1.4926
    6SAPS   HN3  669   0.299   2.602  10.557 -0.0277  0.5717  1.0389
    6SAPS   C12  670   0.233   2.585  10.755  0.7526 -0.0629 -0.6433
    6SAPS  H12A  671   0.268   2.483  10.754  1.1590  0.0731 -0.5409
    6SAPS   C13  672   0.266   2.652  10.893  0.1719 -0.1968 -0.1445
    6SAPS  O13A  673   0.325   2.760  10.891  0.1198  0.1316 -0.6477
    6SAPS  O13B  674   0.224   2.585  10.997 -0.4563  0.2408 -0.1811
    6SAPS   C11  675   0.076   2.580  10.733 -0.4110 -0.0705  0.1593
    6SAPS  H11A  676   0.042   2.685  10.730  0.1051  0.2389  3.2388
    6SAPS  H11B  677   0.023   2.518  10.809  0.7739 -0.6874  0.5047
    6SAPS     P  678  -0.082   2.527  10.528 -0.2565 -0.2153  0.0539
    6SAPS   O13  679  -0.189   2.542  10.631 -0.0993  0.7639  0.0435
    6SAPS   O14  680  -0.057   2.639  10.431 -0.1774  0.7218  0.0762
    6SAPS   O12  681   0.047   2.513  10.618 -0.1602  0.3565  0.4854
    6SAPS   O11  682  -0.088   2.392  10.452 -0.1243 -0.1833 -0.3618
    6SAPS    C1  683   0.017   2.300  10.448 -0.5017  0.1557 -0.0905
    6SAPS    HA  684   0.099   2.330  10.380  0.2504  0.0205  0.7529
    6SAPS    HB  685   0.060   2.276  10.547 -1.4379 -1.1738  0.0072
    6SAPS    C2  686  -0.031   2.164  10.395  0.0199  0.0340  0.0505
    6SAPS    HS  687   0.058   2.099  10.385  1.1552  1.7575 -1.4883
    6SAPS   O21  688  -0.079   2.174  10.258  0.1488  0.4577  0.4022
    6SAPS   C21  689   0.010   2.208  10.168 -0.7143 -0.6555  0.1960
    6SAPS   O22  690   0.129   2.228  10.186 -0.0071 -0.4354  0.6927
    6SAPS   C22  691  -0.062   2.217  10.037 -0.2583  0.6396 -0.6299
    6SAPS   H2R  692  -0.005   2.159   9.961 -0.8585  0.1669 -0.7180
    6SAPS   H2S  693  -0.155   2.156  10.039 -0.1315  0.4358 -1.0044
    6SAPS    C3  694  -0.150   2.101  10.476 -0.0080  0.3773 -0.4416
    6SAPS    HX  695  -0.248   2.140  10.441 -0.4180 -0.5938 -0.3993
    6SAPS    HY  696  -0.125   2.123  10.582  1.1863 -0.7869 -0.4704
    6SAPS   O31  697  -0.150   1.959  10.469 -0.4637 -0.0617  0.2909
    6SAPS   C31  698  -0.254   1.903  10.533  1.1161 -0.1031 -0.4886
    6SAPS   O32  699  -0.346   1.964  10.577 -0.7357  0.1053  0.6373
    6SAPS   C32  700  -0.251   1.751  10.503  0.4893  0.5496  0.0061
    6SAPS   H2X  701  -0.332   1.704  10.563  0.1659 -1.7337 -2.1264
    6SAPS   H2Y  702  -0.158   1.706  10.543  0.3576  1.0570  0.9169
    6SAPS   C23  703  -0.090   2.352   9.987  0.3688  0.2905 -0.3988
    6SAPS   H3R  704  -0.095   2.421  10.074 -2.7302 -1.4991  0.9198
    6SAPS   H3S  705  -0.186   2.372   9.934 -0.9057 -0.4341  1.5688
    6SAPS   C24  706   0.032   2.404   9.903 -0.4419 -0.7981 -0.2349
    6SAPS   H4R  707   0.047   2.329   9.823 -2.2857  1.7065 -3.0678
    6SAPS   H4S  708   0.123   2.409   9.967 -1.1347  1.3548  0.6560
    6SAPS   C25  709   0.023   2.536   9.833 -0.2867  0.0485 -0.3684
    6SAPS   H5R  710   0.004   2.622   9.899 -0.3198  1.3108 -1.9768
    6SAPS   C26  711   0.009   2.553   9.701 -0.3502  0.7072  0.1398
    6SAPS   H6R  712  -0.002   2.654   9.658 -0.0896  0.8508  0.4091
    6SAPS   C27  713   0.001   2.439   9.598 -0.0475  0.0703 -0.3295
    6SAPS   H7R  714   0.053   2.346   9.630 -3.0713 -0.0632  4.7213
    6SAPS   H7S  715   0.062   2.469   9.509  0.2373 -1.8659 -0.8122
    6SAPS   C28  716  -0.138   2.412   9.549 -0.2469  0.8364  0.1014
    6SAPS   H8R  717  -0.220   2.387   9.619 -1.4302  0.4761 -1.3976
    6SAPS   C29  718  -0.165   2.410   9.415 -0.2442  0.3382  0.8555
    6SAPS   H9R  719  -0.270   2.386   9.396 -0.0099 -0.4451  0.5270
    6SAPS  C210  720  -0.085   2.426   9.287 -0.2703  0.4630 -0.0728
    6SAPS  H10R  721  -0.120   2.347   9.217  2.2024 -1.8579  1.1949
    6SAPS  H10S  722   0.022   2.407   9.310 -0.1159 -0.6897 -1.6511
    6SAPS  C211  723  -0.093   2.564   9.228 -0.1482 -0.1587  0.1576
    6SAPS  H11R  724  -0.093   2.642   9.306  0.3705 -1.9908  2.0520
    6SAPS  C212  725  -0.112   2.587   9.095  0.6792  0.2573  0.3900
    6SAPS  H12R  726  -0.125   2.690   9.060  1.2340 -0.1481 -1.0916
    6SAPS  C213  727  -0.123   2.485   8.987 -0.6905  0.7404 -0.2809
    6SAPS  H13R  728  -0.054   2.403   9.015 -0.9749  1.0683  1.4459
    6SAPS  H13S  729  -0.077   2.515   8.890  0.2465 -1.5852 -0.5795
    6SAPS  C214  730  -0.266   2.440   8.958  0.1587 -0.3387  0.0027
    6SAPS  H14R  731  -0.315   2.370   9.027  0.6559 -0.3222  0.3709
    6SAPS  C215  732  -0.345   2.496   8.863  0.5843 -0.4946  0.5612
    6SAPS  H15R  733  -0.449   2.462   8.856  0.5612  0.1146 -2.7687
    6SAPS  C216  734  -0.314   2.613   8.770 -0.6752  0.2230  0.6385
    6SAPS  H16R  735  -0.343   2.590   8.665 -1.2597 -0.3116  0.9177
    6SAPS  H16S  736  -0.203   2.625   8.777 -0.8106  1.6040  0.6547
    6SAPS  C217  737  -0.383   2.743   8.820 -0.4208 -0.1889 -0.1146
    6SAPS  H17R  738  -0.343   2.757   8.923 -0.5119  2.9649 -0.4764
    6SAPS  H17S  739  -0.492   2.722   8.820 -0.2975 -0.8929  0.9752
    6SAPS  C218  740  -0.346   2.863   8.737  0.5001  0.6213 -0.7968
    6SAPS  H18R  741  -0.413   2.865   8.648  0.1326 -0.9164 -0.5544
    6SAPS  H18S  742  -0.248   2.845   8.686 -0.5448  1.4036 -3.1664
    6SAPS  C219  743  -0.330   3.002   8.810  0.2388 -0.3306 -0.0932
    6SAPS  H19R  744  -0.269   3.066   8.743  1.2216 -0.1545  0.9682
    6SAPS  H19S  745  -0.256   2.988   8.891  1.0513  0.2154 -0.7445
    6SAPS  C220  746  -0.459   3.059   8.869 -0.1398  0.2995  0.3052
    6SAPS  H20R  747  -0.457   3.169   8.887  1.9887  0.7738 -2.5279
    6SAPS  H20S  748  -0.473   3.001   8.963  0.5490  0.4075  0.4776
    6SAPS  H20T  749  -0.543   3.034   8.801  1.2203 -1.4482 -0.7939
    6SAPS   C33  750  -0.272   1.713  10.356 -0.6351 -0.2236 -0.1986
    6SAPS   H3X  751  -0.197   1.772  10.299 -0.4865 -1.2069 -1.0229
    6SAPS   H3Y  752  -0.364   1.752  10.309 -0.0633  0.7909 -0.4981
    6SAPS   C34  753  -0.255   1.568  10.318  0.7636 -0.3511  0.5653
    6SAPS   H4X  754  -0.329   1.518  10.385 -1.1520  0.0666 -1.1650
    6SAPS   H4Y  755  -0.151   1.533  10.331  0.2876 -1.6408  0.9994
    6SAPS   C35  756  -0.300   1.529  10.178 -0.0869 -0.6932  0.3955
    6SAPS   H5X  757  -0.401   1.573  10.168 -0.0109 -1.1766 -3.0858
    6SAPS   H5Y  758  -0.317   1.419  10.181 -0.5624 -0.6142  0.6019
    6SAPS   C36  759  -0.202   1.575  10.065 -0.1513  0.5187 -0.3119
    6SAPS   H6X  760  -0.106   1.521  10.075 -1.0229 -0.5688  2.5132
    6SAPS   H6Y  761  -0.191   1.685  10.082 -0.2505  0.6112 -0.8240
    6SAPS   C37  762  -0.255   1.545   9.922 -0.1102 -0.7692 -0.1057
    6SAPS   H7X  763  -0.355   1.587   9.900  1.5929  2.2441 -2.4818
    6SAPS   H7Y  764  -0.272   1.437   9.900 -2.1571 -1.2982  3.7036
    6SAPS   C38  765  -0.169   1.609   9.810  0.3654 -0.7472  0.1062
    6SAPS   H8X  766  -0.067   1.570   9.828 -0.5184 -1.9604  2.8359
    6SAPS   H8Y  767  -0.184   1.716   9.836 -2.6781 -1.0346 -0.3294
    6SAPS   C39  768  -0.217   1.574   9.669 -0.3019 -0.1375  0.0185
    6SAPS   H9X  769  -0.322   1.606   9.654 -0.6805 -2.3031 -2.2838
    6SAPS   H9Y  770  -0.215   1.465   9.647  0.7496 -0.4291  1.4701
    6SAPS  C310  771  -0.119   1.619   9.560  0.0315 -0.1792  0.2424
    6SAPS  H10X  772  -0.026   1.560   9.576  0.0877 -0.3089 -0.5515
    6SAPS  H10Y  773  -0.095   1.721   9.596 -0.4452 -0.1632  0.5165
    6SAPS  C311  774  -0.181   1.622   9.419  0.2047  0.0806 -0.3362
    6SAPS  H11X  775  -0.277   1.677   9.423  0.1014 -0.1943  1.0224
    6SAPS  H11Y  776  -0.215   1.527   9.371 -1.2968  0.6935 -0.4984
    6SAPS  C312  777  -0.102   1.713   9.330  0.5311  0.7813  0.2015
    6SAPS  H12X  778  -0.003   1.662   9.321 -0.6805 -1.7455  0.9205
    6SAPS  H12Y  779  -0.075   1.808   9.380  1.3885  1.2559 -1.1151
    6SAPS  C313  780  -0.149   1.728   9.182 -0.3657  0.1300 -0.2202
    6SAPS  H13X  781  -0.255   1.760   9.178 -0.9378 -1.3407  2.1788
    6SAPS  H13Y  782  -0.151   1.626   9.137  0.1670  0.4056 -0.8814
    6SAPS  C314  783  -0.048   1.814   9.102 -0.4566 -0.2308  0.9812
    6SAPS  H14X  784   0.051   1.778   9.135 -0.5568 -0.1323  1.3839
    6SAPS  H14Y  785  -0.057   1.918   9.141  2.7587  0.5757 -0.2485
    6SAPS  C315  786  -0.078   1.817   8.948 -0.1973  0.0687  0.9407
    6SAPS  H15X  787  -0.187   1.807   8.931  0.1428  0.7009 -1.8962
    6SAPS  H15Y  788  -0.028   1.722   8.919 -1.9618 -0.2504 -1.1569
    6SAPS  C316  789  -0.033   1.950   8.879 -0.2364 -0.4950 -0.7583
    6SAPS  H16X  790   0.068   1.969   8.922 -0.6216 -0.5639  0.1839
    6SAPS  H16Y  791  -0.103   2.027   8.917  1.1112  0.9232 -1.0606
    6SAPS  C317  792  -0.033   1.935   8.728 -0.2392 -0.0224  1.1412
    6SAPS  H17X  793  -0.028   2.034   8.679  2.7142 -0.8658 -0.3762
    6SAPS  H17Y  794  -0.129   1.892   8.694  0.3123 -0.8909  0.6714
    6SAPS  C318  795   0.062   1.835   8.667 -0.2150 -0.2900 -0.1188
    6SAPS  H18X  796   0.166   1.852   8.700  0.1999  1.0133 -2.0274
    6SAPS  H18Y  797   0.061   1.814   8.558 -0.8820 -2.8356  0.3407
    6SAPS  H18Z  798   0.044   1.735   8.714 -0.6706 -1.2472 -2.2643
    7SAPS     N  799   2.299   3.721  10.966  0.3521  0.8081  0.4891
    7SAPS   HN1  800   2.293   3.824  10.975  2.9684  1.2169 -1.6096
    7SAPS   HN2  801   2.203   3.681  10.966  0.1678  1.2325 -0.7786
    7SAPS   HN3  802   2.356   3.696  11.049  0.9096 -1.1552 -0.4448
    7SAPS   C12  803   2.369   3.684  10.841  0.0729 -0.7863 -0.2148
    7SAPS  H12A  804   2.459   3.743  10.829 -0.3953 -0.3578 -1.6686
    7SAPS   C13  805   2.407   3.534  10.825 -0.1358 -0.6005  0.1603
    7SAPS  O13A  806   2.392   3.455  10.922 -0.0441  0.4233 -0.1751
    7SAPS  O13B  807   2.472   3.496  10.724  0.4140 -0.3543 -0.2230
    7SAPS   C11  808   2.272   3.710  10.722  0.9534 -0.0631 -0.2698
    7SAPS  H11A  809   2.323   3.686  10.627 -1.4335  1.3389 -1.9930
    7SAPS  H11B  810   2.254   3.820  10.723 -1.9486 -0.4413 -2.9018
    7SAPS     P  811   2.024   3.694  10.665 -0.4577  0.5746  0.3115
    7SAPS   O13  812   1.925   3.592  10.629 -0.5485 -0.9306 -0.3407
    7SAPS   O14  813   1.993   3.803  10.756 -0.0737 -0.3685  0.0971
    7SAPS   O12  814   2.151   3.628  10.728 -0.8971 -0.4737 -0.3070
    7SAPS   O11  815   2.065   3.765  10.533  0.1786  0.4040  0.4332
    7SAPS    C1  816   2.077   3.698  10.403 -0.2880 -0.0727 -0.3501
    7SAPS    HA  817   2.092   3.589  10.421  0.6886  0.4587  2.2347
    7SAPS    HB  818   1.988   3.716  10.339 -0.7843  1.6738  0.8236
    7SAPS    C2  819   2.196   3.751  10.316 -0.6133  0.6142 -0.1926
    7SAPS    HS  820   2.287   3.724  10.374  0.0052 -1.2460 -1.9863
    7SAPS   O21  821   2.181   3.894  10.303  0.0123 -0.1794 -0.0546
    7SAPS   C21  822   2.290   3.962  10.323  0.1777  0.7593  0.0901
    7SAPS   O22  823   2.398   3.916  10.354  0.2377  0.5767 -0.0404
    7SAPS   C22  824   2.254   4.118  10.328 -0.5222  0.4551 -0.4682
    7SAPS   H2R  825   2.145   4.135  10.322 -0.2706  1.6650 -2.0014
    7SAPS   H2S  826   2.285   4.136  10.433  0.1296 -3.3525  0.0858
    7SAPS    C3  827   2.195   3.683  10.181 -0.2088  0.2417 -0.3205
    7SAPS    HX  828   2.092   3.685  10.139 -0.4222  1.4467  0.2548
    7SAPS    HY  829   2.217   3.579  10.213  0.2403 -0.6538 -3.3064
    7SAPS   O31  830   2.294   3.743  10.097  0.3336 -0.1015  0.2961
    7SAPS   C31  831   2.342   3.652  10.014 -0.2313  0.5589 -0.2219
    7SAPS   O32  832   2.291   3.541  10.001 -0.1298  0.8768  0.0305
    7SAPS   C32  833   2.464   3.706   9.933  1.1322  0.9618  0.2356
    7SAPS   H2X  834   2.444   3.676   9.828 -0.7702 -2.5695  1.5210
    7SAPS   H2Y  835   2.553   3.646   9.962 -0.0992  0.0274  2.1498
    7SAPS   C23  836   2.333   4.205  10.229 -0.2481 -0.2550 -0.0718
    7SAPS   H3R  837   2.440   4.188  10.252 -0.4490 -2.8035 -0.8971
    7SAPS   H3S  838   2.309   4.307  10.265  0.0429 -0.2115 -0.0028
    7SAPS   C24  839   2.293   4.181  10.087  0.0508 -0.1987  0.1406
    7SAPS   H4R  840   2.182   4.186  10.094  0.0224  1.4179 -1.1755
    7SAPS   H4S  841   2.320   4.077  10.059  0.3295  0.0043 -0.3504
    7SAPS   C25  842   2.333   4.290   9.987 -0.4121 -0.4563 -1.0820
    7SAPS   H5R  843   2.383   4.377  10.033  0.9871 -0.7412 -2.0375
    7SAPS   C26  844   2.303   4.291   9.854  1.0351  0.2796 -0.3223
    7SAPS   H6R  845   2.339   4.379   9.799  0.5512  0.0842 -0.9511
    7SAPS   C27  846   2.221   4.189   9.777 -0.2133  0.3444 -0.3652
    7SAPS   H7R  847   2.153   4.133   9.844  0.7218  1.7671  1.8237
    7SAPS   H7S  848   2.291   4.114   9.732 -2.4650 -1.7713 -0.4196
    7SAPS   C28  849   2.137   4.256   9.681  0.2245 -0.2880  0.2477
    7SAPS   H8R  850   2.051   4.306   9.728 -0.8941 -0.1640 -1.8468
    7SAPS   C29  851   2.136   4.263   9.542  0.0401  0.1531 -0.8983
    7SAPS   H9R  852   2.058   4.322   9.492 -2.1481 -0.7548  1.3402
    7SAPS  C210  853   2.221   4.186   9.441 -0.2310 -0.1718  0.4493
    7SAPS  H10R  854   2.169   4.089   9.433 -0.0127 -0.0467 -2.9337
    7SAPS  H10S  855   2.320   4.174   9.490 -1.4528 -1.3056  2.7539
    7SAPS  C211  856   2.249   4.260   9.308 -0.1881 -0.2693 -0.9416
    7SAPS  H11R  857   2.312   4.350   9.321 -0.7914  0.1877 -1.1506
    7SAPS  C212  858   2.202   4.233   9.183 -0.4241 -0.1886  0.0124
    7SAPS  H12R  859   2.230   4.297   9.098 -0.0434  0.7245  0.8246
    7SAPS  C213  860   2.105   4.119   9.148 -0.6931 -0.5309 -0.3142
    7SAPS  H13R  861   2.053   4.085   9.240  1.6304  0.2452  1.3135
    7SAPS  H13S  862   2.168   4.030   9.126 -0.5520 -0.5699  0.2429
    7SAPS  C214  863   2.001   4.136   9.039  0.4433  0.2621  0.7006
    7SAPS  H14R  864   2.035   4.076   8.953  0.0859 -0.3940  1.0107
    7SAPS  C215  865   1.891   4.216   9.024  0.0442  0.2020 -0.3218
    7SAPS  H15R  866   1.828   4.216   8.934 -0.8190 -0.6700  0.2589
    7SAPS  C216  867   1.853   4.321   9.124 -0.2646  0.5644  0.0165
    7SAPS  H16R  868   1.939   4.393   9.121  1.1229 -1.0969 -0.8067
    7SAPS  H16S  869   1.859   4.289   9.231  4.6990  1.2598  0.0695
    7SAPS  C217  870   1.717   4.393   9.100 -0.0904  1.0192  0.5668
    7SAPS  H17R  871   1.691   4.412   8.994 -3.1361 -0.2827  1.0280
    7SAPS  H17S  872   1.715   4.489   9.155 -0.3220  1.9728 -1.0664
    7SAPS  C218  873   1.599   4.299   9.137 -1.0579  0.2445 -0.4605
    7SAPS  H18R  874   1.609   4.274   9.245 -1.1167  0.3501 -0.4324
    7SAPS  H18S  875   1.595   4.202   9.084 -0.2090 -0.4614  0.7285
    7SAPS  C219  876   1.458   4.367   9.134  0.2101  0.1576 -0.1886
    7SAPS  H19R  877   1.464   4.398   9.028  2.9850 -3.0353 -1.0620
    7SAPS  H19S  878   1.442   4.456   9.198  0.4657  2.7477 -3.5867
    7SAPS  C220  879   1.347   4.269   9.150 -0.2467  0.0490 -0.2641
    7SAPS  H20R  880   1.358   4.239   9.256 -2.1041  0.4854  0.0678
    7SAPS  H20S  881   1.363   4.177   9.089 -0.7556 -0.7879  0.8655
    7SAPS  H20T  882   1.245   4.311   9.132 -0.4839 -0.4282 -0.0277
    7SAPS   C33  883   2.494   3.855   9.940 -0.2046 -0.4919 -0.6596
    7SAPS   H3X  884   2.472   3.880  10.046  0.5901  1.8816 -1.0077
    7SAPS   H3Y  885   2.420   3.908   9.876 -1.2395 -1.0760  0.0423
    7SAPS   C34  886   2.636   3.900   9.907 -0.2514 -0.1042  0.0019
    7SAPS   H4X  887   2.705   3.836   9.966  1.6716  1.4685 -0.4547
    7SAPS   H4Y  888   2.647   4.010   9.923 -1.8532  0.2103 -0.9399
    7SAPS   C35  889   2.675   3.880   9.759  0.5211  0.2834  0.2578
    7SAPS   H5X  890   2.674   3.773   9.731 -1.9174 -0.0945  1.6353
    7SAPS   H5Y  891   2.780   3.911   9.745  0.5740  0.0813  0.2151
    7SAPS   C36  892   2.582   3.943   9.648  0.2823 -0.1352  0.2909
    7SAPS   H6X  893   2.572   4.050   9.672  1.0713  0.7098 -2.8198
    7SAPS   H6Y  894   2.486   3.887   9.648  0.2910 -0.1712 -1.0375
    7SAPS   C37  895   2.648   3.919   9.519  0.2777  0.3088  0.0430
    7SAPS   H7X  896   2.690   3.817   9.510 -2.4794 -1.0615  1.7240
    7SAPS   H7Y  897   2.731   3.988   9.494  1.9694 -1.4699  0.6791
    7SAPS   C38  898   2.536   3.925   9.410  0.4217 -0.4520  0.2317
    7SAPS   H8X  899   2.492   4.026   9.415  1.3607 -0.0029 -0.5707
    7SAPS   H8Y  900   2.450   3.854   9.418 -0.4986  0.2762 -2.7537
    7SAPS   C39  901   2.593   3.908   9.268 -0.2632 -0.0278 -0.7515
    7SAPS   H9X  902   2.637   3.806   9.263  0.7315  0.4338 -1.4569
    7SAPS   H9Y  903   2.668   3.983   9.236 -1.9945  1.8268 -0.5343
    7SAPS  C310  904   2.482   3.925   9.162 -0.2844 -0.2076 -0.2868
    7SAPS  H10X  905   2.445   4.030   9.155  0.7206  0.0450 -1.8323
    7SAPS  H10Y  906   2.391   3.865   9.184 -1.3504  1.0353 -1.1818
    7SAPS  C311  907   2.536   3.889   9.019 -0.0573  0.3397 -0.6477
    7SAPS  H11X  908   2.592   3.794   9.032  0.2142  0.5563 -0.2134
    7SAPS  H11Y  909   2.610   3.965   8.987  0.9794  0.1918  1.2745
    7SAPS  C312  910   2.417   3.885   8.918  0.3142  0.3004  0.5638
    7SAPS  H12X  911   2.399   3.988   8.880 -0.5578 -0.0156  0.1098
    7SAPS  H12Y  912   2.323   3.847   8.962  0.3248  1.4295  1.5885
    7SAPS  C313  913   2.440   3.782   8.806 -0.0884 -0.6414  0.4486
    7SAPS  H13X  914   2.472   3.687   8.853  1.7601  0.6026  1.7754
    7SAPS  H13Y  915   2.526   3.815   8.743  1.1492 -1.5748  1.6171
    7SAPS  C314  916   2.308   3.765   8.736 -0.4952  0.0637 -0.0960
    7SAPS  H14X  917   2.265   3.866   8.718  0.0021 -0.0172 -1.7864
    7SAPS  H14Y  918   2.231   3.709   8.794  1.2231 -1.6161  0.6335
    7SAPS  C315  919   2.328   3.710   8.603 -0.0322  0.5443  0.0459
    7SAPS  H15X  920   2.398   3.624   8.604  2.1716  2.3214  1.0899
    7SAPS  H15Y  921   2.383   3.782   8.540  1.1637 -0.5928 -0.2422
    7SAPS  C316  922   2.202   3.665   8.524 -0.0374  0.0699  0.7211
    7SAPS  H16X  923   2.120   3.614   8.580 -2.1159  2.0829 -0.4180
    7SAPS  H16Y  924   2.232   3.595   8.443 -1.3763 -0.6410  0.8115
    7SAPS  C317  925   2.111   3.772   8.458 -0.0217  0.6708 -0.0248
    7SAPS  H17X  926   2.054   3.737   8.369 -0.0073  1.3847 -0.3174
    7SAPS  H17Y  927   2.175   3.852   8.416 -0.2528  1.0039  0.2491
    7SAPS  C318  928   2.001   3.824   8.562  0.2281 -0.1759 -0.6726
    7SAPS  H18X  929   2.054   3.876   8.644 -1.7535 -0.0261  0.5628
    7SAPS  H18Y  930   1.935   3.737   8.585  0.0206  0.0053 -0.5803
    7SAPS  H18Z  931   1.937   3.901   8.512 -0.5028  0.2814  0.9217
    8SAPS     N  932   5.901   4.543  11.295  0.5119 -0.1701  0.3529
    8SAPS   HN1  933   5.851   4.523  11.384 -0.0709 -1.5717 -0.2675
    8SAPS   HN2  934   5.971   4.616  11.317  3.4239 -2.3440 -1.2075
    8SAPS   HN3  935   5.842   4.581  11.219  1.8158  1.0046 -0.0864
    8SAPS   C12  936   5.976   4.428  11.252  0.3329  0.2343 -0.3471
    8SAPS  H12A  937   6.034   4.385  11.332 -1.2537  0.3733  0.8902
    8SAPS   C13  938   5.886   4.306  11.218  0.5296  0.3328  0.0391
    8SAPS  O13A  939   5.760   4.317  11.246 -0.1156  0.0186 -0.3286
    8SAPS  O13B  940   5.943   4.194  11.219 -0.4308 -0.4145 -0.0995
    8SAPS   C11  941   6.065   4.453  11.115 -0.2683 -0.9692 -0.7151
    8SAPS  H11A  942   6.009   4.471  11.020 -0.9093  2.2608  0.1894
    8SAPS  H11B  943   6.131   4.366  11.095 -1.4130 -1.4540 -2.5282
    8SAPS     P  944   6.267   4.614  11.072  0.0364 -0.3968  0.3011
    8SAPS   O13  945   6.283   4.763  11.091 -0.2259  0.5257  0.7354
    8SAPS   O14  946   6.374   4.528  11.130  0.1737 -0.6334 -0.2285
    8SAPS   O12  947   6.132   4.577  11.140  1.1149 -0.0186  0.8043
    8SAPS   O11  948   6.252   4.595  10.916  0.2666 -0.4812  0.0315
    8SAPS    C1  949   6.135   4.647  10.846 -0.4947 -0.3299  0.2552
    8SAPS    HA  950   6.066   4.563  10.825 -1.3797  0.5040 -0.1789
    8SAPS    HB  951   6.071   4.721  10.898 -0.3366  0.3662 -0.5437
    8SAPS    C2  952   6.189   4.710  10.713 -0.2942  0.5544 -0.3820
    8SAPS    HS  953   6.099   4.752  10.662 -0.6616  0.1270 -0.0847
    8SAPS   O21  954   6.251   4.611  10.630 -0.2629  0.2061 -0.0567
    8SAPS   C21  955   6.164   4.531  10.571  0.1328  0.0096 -0.3335
    8SAPS   O22  956   6.046   4.535  10.557 -0.3736  0.1931  0.4098
    8SAPS   C22  957   6.248   4.449  10.473  0.4287 -0.1297 -0.7083
    8SAPS   H2R  958   6.337   4.422  10.534  0.7376 -0.3475 -1.2567
    8SAPS   H2S  959   6.194   4.354  10.452 -0.2803 -0.0153  0.5159
    8SAPS    C3  960   6.291   4.837  10.728  0.4506  0.4588  0.3628
    8SAPS    HX  961   6.381   4.806  10.786  0.6491  1.3335  0.5230
    8SAPS    HY  962   6.238   4.904  10.798 -0.5918 -0.1458  0.1659
    8SAPS   O31  963   6.324   4.902  10.606  0.5352  0.4185  0.3625
    8SAPS   C31  964   6.434   4.846  10.551 -0.0343 -0.3893 -0.6497
    8SAPS   O32  965   6.495   4.746  10.588 -0.6519 -0.2753 -0.2910
    8SAPS   C32  966   6.473   4.925  10.429 -0.5202 -0.5766 -0.0132
    8SAPS   H2X  967   6.402   5.010  10.421  0.1355 -0.1059 -0.9736
    8SAPS   H2Y  968   6.455   4.857  10.343 -0.2618 -1.0965  0.3444
    8SAPS   C23  969   6.279   4.514  10.339 -0.2265  0.3596  0.1432
    8SAPS   H3R  970   6.355   4.465  10.274 -0.6291 -0.4685  0.2916
    8SAPS   H3S  971   6.324   4.613  10.361  1.3430 -0.4266  0.5541
    8SAPS   C24  972   6.166   4.539  10.242  0.5967 -0.1611 -0.5921
    8SAPS   H4R  973   6.222   4.597  10.166  1.4194 -1.0588 -0.6918
    8SAPS   H4S  974   6.084   4.598  10.288 -0.3884 -1.8521 -0.0902
    8SAPS   C25  975   6.107   4.403  10.198 -0.3558  0.0774  0.5265
    8SAPS   H5R  976   6.031   4.356  10.263 -0.3469  1.5688  1.6405
    8SAPS   C26  977   6.142   4.333  10.082  0.0946  0.2490 -0.4941
    8SAPS   H6R  978   6.110   4.228  10.071 -1.9946  0.6443  1.2873
    8SAPS   C27  979   6.250   4.374   9.982  0.2173  0.8249  0.4917
    8SAPS   H7R  980   6.293   4.471  10.015 -1.3809  1.0206  2.0197
    8SAPS   H7S  981   6.208   4.397   9.882 -1.4418 -3.5897  0.0726
    8SAPS   C28  982   6.368   4.277   9.968 -0.1910 -0.5980  0.1072
    8SAPS   H8R  983   6.407   4.239  10.063 -1.0168 -1.6966  0.0225
    8SAPS   C29  984   6.428   4.235   9.856 -0.3422  0.2067  0.6257
    8SAPS   H9R  985   6.519   4.173   9.862 -0.9214 -0.6166  0.8233
    8SAPS  C210  986   6.401   4.274   9.711  0.1494 -1.2483  1.1028
    8SAPS  H10R  987   6.484   4.336   9.668 -0.7090  0.9056  2.4794
    8SAPS  H10S  988   6.309   4.334   9.727  1.2539  0.7053  0.4501
    8SAPS  C211  989   6.366   4.151   9.619 -0.6353  0.5282 -0.1558
    8SAPS  H11R  990   6.370   4.050   9.661 -1.9319  0.8806  0.8324
    8SAPS  C212  991   6.332   4.168   9.496 -1.0339 -0.2943  0.5441
    8SAPS  H12R  992   6.302   4.085   9.431 -0.1165  0.0037 -0.2630
    8SAPS  C213  993   6.335   4.306   9.424  0.0779 -0.0208 -1.1543
    8SAPS  H13R  994   6.435   4.353   9.441  0.0745 -1.1041  2.1892
    8SAPS  H13S  995   6.276   4.381   9.480 -0.3632  0.2226 -1.9388
    8SAPS  C214  996   6.287   4.320   9.277 -0.8574 -0.0243 -0.7154
    8SAPS  H14R  997   6.183   4.291   9.260 -0.8503  0.7126 -2.0842
    8SAPS  C215  998   6.363   4.372   9.178 -0.7252  0.4951  0.1863
    8SAPS  H15R  999   6.321   4.370   9.076  0.8695  0.2344 -0.4923
    8SAPS  C216 1000   6.501   4.423   9.192 -0.4014 -0.1967  0.5534
    8SAPS  H16R 1001   6.573   4.353   9.239  0.8071  1.7734  1.7326
    8SAPS  H16S 1002   6.515   4.519   9.245  0.2207 -1.2463  2.3232
    8SAPS  C217 1003   6.562   4.432   9.050 -0.6323  0.7874 -0.5520
    8SAPS  H17R 1004   6.547   4.335   8.997 -0.6636  0.2822  0.3848
    8SAPS  H17S 1005   6.670   4.456   9.061 -0.5146 -0.0894  0.2480
    8SAPS  C218 1006   6.502   4.556   8.978  0.4846 -0.5534  0.4575
    8SAPS  H18R 1007   6.517   4.653   9.030  1.9750  0.3468 -1.6091
    8SAPS  H18S 1008   6.391   4.550   8.978  0.4677 -0.2289  0.5459
    8SAPS  C219 1009   6.542   4.567   8.831 -0.5563  0.0938  0.0886
    8SAPS  H19R 1010   6.536   4.465   8.787  1.3607 -0.0041 -0.0211
    8SAPS  H19S 1011   6.648   4.598   8.822 -0.7649  1.6115  2.4525
    8SAPS  C220 1012   6.458   4.665   8.756  0.3203  0.1184 -0.7880
    8SAPS  H20R 1013   6.353   4.631   8.748  0.0883  0.2452  1.4931
    8SAPS  H20S 1014   6.495   4.674   8.651  3.4593  1.7908  0.4005
    8SAPS  H20T 1015   6.465   4.767   8.799 -1.0844 -0.2399  0.3276
    8SAPS   C33 1016   6.621   4.970  10.445  0.2555 -0.0392  0.1384
    8SAPS   H3X 1017   6.686   4.880  10.452 -1.3389 -1.1152  1.2897
    8SAPS   H3Y 1018   6.630   5.027  10.540  0.2509  1.2517 -0.6151
    8SAPS   C34 1019   6.651   5.071  10.327 -0.9347  0.2892 -0.1481
    8SAPS   H4X 1020   6.591   5.050  10.236 -0.8762  1.8356 -0.5571
    8SAPS   H4Y 1021   6.751   5.048  10.284 -0.8666 -1.0092  0.6857
    8SAPS   C35 1022   6.619   5.204  10.374  0.1208 -0.3502 -0.6031
    8SAPS   H5X 1023   6.666   5.215  10.474  0.9965  0.3236 -1.0785
    8SAPS   H5Y 1024   6.511   5.207  10.396  0.2848  1.5891  0.0649
    8SAPS   C36 1025   6.661   5.320  10.282  0.0291  0.7375  0.5944
    8SAPS   H6X 1026   6.769   5.311  10.259  0.0035 -0.3180  0.8469
    8SAPS   H6Y 1027   6.658   5.420  10.330  0.9799  2.0386 -1.9352
    8SAPS   C37 1028   6.585   5.316  10.151  0.1268  0.6326 -0.6830
    8SAPS   H7X 1029   6.479   5.309  10.181 -0.0634 -0.8444 -1.6668
    8SAPS   H7Y 1030   6.599   5.225  10.090 -0.6835 -0.0603  0.1607
    8SAPS   C38 1031   6.623   5.440  10.063  0.3940 -0.2406 -0.4599
    8SAPS   H8X 1032   6.727   5.435  10.022  1.0823 -2.6322  1.4374
    8SAPS   H8Y 1033   6.607   5.532  10.122  3.6447 -0.9854  1.7636
    8SAPS   C39 1034   6.532   5.442   9.936  0.4936  0.2575  0.5777
    8SAPS   H9X 1035   6.426   5.429   9.965 -0.2692 -0.8500 -2.4984
    8SAPS   H9Y 1036   6.557   5.355   9.871  0.5976 -0.3304  1.4020
    8SAPS  C310 1037   6.553   5.575   9.852  0.7222 -0.2947 -0.5042
    8SAPS  H10X 1038   6.656   5.613   9.863  0.1166  0.9371  1.1003
    8SAPS  H10Y 1039   6.488   5.652   9.899 -0.0644 -0.4987 -1.2541
    8SAPS  C311 1040   6.499   5.565   9.705  0.1152  0.0681 -1.0763
    8SAPS  H11X 1041   6.401   5.514   9.712  0.0047  0.2845 -1.0721
    8SAPS  H11Y 1042   6.559   5.500   9.637 -0.2428  1.3730 -2.6580
    8SAPS  C312 1043   6.485   5.702   9.642 -0.0929 -0.3588 -0.5460
    8SAPS  H12X 1044   6.397   5.743   9.697  0.8098  2.0607 -0.8417
    8SAPS  H12Y 1045   6.465   5.692   9.533 -0.8782  1.0881 -0.5452
    8SAPS  C313 1046   6.603   5.801   9.665 -0.0806  0.2784 -0.0465
    8SAPS  H13X 1047   6.686   5.761   9.602  0.6394  1.0965  0.3716
    8SAPS  H13Y 1048   6.646   5.786   9.767 -1.3457  2.8742  0.9142
    8SAPS  C314 1049   6.562   5.952   9.643 -0.3695  0.6783 -0.2848
    8SAPS  H14X 1050   6.486   5.976   9.720  1.1694 -0.5580  1.6842
    8SAPS  H14Y 1051   6.514   5.957   9.543 -3.0188 -1.9344  0.7829
    8SAPS  C315 1052   6.673   6.057   9.667 -0.6154  0.6455 -0.2439
    8SAPS  H15X 1053   6.735   6.030   9.755 -1.0264 -0.6278 -0.3420
    8SAPS  H15Y 1054   6.631   6.157   9.690 -1.0596 -0.0052  1.9096
    8SAPS  C316 1055   6.772   6.075   9.547 -0.2595 -0.6043  0.3162
    8SAPS  H16X 1056   6.718   6.129   9.466 -0.2217 -0.2505  0.5240
    8SAPS  H16Y 1057   6.791   5.973   9.508  1.6393 -0.3129  0.4507
    8SAPS  C317 1058   6.896   6.142   9.581 -0.1898 -1.2068  0.2557
    8SAPS  H17X 1059   6.967   6.121   9.498  0.1094  0.1802  0.1473
    8SAPS  H17Y 1060   6.942   6.106   9.675  0.2811  1.4690  1.1155
    8SAPS  C318 1061   6.882   6.294   9.589 -0.5534 -0.5970 -0.1071
    8SAPS  H18X 1062   6.785   6.320   9.635  0.0520 -0.8481  1.3398
    8SAPS  H18Y 1063   6.881   6.337   9.486 -0.1352 -2.4670 -0.9034
    8SAPS  H18Z 1064   6.961   6.339   9.654 -2.4199 -0.6622  2.2438
    9SAPS     N 1065   3.085   1.130   6.287  0.4128 -0.0045  0.4259
    9SAPS   HN1 1066   3.060   1.217   6.339  2.1147  1.0591 -0.4706
    9SAPS   HN2 1067   3.048   1.134   6.190 -2.2974 -0.3692  1.4001
    9SAPS   HN3 1068   3.047   1.046   6.335 -0.3648 -0.8963 -1.7059
    9SAPS   C12 1069   3.235   1.128   6.279  0.2972 -0.0020  0.2087
    9SAPS  H12A 1070   3.252   1.032   6.232 -1.3637 -1.1827  1.9639
    9SAPS   C13 1071   3.297   1.237   6.194 -0.5006  0.2276  0.0279
    9SAPS  O13A 1072   3.222   1.312   6.127 -0.0335 -0.3589  0.2023
    9SAPS  O13B 1073   3.412   1.215   6.153 -0.5302  0.0205  0.6757
    9SAPS   C11 1074   3.294   1.121   6.424  0.2470  0.3995 -0.3895
    9SAPS  H11A 1075   3.396   1.078   6.417  0.4576  0.6560  1.0095
    9SAPS  H11B 1076   3.238   1.044   6.481  2.5669 -2.1425 -1.3993
    9SAPS     P 1077   3.196   1.320   6.566 -0.4245  0.4511 -0.0643
    9SAPS   O13 1078   3.251   1.442   6.617 -0.5982 -0.2984 -0.3541
    9SAPS   O14 1079   3.082   1.332   6.476  0.4979  0.6522 -0.4671
    9SAPS   O12 1080   3.314   1.245   6.492  0.1670 -0.2698  0.0718
    9SAPS   O11 1081   3.167   1.223   6.689  0.3381 -0.0745  0.4628
    9SAPS    C1 1082   3.262   1.139   6.743 -0.6004  0.1573  0.4898
    9SAPS    HA 1083   3.219   1.037   6.734 -1.2706  0.5608 -1.0171
    9SAPS    HB 1084   3.354   1.125   6.683 -0.1708 -1.8857  1.5803
    9SAPS    C2 1085   3.279   1.178   6.895 -0.1600 -0.5176  0.2864
    9SAPS    HS 1086   3.304   1.287   6.896  0.4326 -0.6497  1.2898
    9SAPS   O21 1087   3.385   1.089   6.954  0.2807  0.0688 -0.6201
    9SAPS   C21 1088   3.509   1.125   6.909 -0.2183  0.1315 -0.1926
    9SAPS   O22 1089   3.529   1.214   6.829 -0.0088 -0.5442 -0.4034
    9SAPS   C22 1090   3.609   1.040   6.983 -0.4621  0.2554 -0.6782
    9SAPS   H2R 1091   3.579   1.034   7.090  0.0622 -0.4655 -0.5649
    9SAPS   H2S 1092   3.614   0.937   6.941  1.2942  0.6751 -1.5377
    9SAPS    C3 1093   3.146   1.174   6.977 -0.1266 -0.0944 -0.1052
    9SAPS    HX 1094   3.115   1.067   6.985 -1.2418  0.3222  1.2527
    9SAPS    HY 1095   3.063   1.214   6.916 -0.2033 -1.1253 -0.6956
    9SAPS   O31 1096   3.163   1.235   7.108 -0.0588 -0.2574  0.0391
    9SAPS   C31 1097   3.174   1.365   7.112  0.3026 -0.0248  0.8620
    9SAPS   O32 1098   3.183   1.441   7.013  0.5525 -0.2459 -0.0866
    9SAPS   C32 1099   3.194   1.409   7.262 -0.4343 -0.3695  0.7127
    9SAPS   H2X 1100   3.301   1.401   7.294  0.1034 -0.2820 -1.0343
    9SAPS   H2Y 1101   3.130   1.349   7.330  0.9715 -2.9742 -0.1919
    9SAPS   C23 1102   3.755   1.083   6.948 -0.5499  1.2377  0.2936
    9SAPS   H3R 1103   3.776   1.192   6.958  1.0246  0.9570  0.1721
    9SAPS   H3S 1104   3.768   1.055   6.842  0.2676 -0.5747  0.8535
    9SAPS   C24 1105   3.854   1.010   7.033  0.1549 -0.3397  0.1060
    9SAPS   H4R 1106   3.842   1.053   7.135  1.4704  0.0851  0.0884
    9SAPS   H4S 1107   3.958   1.032   7.001  0.9233 -2.8455  0.7111
    9SAPS   C25 1108   3.853   0.861   7.042  0.0421  0.8669  0.2177
    9SAPS   H5R 1109   3.883   0.811   6.949  1.9858 -0.0431  1.3063
    9SAPS   C26 1110   3.826   0.790   7.158 -0.2686 -0.2733  0.8505
    9SAPS   H6R 1111   3.831   0.681   7.144  0.5481 -0.1219 -0.0972
    9SAPS   C27 1112   3.805   0.838   7.294  0.6989  0.1088  0.3304
    9SAPS   H7R 1113   3.759   0.939   7.291 -1.3255 -0.8681 -3.4976
    9SAPS   H7S 1114   3.901   0.849   7.349  0.1476 -0.4584  1.4235
    9SAPS   C28 1115   3.735   0.735   7.378  0.2679 -0.2698 -0.1359
    9SAPS   H8R 1116   3.728   0.636   7.331  3.6751 -1.3675  1.4807
    9SAPS   C29 1117   3.676   0.737   7.505  0.2121  0.3746  0.3888
    9SAPS   H9R 1118   3.634   0.642   7.541  0.3092  0.8836  1.8627
    9SAPS  C210 1119   3.672   0.854   7.598  0.2901 -0.1391 -0.7405
    9SAPS  H10R 1120   3.612   0.931   7.545 -2.1199 -0.9789  0.6789
    9SAPS  H10S 1121   3.776   0.886   7.617 -0.1490  1.6640 -1.2958
    9SAPS  C211 1122   3.608   0.816   7.730 -0.7142  0.3614 -0.5493
    9SAPS  H11R 1123   3.552   0.722   7.720 -0.1883  0.0414 -0.4716
    9SAPS  C212 1124   3.606   0.884   7.847 -0.2674  0.5602 -0.0819
    9SAPS  H12R 1125   3.565   0.821   7.927  0.6363  0.4972  0.3343
    9SAPS  C213 1126   3.661   1.017   7.884  1.1260  0.3467  0.1623
    9SAPS  H13R 1127   3.581   1.090   7.907  2.0691  0.8903  1.8609
    9SAPS  H13S 1128   3.717   1.070   7.805  2.4163  0.5760  1.2006
    9SAPS  C214 1129   3.744   1.027   8.009 -0.1448 -0.1553 -0.3423
    9SAPS  H14R 1130   3.850   1.053   7.995  0.7480 -1.9046  2.6745
    9SAPS  C215 1131   3.693   1.027   8.135  0.5241 -0.0586 -0.1885
    9SAPS  H15R 1132   3.765   1.018   8.218  1.1839  0.0313 -0.7519
    9SAPS  C216 1133   3.547   1.004   8.170  0.0325  0.4458 -0.0468
    9SAPS  H16R 1134   3.483   1.037   8.085  0.8138  0.4349 -0.6455
    9SAPS  H16S 1135   3.525   1.067   8.259 -0.0329  2.1747 -1.2573
    9SAPS  C217 1136   3.526   0.849   8.211  0.0916 -0.4240 -0.3337
    9SAPS  H17R 1137   3.590   0.780   8.151 -1.5030 -2.1852 -0.0709
    9SAPS  H17S 1138   3.421   0.818   8.190  0.2082 -0.2347 -1.2138
    9SAPS  C218 1139   3.554   0.830   8.362 -0.4507  0.3218 -0.7887
    9SAPS  H18R 1140   3.468   0.863   8.424 -0.4211  0.0896 -0.6218
    9SAPS  H18S 1141   3.635   0.899   8.394 -0.1903 -1.0394  1.5956
    9SAPS  C219 1142   3.602   0.685   8.396  0.0969 -0.3411  0.8873
    9SAPS  H19R 1143   3.699   0.671   8.343 -0.6576  2.4278 -1.3681
    9SAPS  H19S 1144   3.519   0.625   8.352  1.2289 -0.7808 -0.7040
    9SAPS  C220 1145   3.606   0.657   8.544 -0.3924 -0.5679  0.9043
    9SAPS  H20R 1146   3.680   0.725   8.593  3.0926 -2.9602 -0.7709
    9SAPS  H20S 1147   3.642   0.554   8.566  1.6835 -0.2492 -0.7566
    9SAPS  H20T 1148   3.503   0.653   8.584 -1.1421  0.1665 -0.8902
    9SAPS   C33 1149   3.161   1.565   7.295 -0.7154  0.2007  0.6041
    9SAPS   H3X 1150   3.212   1.620   7.213  0.9720 -2.0481  0.0863
    9SAPS   H3Y 1151   3.216   1.599   7.386  0.7258 -0.6906  0.0774
    9SAPS   C34 1152   3.006   1.599   7.297  0.1725  0.1044  0.0056
    9SAPS   H4X 1153   2.964   1.572   7.198  0.4347 -0.7628  0.1270
    9SAPS   H4Y 1154   2.992   1.709   7.306  2.1389  0.2720  1.4284
    9SAPS   C35 1155   2.926   1.525   7.403 -0.3373  0.3973  0.1436
    9SAPS   H5X 1156   2.960   1.545   7.507 -3.1140  2.2314  0.7535
    9SAPS   H5Y 1157   2.941   1.417   7.382  0.2282  0.1119  1.9450
    9SAPS   C36 1158   2.778   1.553   7.405  0.4191  0.2777  0.0427
    9SAPS   H6X 1159   2.740   1.528   7.303 -1.3053  2.2626  0.1659
    9SAPS   H6Y 1160   2.764   1.663   7.413 -1.1244 -0.0799  2.9081
    9SAPS   C37 1161   2.710   1.472   7.524 -0.5957  0.3488 -0.4045
    9SAPS   H7X 1162   2.682   1.370   7.488 -0.6488 -0.3938  1.6734
    9SAPS   H7Y 1163   2.615   1.526   7.546 -1.0352  0.8251 -3.2332
    9SAPS   C38 1164   2.786   1.449   7.656 -0.6033 -0.0711  0.0823
    9SAPS   H8X 1165   2.823   1.544   7.699 -1.3795  1.0955 -1.7454
    9SAPS   H8Y 1166   2.876   1.387   7.637  1.0816  2.0989  0.8218
    9SAPS   C39 1167   2.697   1.398   7.767  0.2853 -0.1369 -0.5615
    9SAPS   H9X 1168   2.662   1.295   7.742 -1.1417  0.5967 -1.6416
    9SAPS   H9Y 1169   2.604   1.459   7.772 -1.6404 -3.0917  1.9459
    9SAPS  C310 1170   2.773   1.376   7.902 -0.1408  0.5051  0.5110
    9SAPS  H10X 1171   2.797   1.477   7.942 -2.5435  0.2224  2.8000
    9SAPS  H10Y 1172   2.867   1.322   7.878  0.3488  1.5252  0.0947
    9SAPS  C311 1173   2.689   1.309   8.004 -0.9063  1.0388  0.1364
    9SAPS  H11X 1174   2.634   1.218   7.972  1.6954 -0.4370 -0.2684
    9SAPS  H11Y 1175   2.610   1.375   8.044 -2.1692 -0.5070  0.2430
    9SAPS  C312 1176   2.778   1.273   8.129  0.3439  0.1081 -0.1089
    9SAPS  H12X 1177   2.725   1.223   8.213  0.3675 -1.1887 -0.8550
    9SAPS  H12Y 1178   2.811   1.366   8.180  1.9850 -0.7924  0.5028
    9SAPS  C313 1179   2.881   1.170   8.112 -0.3641 -0.6941  0.2076
    9SAPS  H13X 1180   2.964   1.212   8.052  0.4277 -0.7411  1.2466
    9SAPS  H13Y 1181   2.843   1.091   8.044  1.3069 -2.4222  1.2356
    9SAPS  C314 1182   2.927   1.096   8.232  0.3346 -0.3340 -0.3074
    9SAPS  H14X 1183   2.842   1.041   8.277 -1.5269  0.8641 -2.2756
    9SAPS  H14Y 1184   2.989   1.161   8.298  0.8156 -0.3415 -0.7468
    9SAPS  C315 1185   3.021   0.984   8.188  0.4689 -0.7884  0.5067
    9SAPS  H15X 1186   3.117   1.027   8.152 -0.6920  0.9648 -0.5255
    9SAPS  H15Y 1187   2.978   0.930   8.101 -1.6664 -3.1164  2.9261
    9SAPS  C316 1188   3.038   0.875   8.299  0.3333  0.9005 -0.0424
    9SAPS  H16X 1189   2.941   0.825   8.319  0.6211  0.4505  0.2256
    9SAPS  H16Y 1190   3.075   0.913   8.396 -0.0624  0.4363  0.2894
    9SAPS  C317 1191   3.130   0.757   8.257 -0.0503  0.3429 -0.5846
    9SAPS  H17X 1192   3.229   0.799   8.228  0.6754  0.6640  2.2612
    9SAPS  H17Y 1193   3.092   0.696   8.171 -2.1760  1.9965 -0.8720
    9SAPS  C318 1194   3.160   0.668   8.374  0.5828  0.6696  0.1036
    9SAPS  H18X 1195   3.077   0.656   8.447  0.0067 -1.9972 -0.9044
    9SAPS  H18Y 1196   3.244   0.714   8.430 -0.4442  3.1037 -0.3410
    9SAPS  H18Z 1197   3.207   0.571   8.345  2.3312  0.8421  2.2527
   10SAPS     N 1198   3.540   0.608   6.218 -0.3175 -0.1995 -0.0870
   10SAPS   HN1 1199   3.636   0.605   6.259 -1.6510  0.0839  3.2307
   10SAPS   HN2 1200   3.473   0.595   6.297 -3.1177  1.7358 -2.0341
   10SAPS   HN3 1201   3.533   0.531   6.148  1.5578 -1.2288  0.8230
   10SAPS   C12 1202   3.508   0.735   6.153 -0.3692 -0.7928  0.5523
   10SAPS  H12A 1203   3.581   0.749   6.076 -0.2297 -0.1523  0.8005
   10SAPS   C13 1204   3.375   0.717   6.078 -0.0142 -0.3681  0.0627
   10SAPS  O13A 1205   3.305   0.615   6.083  0.5781  0.1959 -0.0523
   10SAPS  O13B 1206   3.339   0.811   5.991  0.1009 -0.2304 -0.1680
   10SAPS   C11 1207   3.487   0.844   6.263  0.3605  0.5521  0.1822
   10SAPS  H11A 1208   3.480   0.940   6.207  0.2322  0.2137 -0.3820
   10SAPS  H11B 1209   3.579   0.850   6.326 -1.8142  3.3288  3.2430
   10SAPS     P 1210   3.308   0.743   6.433  0.3566  0.1233  0.4537
   10SAPS   O13 1211   3.157   0.740   6.419  0.2161 -0.6777  0.3313
   10SAPS   O14 1212   3.377   0.608   6.430  0.1891 -0.4737 -0.0500
   10SAPS   O12 1213   3.366   0.835   6.330  0.1483 -0.3042 -0.5650
   10SAPS   O11 1214   3.337   0.804   6.572  0.4442 -0.1405 -0.0959
   10SAPS    C1 1215   3.469   0.837   6.616  0.4237 -0.6877 -0.0884
   10SAPS    HA 1216   3.544   0.838   6.534 -0.0151 -3.6519 -0.5955
   10SAPS    HB 1217   3.454   0.932   6.671 -1.2633 -0.9026 -0.1411
   10SAPS    C2 1218   3.528   0.729   6.710  0.5119 -0.1762  0.4515
   10SAPS    HS 1219   3.508   0.634   6.655  0.4496 -0.6179  1.2334
   10SAPS   O21 1220   3.468   0.745   6.836 -1.1446 -0.7556 -0.3871
   10SAPS   C21 1221   3.367   0.673   6.855 -0.1644 -0.1565 -0.4711
   10SAPS   O22 1222   3.325   0.577   6.790  0.4208 -0.2350 -0.1943
   10SAPS   C22 1223   3.304   0.735   6.985 -0.0057 -0.1871  0.0011
   10SAPS   H2R 1224   3.271   0.838   6.964 -0.6544  0.1707  2.6013
   10SAPS   H2S 1225   3.208   0.681   7.001 -0.9317  1.4294 -0.0735
   10SAPS    C3 1226   3.678   0.743   6.729  0.0055 -0.6124  0.5206
   10SAPS    HX 1227   3.706   0.835   6.786  0.3143 -0.0865 -0.4635
   10SAPS    HY 1228   3.729   0.755   6.632  0.0562  1.5347  0.7890
   10SAPS   O31 1229   3.739   0.639   6.802  0.3042  0.7384  0.5595
   10SAPS   C31 1230   3.760   0.527   6.730 -0.3949  0.4301  0.2148
   10SAPS   O32 1231   3.751   0.520   6.610  0.2093  0.6370 -0.0446
   10SAPS   C32 1232   3.796   0.411   6.819  0.1486 -0.1123 -0.0410
   10SAPS   H2X 1233   3.896   0.375   6.790  0.1288 -1.7322  1.7577
   10SAPS   H2Y 1234   3.717   0.333   6.823 -0.3294  0.4144  1.1840
   10SAPS   C23 1235   3.400   0.722   7.103  0.0467  0.6645  0.2030
   10SAPS   H3R 1236   3.474   0.805   7.095 -1.6963  2.2195  0.0778
   10SAPS   H3S 1237   3.454   0.625   7.102  1.8231  1.6315  0.0776
   10SAPS   C24 1238   3.344   0.752   7.249  0.1352  0.0249 -0.6879
   10SAPS   H4R 1239   3.279   0.842   7.245 -1.0506 -0.7577  0.7038
   10SAPS   H4S 1240   3.433   0.757   7.315 -0.6552 -0.4633  0.4324
   10SAPS   C25 1241   3.246   0.651   7.299  0.4519  0.3679 -0.5154
   10SAPS   H5R 1242   3.221   0.578   7.221 -0.6935 -0.6922  0.8335
   10SAPS   C26 1243   3.211   0.634   7.428  0.3668  0.2231  0.9709
   10SAPS   H6R 1244   3.158   0.541   7.453 -0.3499 -0.3396 -2.4379
   10SAPS   C27 1245   3.285   0.711   7.544 -0.1262 -0.4857  0.6679
   10SAPS   H7R 1246   3.312   0.815   7.517  0.4206 -0.3249  1.8289
   10SAPS   H7S 1247   3.382   0.660   7.562  1.5468  2.1936 -0.4143
   10SAPS   C28 1248   3.203   0.730   7.668 -0.2319  0.8908  0.4523
   10SAPS   H8R 1249   3.122   0.804   7.660 -0.2442  0.7910 -0.4248
   10SAPS   C29 1250   3.213   0.674   7.789 -0.7191  0.3194 -0.5105
   10SAPS   H9R 1251   3.125   0.691   7.853 -2.0459 -0.2918 -2.1133
   10SAPS  C210 1252   3.314   0.580   7.837 -0.0976  0.0453  0.3446
   10SAPS  H10R 1253   3.412   0.632   7.833  0.2912 -0.4577  2.4701
   10SAPS  H10S 1254   3.324   0.495   7.766  2.0968  0.2023  0.4290
   10SAPS  C211 1255   3.288   0.530   7.975 -0.6598 -0.4873  0.3347
   10SAPS  H11R 1256   3.313   0.599   8.057  0.2915 -0.3023 -0.1088
   10SAPS  C212 1257   3.221   0.416   8.010 -0.1076 -0.1480  0.1950
   10SAPS  H12R 1258   3.226   0.387   8.116 -0.9428  0.4441  0.3974
   10SAPS  C213 1259   3.163   0.312   7.918 -0.4018 -0.3526 -0.7662
   10SAPS  H13R 1260   3.110   0.365   7.837 -1.2656 -1.4639 -0.9519
   10SAPS  H13S 1261   3.089   0.258   7.982  0.0346 -0.1873 -0.1166
   10SAPS  C214 1262   3.261   0.209   7.867 -0.0896 -0.2295  0.3667
   10SAPS  H14R 1263   3.368   0.228   7.885 -0.5712  1.9188  1.0724
   10SAPS  C215 1264   3.229   0.097   7.805 -0.0082 -0.5323 -0.1863
   10SAPS  H15R 1265   3.312   0.029   7.778 -0.1141 -1.6410  2.1376
   10SAPS  C216 1266   3.084   0.061   7.778  0.3897  0.2640  0.5624
   10SAPS  H16R 1267   3.006   0.133   7.812 -0.1020 -0.5047  1.0970
   10SAPS  H16S 1268   3.055  -0.027   7.839 -0.8904 -0.0984 -0.5505
   10SAPS  C217 1269   3.071   0.033   7.622 -0.4446  0.8333  0.2166
   10SAPS  H17R 1270   2.964   0.002   7.616  0.5310 -3.0945  1.7591
   10SAPS  H17S 1271   3.141  -0.048   7.594 -2.9265 -1.4432  0.3673
   10SAPS  C218 1272   3.090   0.160   7.524 -0.7885 -0.3568  0.1373
   10SAPS  H18R 1273   3.193   0.183   7.490  0.1680 -0.9500  2.5123
   10SAPS  H18S 1274   3.046   0.247   7.578 -1.0604 -0.1646 -0.3895
   10SAPS  C219 1275   3.010   0.132   7.395 -0.0347 -0.3995  0.3152
   10SAPS  H19R 1276   2.912   0.089   7.425 -0.6606  1.3336  0.8048
   10SAPS  H19S 1277   3.071   0.062   7.334  0.2088  0.0085  0.0910
   10SAPS  C220 1278   2.977   0.249   7.306 -0.0759 -0.0456  0.2107
   10SAPS  H20R 1279   2.894   0.308   7.350  0.2674  0.7433 -0.1872
   10SAPS  H20S 1280   2.948   0.218   7.203  0.9661  0.8167 -0.3465
   10SAPS  H20T 1281   3.069   0.310   7.295 -0.2924  0.1297 -0.6683
   10SAPS   C33 1282   3.820   0.459   6.966 -0.2543  0.6499 -0.1880
   10SAPS   H3X 1283   3.722   0.498   7.003 -1.8498 -2.3716 -1.0097
   10SAPS   H3Y 1284   3.902   0.533   6.957  1.6114 -1.5816 -2.1632
   10SAPS   C34 1285   3.876   0.349   7.056  0.3584  0.3574  0.0239
   10SAPS   H4X 1286   3.956   0.286   7.013 -1.2148 -1.0953 -0.7980
   10SAPS   H4Y 1287   3.799   0.269   7.064 -1.9169  2.4115 -0.5573
   10SAPS   C35 1288   3.893   0.383   7.204  0.3107  0.6477 -0.4819
   10SAPS   H5X 1289   3.879   0.289   7.261 -0.7178 -0.4854 -2.5314
   10SAPS   H5Y 1290   3.811   0.447   7.243 -0.0459  0.4563 -0.9096
   10SAPS   C36 1291   4.025   0.443   7.247 -0.2456 -0.2249  0.0976
   10SAPS   H6X 1292   4.023   0.549   7.212  0.0217  0.0194  0.8148
   10SAPS   H6Y 1293   4.101   0.390   7.187 -2.0467 -2.3693 -0.3616
   10SAPS   C37 1294   4.045   0.431   7.391 -0.4851  0.0802  0.0738
   10SAPS   H7X 1295   4.150   0.442   7.426 -0.5716 -2.0880  1.0631
   10SAPS   H7Y 1296   4.009   0.330   7.422 -0.0380  0.7841  3.0722
   10SAPS   C38 1297   3.954   0.519   7.485 -0.4600  0.3024  0.2741
   10SAPS   H8X 1298   3.848   0.493   7.468 -0.4249 -0.2654  0.9149
   10SAPS   H8Y 1299   3.977   0.621   7.447  3.2698 -0.8289 -0.7222
   10SAPS   C39 1300   3.996   0.517   7.633 -0.4317  0.0908  0.3050
   10SAPS   H9X 1301   4.107   0.517   7.626 -0.5748 -1.4171 -2.6396
   10SAPS   H9Y 1302   3.960   0.428   7.688 -0.1683 -1.6555 -2.2359
   10SAPS  C310 1303   3.930   0.631   7.708  0.5108  0.3167  0.3372
   10SAPS  H10X 1304   3.833   0.588   7.740 -0.4907  2.3175  0.0719
   10SAPS  H10Y 1305   3.912   0.724   7.649  0.7162  1.1053  1.4903
   10SAPS  C311 1306   4.019   0.654   7.826  0.3209 -0.1502  0.1299
   10SAPS  H11X 1307   4.108   0.708   7.790 -0.3679  1.7698  1.2343
   10SAPS  H11Y 1308   4.054   0.559   7.873  1.6067  1.1031  1.7770
   10SAPS  C312 1309   3.959   0.751   7.934 -0.3453  0.2232  0.2604
   10SAPS  H12X 1310   3.859   0.713   7.964 -1.2889  2.0760 -0.4319
   10SAPS  H12Y 1311   3.962   0.845   7.874  0.8457 -1.0754 -1.7585
   10SAPS  C313 1312   4.049   0.765   8.059 -0.4058 -0.7682 -0.3518
   10SAPS  H13X 1313   4.029   0.861   8.110  0.1783 -0.9573  0.2504
   10SAPS  H13Y 1314   4.152   0.754   8.019  0.3252 -0.3376  1.3608
   10SAPS  C314 1315   4.033   0.641   8.154 -0.2211  0.4347 -0.4304
   10SAPS  H14X 1316   4.060   0.548   8.100  2.3546  1.4676 -0.9664
   10SAPS  H14Y 1317   3.925   0.637   8.181  0.1227  0.5818  1.0412
   10SAPS  C315 1318   4.106   0.664   8.283 -0.2408  0.4453  0.1770
   10SAPS  H15X 1319   4.069   0.746   8.347  1.3227  0.1399  1.4841
   10SAPS  H15Y 1320   4.209   0.695   8.258  0.5914 -1.9754  0.4267
   10SAPS  C316 1321   4.129   0.529   8.359  0.0851 -1.2392 -0.5087
   10SAPS  H16X 1322   4.187   0.550   8.452  2.9451 -1.4517 -2.1957
   10SAPS  H16Y 1323   4.194   0.463   8.298  0.8393 -2.4926  1.6044
   10SAPS  C317 1324   4.008   0.460   8.409  0.0096 -0.4068  0.2126
   10SAPS  H17X 1325   4.027   0.353   8.432  1.0713 -0.6147 -1.4972
   10SAPS  H17Y 1326   3.932   0.464   8.328 -0.3358  1.0431  0.5838
   10SAPS  C318 1327   3.954   0.525   8.532 -0.3186  0.4505  0.8236
   10SAPS  H18X 1328   4.027   0.520   8.615  0.3903  1.8754  0.2884
   10SAPS  H18Y 1329   3.862   0.473   8.568 -1.6613  1.2311 -1.3427
   10SAPS  H18Z 1330   3.938   0.633   8.515 -1.4612  0.0083 -1.1154
   11SAPS     N 1331   5.353   3.942   5.656  0.3374  0.0022  0.0789
   11SAPS   HN1 1332   5.384   3.843   5.670 -2.3024 -0.9699 -0.8201
   11SAPS   HN2 1333   5.412   3.985   5.583 -1.1555 -1.5009 -2.0554
   11SAPS   HN3 1334   5.368   4.000   5.741 -0.5190 -0.3334  0.4682
   11SAPS   C12 1335   5.206   3.929   5.630  1.2661 -0.2877  0.0886
   11SAPS  H12A 1336   5.167   4.029   5.613 -0.8546 -0.9922  0.6457
   11SAPS   C13 1337   5.165   3.861   5.497 -0.2405 -0.8045 -0.0992
   11SAPS  O13A 1338   5.250   3.837   5.409 -0.8543  0.4569  0.0230
   11SAPS  O13B 1339   5.043   3.853   5.466 -0.3233  0.4769  0.0940
   11SAPS   C11 1340   5.136   3.866   5.761  0.0160 -0.5970  0.1340
   11SAPS  H11A 1341   5.142   3.755   5.757  1.8266 -0.5039  0.1302
   11SAPS  H11B 1342   5.026   3.873   5.745  0.1390  1.0860 -0.1108
   11SAPS     P 1343   5.262   3.846   5.994  0.0683 -0.2933 -0.1291
   11SAPS   O13 1344   5.279   3.699   5.972  0.6005 -0.0087  0.0089
   11SAPS   O14 1345   5.393   3.917   5.999  0.4777 -0.7168 -0.3210
   11SAPS   O12 1346   5.177   3.924   5.888 -0.1765 -0.4146  0.3984
   11SAPS   O11 1347   5.187   3.872   6.125  0.6699  0.0158 -0.7337
   11SAPS    C1 1348   5.263   3.899   6.251 -0.0988 -0.0019  0.2000
   11SAPS    HA 1349   5.320   3.994   6.243  0.6632 -0.5290 -0.9103
   11SAPS    HB 1350   5.183   3.924   6.323  0.6507 -0.3050  1.1501
   11SAPS    C2 1351   5.354   3.781   6.301  0.5567  0.0914  0.4645
   11SAPS    HS 1352   5.444   3.766   6.237 -0.1752 -1.5403 -0.1891
   11SAPS   O21 1353   5.275   3.666   6.311 -0.6640 -0.4287 -0.4116
   11SAPS   C21 1354   5.335   3.557   6.336 -1.1042 -0.2761  0.5999
   11SAPS   O22 1355   5.455   3.537   6.322 -0.2611  1.0429 -0.0009
   11SAPS   C22 1356   5.235   3.464   6.399 -0.1904 -0.7313  0.2960
   11SAPS   H2R 1357   5.156   3.430   6.328  1.2275 -2.6870 -0.3735
   11SAPS   H2S 1358   5.289   3.372   6.427 -0.1499 -1.3384 -1.6944
   11SAPS    C3 1359   5.418   3.820   6.439  0.4584 -0.5949  0.4263
   11SAPS    HX 1360   5.482   3.905   6.409  2.1187 -1.8166  0.4750
   11SAPS    HY 1361   5.491   3.744   6.475  1.0819  0.5422  1.6177
   11SAPS   O31 1362   5.304   3.850   6.530 -0.4736 -0.1831  0.2683
   11SAPS   C31 1363   5.350   3.917   6.633 -0.3143 -0.4361 -0.4125
   11SAPS   O32 1364   5.462   3.967   6.637  0.4432  0.0167  0.4188
   11SAPS   C32 1365   5.241   3.940   6.739 -0.3591  0.6112  0.3656
   11SAPS   H2X 1366   5.192   3.845   6.768  0.2586 -0.4350 -1.9108
   11SAPS   H2Y 1367   5.168   4.013   6.699  1.1819  2.3928  0.7016
   11SAPS   C23 1368   5.161   3.521   6.529 -0.9704  0.1649  0.0554
   11SAPS   H3R 1369   5.071   3.457   6.542 -0.4890 -0.3849  0.7082
   11SAPS   H3S 1370   5.130   3.626   6.510  0.1764  0.5108  0.0706
   11SAPS   C24 1371   5.250   3.515   6.657 -0.1772  0.5039 -0.3532
   11SAPS   H4R 1372   5.327   3.593   6.640  1.3090 -0.3526  2.1806
   11SAPS   H4S 1373   5.299   3.418   6.678  1.0595  1.7348  2.7934
   11SAPS   C25 1374   5.183   3.560   6.785 -0.4015  0.1396  0.8828
   11SAPS   H5R 1375   5.075   3.541   6.789 -0.3396 -0.2807  0.5541
   11SAPS   C26 1376   5.257   3.589   6.890 -0.7113 -0.4442  0.6177
   11SAPS   H6R 1377   5.212   3.599   6.990  1.0145 -1.0217  1.4714
   11SAPS   C27 1378   5.411   3.588   6.897  0.5249 -0.2123  0.2637
   11SAPS   H7R 1379   5.444   3.681   6.949 -2.6382  0.6668  0.8049
   11SAPS   H7S 1380   5.457   3.612   6.798 -0.8883 -0.5302 -0.4904
   11SAPS   C28 1381   5.480   3.463   6.960 -0.3743  0.2824  0.4755
   11SAPS   H8R 1382   5.512   3.392   6.882  0.8868  1.0667  0.2590
   11SAPS   C29 1383   5.502   3.429   7.092  0.3688  0.6248  0.7571
   11SAPS   H9R 1384   5.555   3.333   7.100  0.8378  0.4378 -3.4059
   11SAPS  C210 1385   5.465   3.506   7.214 -0.5864 -0.4065  0.9732
   11SAPS  H10R 1386   5.442   3.611   7.187  0.9910 -0.2283  0.2641
   11SAPS  H10S 1387   5.544   3.518   7.292  0.1000  1.3353  0.0273
   11SAPS  C211 1388   5.352   3.431   7.274  0.0784  0.3888  0.0783
   11SAPS  H11R 1389   5.283   3.394   7.196  0.3443 -0.8700  0.4227
   11SAPS  C212 1390   5.334   3.413   7.408 -0.2692  0.7753  0.0277
   11SAPS  H12R 1391   5.251   3.348   7.441 -0.1791  0.4882 -0.3203
   11SAPS  C213 1392   5.411   3.464   7.527  0.3020  0.5464 -0.3950
   11SAPS  H13R 1393   5.496   3.527   7.492  2.4368 -2.2477 -0.3836
   11SAPS  H13S 1394   5.463   3.378   7.574 -0.1078  1.3299  1.5137
   11SAPS  C214 1395   5.310   3.545   7.614  0.1911 -0.1134  0.0132
   11SAPS  H14R 1396   5.246   3.620   7.566 -1.0471 -0.5790  0.9059
   11SAPS  C215 1397   5.297   3.555   7.745  0.1015 -0.5954 -0.8530
   11SAPS  H15R 1398   5.208   3.605   7.787  0.2544 -0.3494 -0.8169
   11SAPS  C216 1399   5.386   3.479   7.846 -0.5612  0.0289  0.4498
   11SAPS  H16R 1400   5.488   3.523   7.852  0.0708 -1.3170 -0.2342
   11SAPS  H16S 1401   5.388   3.370   7.822  4.8429 -0.0730  0.7164
   11SAPS  C217 1402   5.323   3.481   7.997 -0.0427 -0.5337 -0.4084
   11SAPS  H17R 1403   5.233   3.416   8.000  0.6076 -1.3958  1.2383
   11SAPS  H17S 1404   5.295   3.586   8.020  0.5915 -0.2114 -1.0947
   11SAPS  C218 1405   5.423   3.449   8.102  0.9569  0.0278 -0.0647
   11SAPS  H18R 1406   5.497   3.532   8.109  0.8259  0.1836 -0.5031
   11SAPS  H18S 1407   5.471   3.353   8.075  1.2408 -0.1634  1.0799
   11SAPS  C219 1408   5.372   3.417   8.242  0.1438  0.0429 -0.8065
   11SAPS  H19R 1409   5.457   3.361   8.288 -1.5410 -2.0304 -0.1558
   11SAPS  H19S 1410   5.273   3.368   8.237 -0.5323  1.2248  0.6620
   11SAPS  C220 1411   5.356   3.544   8.329 -0.5106 -0.0936  0.4952
   11SAPS  H20R 1412   5.310   3.523   8.428 -1.3092  0.6604  0.2936
   11SAPS  H20S 1413   5.287   3.614   8.276 -0.1834  0.8790  1.3290
   11SAPS  H20T 1414   5.447   3.605   8.345 -1.1361  1.6215 -2.0951
   11SAPS   C33 1415   5.300   4.022   6.861  1.2768 -0.1687 -0.6580
   11SAPS   H3X 1416   5.330   4.126   6.838 -0.0244  0.5638  0.8045
   11SAPS   H3Y 1417   5.392   3.976   6.901  0.9079 -0.9886 -0.7422
   11SAPS   C34 1418   5.202   4.034   6.980 -0.4492 -0.8042  0.0935
   11SAPS   H4X 1419   5.174   3.931   7.010 -0.8209 -0.1142  2.1960
   11SAPS   H4Y 1420   5.114   4.092   6.942 -1.6302 -0.1204  3.6668
   11SAPS   C35 1421   5.261   4.106   7.104 -0.5082 -0.1410 -0.2452
   11SAPS   H5X 1422   5.300   4.206   7.072 -1.0705  0.6371  1.4695
   11SAPS   H5Y 1423   5.351   4.044   7.127  0.4013  1.2986  0.1885
   11SAPS   C36 1424   5.170   4.122   7.225  0.7263 -0.1430  0.1444
   11SAPS   H6X 1425   5.135   4.022   7.259  0.4613 -0.1683 -0.1963
   11SAPS   H6Y 1426   5.088   4.188   7.193 -0.0308 -1.0750  0.1415
   11SAPS   C37 1427   5.244   4.178   7.347  0.2263 -0.3297  0.2232
   11SAPS   H7X 1428   5.286   4.277   7.322  2.3658 -0.7581  1.9566
   11SAPS   H7Y 1429   5.334   4.116   7.368  0.5282  0.6026  1.7511
   11SAPS   C38 1430   5.142   4.203   7.458 -0.0298 -0.0585 -0.6876
   11SAPS   H8X 1431   5.111   4.106   7.502 -1.6945  0.9811  0.4866
   11SAPS   H8Y 1432   5.045   4.248   7.428  0.4569 -0.3124 -2.6890
   11SAPS   C39 1433   5.217   4.268   7.577  0.0551 -0.5951 -0.0152
   11SAPS   H9X 1434   5.263   4.363   7.543  0.9431  0.2311  3.2625
   11SAPS   H9Y 1435   5.302   4.197   7.590 -1.2362 -2.0031  0.9433
   11SAPS  C310 1436   5.138   4.290   7.704  0.9227  0.3016 -0.2229
   11SAPS  H10X 1437   5.073   4.200   7.714  2.5116 -0.6790  1.7415
   11SAPS  H10Y 1438   5.093   4.391   7.701 -1.8095 -0.8532  0.8541
   11SAPS  C311 1439   5.232   4.299   7.825 -0.0249  0.1455 -0.2169
   11SAPS  H11X 1440   5.316   4.358   7.782  0.1016  0.3317  0.2802
   11SAPS  H11Y 1441   5.280   4.200   7.838  1.7092  1.3539  3.1875
   11SAPS  C312 1442   5.165   4.369   7.947 -0.9563 -0.0081  0.6752
   11SAPS  H12X 1443   5.059   4.337   7.942  0.0864 -3.3103 -3.0283
   11SAPS  H12Y 1444   5.174   4.480   7.953 -0.9239  0.0495 -0.3752
   11SAPS  C313 1445   5.201   4.303   8.080 -0.5313  0.9649 -0.1230
   11SAPS  H13X 1446   5.311   4.311   8.094 -0.8374  0.9180  2.5010
   11SAPS  H13Y 1447   5.179   4.195   8.065 -1.5881  1.0000  1.0679
   11SAPS  C314 1448   5.117   4.353   8.198 -0.1377  0.2132  0.0534
   11SAPS  H14X 1449   5.097   4.267   8.265 -1.2102  1.3541  1.2462
   11SAPS  H14Y 1450   5.016   4.385   8.163  0.2262  0.1351 -1.0719
   11SAPS  C315 1451   5.184   4.474   8.265  0.2483 -0.2210  0.1088
   11SAPS  H15X 1452   5.215   4.543   8.183 -0.2930  0.2589  0.3024
   11SAPS  H15Y 1453   5.277   4.448   8.320  0.1928 -1.5358 -0.4140
   11SAPS  C316 1454   5.078   4.548   8.361  0.2890  0.0896 -0.0119
   11SAPS  H16X 1455   5.059   4.474   8.441 -1.6704 -0.4335 -0.9315
   11SAPS  H16Y 1456   4.983   4.558   8.304 -0.8781 -1.5605  1.5899
   11SAPS  C317 1457   5.131   4.677   8.422  0.1142  0.8957 -0.6179
   11SAPS  H17X 1458   5.151   4.746   8.337 -1.6851 -0.4175 -2.1325
   11SAPS  H17Y 1459   5.231   4.655   8.465 -0.4789  2.4590  1.6309
   11SAPS  C318 1460   5.033   4.730   8.530  0.2467 -0.3154  0.5447
   11SAPS  H18X 1461   5.056   4.670   8.621  1.9701  0.0171  0.3478
   11SAPS  H18Y 1462   4.927   4.723   8.499  0.3868 -0.2337  0.0405
   11SAPS  H18Z 1463   5.053   4.837   8.553 -2.3958  0.8422 -2.1978
   12SAPS     N 1464   4.190   5.145   5.856  0.3133  0.1957  0.0229
   12SAPS   HN1 1465   4.147   5.118   5.766 -2.3246  1.2831  0.8995
   12SAPS   HN2 1466   4.294   5.147   5.850  0.3149  1.3274  0.3280
   12SAPS   HN3 1467   4.162   5.075   5.928 -0.6987  1.4430  0.8616
   12SAPS   C12 1468   4.137   5.281   5.891  0.3687  0.0835 -0.3114
   12SAPS  H12A 1469   4.188   5.344   5.820  1.0277 -0.9603 -0.7808
   12SAPS   C13 1470   3.989   5.308   5.879  0.7351  0.2148  0.0162
   12SAPS  O13A 1471   3.907   5.212   5.876  0.3830  0.1295 -0.2497
   12SAPS  O13B 1472   3.937   5.425   5.877  0.1647  0.1551 -0.0588
   12SAPS   C11 1473   4.181   5.316   6.043  0.1445  0.3778  1.4672
   12SAPS  H11A 1474   4.118   5.254   6.111 -1.4373 -0.1594 -0.4359
   12SAPS  H11B 1475   4.155   5.424   6.040 -0.6572  0.1608 -0.8662
   12SAPS     P 1476   4.377   5.349   6.198  0.3678  0.1072 -0.5359
   12SAPS   O13 1477   4.520   5.384   6.193 -0.8613  0.5055 -0.0605
   12SAPS   O14 1478   4.286   5.452   6.252  0.4112  0.7658  0.8731
   12SAPS   O12 1479   4.320   5.288   6.065  0.3220 -0.1976  0.3279
   12SAPS   O11 1480   4.364   5.214   6.287 -0.3360  0.2907 -0.0377
   12SAPS    C1 1481   4.452   5.097   6.276 -0.6743  0.1282 -0.3195
   12SAPS    HA 1482   4.388   5.007   6.264  1.1663 -1.4906  1.4743
   12SAPS    HB 1483   4.519   5.114   6.189 -0.4334 -2.2355 -0.6148
   12SAPS    C2 1484   4.552   5.073   6.391  0.3636  0.5245 -0.1796
   12SAPS    HS 1485   4.601   4.974   6.379 -1.8709 -0.8382  1.4747
   12SAPS   O21 1486   4.482   5.068   6.520  0.4500 -0.2652 -0.0011
   12SAPS   C21 1487   4.425   4.955   6.557 -0.3320 -0.2690 -0.3558
   12SAPS   O22 1488   4.417   4.850   6.484  0.3351  0.1057 -0.0307
   12SAPS   C22 1489   4.351   4.980   6.688  0.3020  0.2252 -0.9012
   12SAPS   H2R 1490   4.418   5.039   6.754  1.6734 -0.9473 -1.2172
   12SAPS   H2S 1491   4.260   5.037   6.662 -0.8070 -0.3728  1.5895
   12SAPS    C3 1492   4.664   5.186   6.400  0.8307  0.1776 -0.6277
   12SAPS    HX 1493   4.621   5.287   6.415  0.8784  0.3390 -1.5394
   12SAPS    HY 1494   4.719   5.202   6.304  1.7484  0.2029 -0.1084
   12SAPS   O31 1495   4.757   5.158   6.512 -0.1885 -0.1494  0.0103
   12SAPS   C31 1496   4.860   5.083   6.486 -0.0206  0.7769 -1.0232
   12SAPS   O32 1497   4.898   5.049   6.376  0.4645 -0.3274 -0.6539
   12SAPS   C32 1498   4.919   5.029   6.622 -0.4656 -0.1658 -0.6809
   12SAPS   H2X 1499   4.979   5.115   6.659 -0.3344 -0.1554 -0.9185
   12SAPS   H2Y 1500   4.983   4.939   6.605 -0.0341  0.2431 -1.2526
   12SAPS   C23 1501   4.285   4.867   6.767 -0.1833 -0.1623  0.2690
   12SAPS   H3R 1502   4.253   4.775   6.712  1.3868 -0.2854 -0.4585
   12SAPS   H3S 1503   4.197   4.909   6.820 -1.2904  0.7817 -2.2277
   12SAPS   C24 1504   4.376   4.815   6.883  0.4076  0.2793  0.1011
   12SAPS   H4R 1505   4.304   4.766   6.952 -0.0034  1.7825  0.7548
   12SAPS   H4S 1506   4.406   4.910   6.931  1.1688  1.1608 -2.0683
   12SAPS   C25 1507   4.496   4.733   6.847  0.1504 -0.1610 -0.3368
   12SAPS   H5R 1508   4.512   4.732   6.738 -2.7373  2.8336 -0.8436
   12SAPS   C26 1509   4.596   4.687   6.927 -0.8550 -0.3042  0.1316
   12SAPS   H6R 1510   4.671   4.616   6.889 -1.9727 -0.9561 -0.9169
   12SAPS   C27 1511   4.593   4.713   7.076 -0.3723 -0.3258  0.9449
   12SAPS   H7R 1512   4.491   4.735   7.113 -0.9060  0.9509 -1.2300
   12SAPS   H7S 1513   4.652   4.805   7.093 -2.8075  1.1317  1.6176
   12SAPS   C28 1514   4.631   4.615   7.179 -0.9460  0.4312  0.4717
   12SAPS   H8R 1515   4.597   4.513   7.155  0.0388  0.0827  0.5385
   12SAPS   C29 1516   4.704   4.645   7.289  0.1457 -0.4051  0.4179
   12SAPS   H9R 1517   4.736   4.561   7.352  1.1659 -0.5817 -0.3159
   12SAPS  C210 1518   4.770   4.771   7.338 -0.0846 -0.4679 -0.3006
   12SAPS  H10R 1519   4.713   4.832   7.411 -1.7315 -1.6827 -0.5364
   12SAPS  H10S 1520   4.791   4.832   7.247 -1.5523  1.2558  0.4925
   12SAPS  C211 1521   4.889   4.737   7.420  0.2141  0.0652  0.3938
   12SAPS  H11R 1522   4.976   4.713   7.356  0.2718 -0.7586  0.7767
   12SAPS  C212 1523   4.900   4.709   7.551  0.1574  0.0039  0.4672
   12SAPS  H12R 1524   4.999   4.675   7.585  0.7522  0.1814 -1.0977
   12SAPS  C213 1525   4.789   4.720   7.654 -0.5448 -0.5659 -0.0191
   12SAPS  H13R 1526   4.690   4.707   7.605  0.2630  0.1240 -1.8646
   12SAPS  H13S 1527   4.796   4.825   7.691  3.9440 -0.5369 -0.6797
   12SAPS  C214 1528   4.821   4.634   7.776  0.0522 -0.8637 -0.3963
   12SAPS  H14R 1529   4.901   4.563   7.751  1.2054  0.6235 -1.0461
   12SAPS  C215 1530   4.754   4.632   7.887 -0.2517 -0.6639 -0.4406
   12SAPS  H15R 1531   4.795   4.569   7.967 -2.7758  0.5320  1.8454
   12SAPS  C216 1532   4.637   4.720   7.932 -0.3820 -0.2124  0.2759
   12SAPS  H16R 1533   4.551   4.725   7.862 -0.9819  0.2561  1.0490
   12SAPS  H16S 1534   4.683   4.820   7.943 -0.9752  0.2786 -1.5381
   12SAPS  C217 1535   4.573   4.670   8.056 -0.5482  0.2953 -0.2324
   12SAPS  H17R 1536   4.544   4.563   8.050 -1.1855  0.4765 -0.5082
   12SAPS  H17S 1537   4.472   4.718   8.057 -0.2780  0.8621  0.1905
   12SAPS  C218 1538   4.634   4.711   8.186  0.4667  0.8460  0.1903
   12SAPS  H18R 1539   4.584   4.809   8.198  0.2401  0.7814 -0.2008
   12SAPS  H18S 1540   4.744   4.728   8.187  0.9967 -1.8851 -2.5369
   12SAPS  C219 1541   4.575   4.620   8.298  0.3212  0.3702 -0.1759
   12SAPS  H19R 1542   4.473   4.589   8.266  0.4614 -1.6597  1.2693
   12SAPS  H19S 1543   4.565   4.684   8.388  2.4915 -0.1306  0.4368
   12SAPS  C220 1544   4.644   4.492   8.320 -0.1688 -0.2022 -0.6333
   12SAPS  H20R 1545   4.741   4.508   8.371 -0.2189 -3.1983  0.4782
   12SAPS  H20S 1546   4.674   4.445   8.224 -1.4049 -3.5717  0.5644
   12SAPS  H20T 1547   4.584   4.426   8.385 -3.3752  0.0907 -3.1433
   12SAPS   C33 1548   4.803   4.988   6.722  0.6131  0.3126  0.3614
   12SAPS   H3X 1549   4.749   4.907   6.668  1.4056  0.4239 -0.6104
   12SAPS   H3Y 1550   4.736   5.073   6.746  2.1978  1.4739  0.7233
   12SAPS   C34 1551   4.858   4.946   6.864 -0.3691 -0.0558 -0.5576
   12SAPS   H4X 1552   4.926   4.859   6.854  1.4205  1.1861  0.6571
   12SAPS   H4Y 1553   4.777   4.902   6.925 -1.1171  1.0480 -0.7314
   12SAPS   C35 1554   4.928   5.065   6.927 -0.3107  0.8374 -0.2889
   12SAPS   H5X 1555   4.863   5.154   6.912  0.2955  1.3369  0.0413
   12SAPS   H5Y 1556   5.019   5.087   6.868 -0.2004 -1.3230 -0.9464
   12SAPS   C36 1557   4.954   5.054   7.080  0.0358 -0.3732 -0.0148
   12SAPS   H6X 1558   4.995   4.951   7.088 -1.7873 -1.3077 -2.0345
   12SAPS   H6Y 1559   4.863   5.035   7.142  1.1011 -0.7809  1.4433
   12SAPS   C37 1560   5.046   5.152   7.148 -0.6560  0.0242  0.2566
   12SAPS   H7X 1561   5.134   5.172   7.082 -2.2561  2.5007 -1.2273
   12SAPS   H7Y 1562   5.079   5.114   7.247  2.9226 -2.4011 -1.7238
   12SAPS   C38 1563   4.981   5.287   7.172 -0.2613  0.1392  0.2107
   12SAPS   H8X 1564   4.909   5.302   7.089 -1.7705 -1.5323  1.1605
   12SAPS   H8Y 1565   5.055   5.370   7.168  0.2725 -0.2969  0.8871
   12SAPS   C39 1566   4.907   5.297   7.303  0.3272  0.1490 -0.1593
   12SAPS   H9X 1567   4.994   5.288   7.372 -1.1186 -0.5589  1.6061
   12SAPS   H9Y 1568   4.845   5.209   7.330  0.9770  0.5551  2.8636
   12SAPS  C310 1569   4.851   5.429   7.324 -0.2102 -0.0389  0.3380
   12SAPS  H10X 1570   4.917   5.503   7.274  2.6399 -1.2208  2.2120
   12SAPS  H10Y 1571   4.857   5.467   7.429  1.3180  1.0152 -0.1007
   12SAPS  C311 1572   4.706   5.443   7.283 -0.7160  0.0821 -0.4543
   12SAPS  H11X 1573   4.652   5.365   7.342  2.1141 -2.2766 -0.8324
   12SAPS  H11Y 1574   4.696   5.421   7.175 -1.0794 -0.0843 -0.3880
   12SAPS  C312 1575   4.653   5.582   7.293 -0.3442 -0.1276 -0.4247
   12SAPS  H12X 1576   4.566   5.599   7.226 -0.5565  0.2349 -0.0592
   12SAPS  H12Y 1577   4.725   5.651   7.246  0.3922  1.0025  2.2489
   12SAPS  C313 1578   4.634   5.628   7.445  0.2777 -0.2103 -0.5760
   12SAPS  H13X 1579   4.638   5.739   7.447 -1.3941 -0.1805  1.4944
   12SAPS  H13Y 1580   4.720   5.600   7.509 -0.0293 -0.0259 -0.0833
   12SAPS  C314 1581   4.510   5.572   7.512  1.3005 -0.2363 -0.0098
   12SAPS  H14X 1582   4.503   5.461   7.516  0.3559 -0.1305  2.4136
   12SAPS  H14Y 1583   4.427   5.598   7.443  1.4464  0.0732 -0.0691
   12SAPS  C315 1584   4.485   5.635   7.647  0.7342  0.3135  0.8621
   12SAPS  H15X 1585   4.376   5.641   7.664  0.9414  1.3021  1.8264
   12SAPS  H15Y 1586   4.521   5.740   7.640  0.0175  0.5132  0.0330
   12SAPS  C316 1587   4.536   5.552   7.764  0.0129  0.1283  0.3498
   12SAPS  H16X 1588   4.645   5.533   7.757 -0.2905 -0.9148 -2.1408
   12SAPS  H16Y 1589   4.484   5.455   7.749  0.9719 -0.4073  0.4754
   12SAPS  C317 1590   4.500   5.603   7.900 -0.0309  0.4871  0.3870
   12SAPS  H17X 1591   4.551   5.533   7.969 -2.3071 -1.8360 -0.2018
   12SAPS  H17Y 1592   4.396   5.585   7.935  0.9336 -1.3967  2.3873
   12SAPS  C318 1593   4.541   5.750   7.916  0.5768  0.4138  0.2955
   12SAPS  H18X 1594   4.460   5.814   7.873 -0.4966 -0.8767  0.3708
   12SAPS  H18Y 1595   4.643   5.772   7.877  0.7866  0.1300  0.6838
   12SAPS  H18Z 1596   4.559   5.774   8.023  0.4582 -1.3184  0.7168
   13SAPS     N 1597   5.817   3.003   6.151 -0.7528 -0.5753 -0.1330
   13SAPS   HN1 1598   5.892   2.931   6.157 -0.5449 -0.2417  1.5102
   13SAPS   HN2 1599   5.845   3.088   6.098 -1.4222  0.7403  1.5556
   13SAPS   HN3 1600   5.807   3.028   6.252 -1.3119 -1.4616  0.0334
   13SAPS   C12 1601   5.695   2.950   6.086  0.1465 -0.1240 -1.1396
   13SAPS  H12A 1602   5.615   3.023   6.083 -1.3971 -1.7872 -1.2401
   13SAPS   C13 1603   5.715   2.901   5.939  0.1413  0.2913  0.8779
   13SAPS  O13A 1604   5.826   2.921   5.882 -0.4151 -0.1424 -0.7528
   13SAPS  O13B 1605   5.610   2.861   5.878 -0.8832 -0.1031 -0.1164
   13SAPS   C11 1606   5.655   2.824   6.171 -0.1630  0.3596  0.1839
   13SAPS  H11A 1607   5.573   2.766   6.122  0.7510 -0.3858 -0.4807
   13SAPS  H11B 1608   5.615   2.854   6.270  0.8502  2.9856 -0.1555
   13SAPS     P 1609   5.770   2.597   6.241 -0.1594  0.1601  0.0286
   13SAPS   O13 1610   5.686   2.520   6.142 -0.3577  0.0839 -0.4977
   13SAPS   O14 1611   5.915   2.556   6.250  0.0599  0.3515  0.8769
   13SAPS   O12 1612   5.777   2.744   6.201 -0.5701 -0.2861  0.0499
   13SAPS   O11 1613   5.703   2.593   6.385 -0.1474  0.7263 -0.9362
   13SAPS    C1 1614   5.743   2.693   6.483 -0.9765 -0.0842  0.8221
   13SAPS    HA 1615   5.852   2.714   6.485 -0.9364 -0.2085  0.1265
   13SAPS    HB 1616   5.696   2.794   6.478 -0.1641  0.1682 -2.6250
   13SAPS    C2 1617   5.710   2.645   6.632  0.2922  1.0827  0.3025
   13SAPS    HS 1618   5.741   2.539   6.642 -0.5754  0.7632 -0.4194
   13SAPS   O21 1619   5.565   2.661   6.665  0.5535  0.1529  0.0159
   13SAPS   C21 1620   5.504   2.574   6.743  0.1917 -0.1246 -0.5456
   13SAPS   O22 1621   5.566   2.487   6.804 -0.0190  0.6622  0.1916
   13SAPS   C22 1622   5.356   2.593   6.736  0.6227 -0.4678 -0.3870
   13SAPS   H2R 1623   5.336   2.701   6.748  2.6038 -0.0215 -0.8933
   13SAPS   H2S 1624   5.330   2.551   6.637  0.0180  0.6254 -0.6971
   13SAPS    C3 1625   5.789   2.730   6.729  0.3800  0.8730  0.4786
   13SAPS    HX 1626   5.750   2.833   6.718 -1.0227  0.4540  1.3752
   13SAPS    HY 1627   5.898   2.722   6.708  0.0862 -0.5450 -0.5713
   13SAPS   O31 1628   5.761   2.695   6.869 -0.4796  0.3686 -0.2565
   13SAPS   C31 1629   5.833   2.589   6.921 -0.0182  0.2074 -0.3153
   13SAPS   O32 1630   5.908   2.520   6.858 -0.2796 -0.0345 -0.4452
   13SAPS   C32 1631   5.819   2.577   7.071  0.3766  0.1811  0.2628
   13SAPS   H2X 1632   5.846   2.673   7.121  2.5227  1.0878 -2.5672
   13SAPS   H2Y 1633   5.892   2.505   7.113  2.1528  0.7427 -1.8144
   13SAPS   C23 1634   5.282   2.521   6.854 -0.9340  0.0730  0.1880
   13SAPS   H3R 1635   5.308   2.578   6.946  1.6640 -0.9095  0.1062
   13SAPS   H3S 1636   5.321   2.417   6.857  2.1085  1.1741  0.2745
   13SAPS   C24 1637   5.125   2.520   6.847  0.7223 -0.0515  0.3030
   13SAPS   H4R 1638   5.094   2.459   6.935 -0.7147 -1.3397 -1.0756
   13SAPS   H4S 1639   5.104   2.465   6.753  3.6049  1.5651 -1.3686
   13SAPS   C25 1640   5.052   2.656   6.845  0.3731  0.3230  0.5065
   13SAPS   H5R 1641   5.058   2.705   6.747 -1.8113 -1.2199 -0.4460
   13SAPS   C26 1642   4.964   2.704   6.937  0.8198  0.5911 -0.3102
   13SAPS   H6R 1643   4.905   2.794   6.917 -0.5618 -0.6673 -1.9450
   13SAPS   C27 1644   4.924   2.626   7.066 -0.5896 -0.2062  0.1270
   13SAPS   H7R 1645   4.990   2.538   7.072  0.3089  0.3027 -1.8024
   13SAPS   H7S 1646   4.819   2.589   7.067 -0.2725 -1.1198 -0.1020
   13SAPS   C28 1647   4.940   2.713   7.194 -0.1727 -0.1150  0.6080
   13SAPS   H8R 1648   4.876   2.801   7.180 -1.3315 -1.1421 -0.7556
   13SAPS   C29 1649   4.998   2.691   7.317  0.3796 -0.1028  0.0798
   13SAPS   H9R 1650   4.978   2.771   7.389 -0.9912 -1.2307  0.9854
   13SAPS  C210 1651   5.059   2.555   7.363  0.5566 -0.0239  0.2014
   13SAPS  H10R 1652   5.087   2.503   7.269  0.5521 -1.3199  0.8998
   13SAPS  H10S 1653   4.978   2.502   7.417 -0.5545  1.0286 -0.4075
   13SAPS  C211 1654   5.173   2.570   7.461 -0.0479  0.8140 -0.5720
   13SAPS  H11R 1655   5.268   2.584   7.409  0.6386 -3.2389 -0.5821
   13SAPS  C212 1656   5.177   2.551   7.597  0.0832  0.2428  0.2336
   13SAPS  H12R 1657   5.270   2.564   7.655 -1.4567  1.1032  2.6216
   13SAPS  C213 1658   5.074   2.511   7.695 -0.6808 -0.2115  0.2738
   13SAPS  H13R 1659   5.110   2.416   7.740 -0.8988  0.1785  1.2812
   13SAPS  H13S 1660   4.983   2.478   7.642  0.1752 -0.5864 -0.9944
   13SAPS  C214 1661   5.033   2.615   7.796  0.3757 -1.0186 -0.3064
   13SAPS  H14R 1662   5.004   2.712   7.753 -2.4959 -0.7174  2.1340
   13SAPS  C215 1663   5.030   2.598   7.930 -0.2790  0.4050 -0.1239
   13SAPS  H15R 1664   5.010   2.687   7.992 -1.5290 -1.0808  1.6422
   13SAPS  C216 1665   5.075   2.480   8.015  0.0309 -0.4929  0.0680
   13SAPS  H16R 1666   5.113   2.395   7.955 -3.6488 -2.1614 -0.0113
   13SAPS  H16S 1667   5.001   2.441   8.088  0.9169 -1.1266  0.6568
   13SAPS  C217 1668   5.200   2.511   8.106  0.2185 -0.5141  0.6475
   13SAPS  H17R 1669   5.262   2.582   8.048 -1.0404  1.5029  1.7092
   13SAPS  H17S 1670   5.251   2.412   8.118 -1.4704 -1.6263 -1.1481
   13SAPS  C218 1671   5.178   2.579   8.234  0.1171 -0.8677  0.2960
   13SAPS  H18R 1672   5.139   2.506   8.308 -2.0702  0.5694  0.6331
   13SAPS  H18S 1673   5.097   2.653   8.220  1.4642  0.0480 -3.1723
   13SAPS  C219 1674   5.314   2.636   8.286  0.4258  0.3231  0.0046
   13SAPS  H19R 1675   5.353   2.698   8.202 -0.5154 -1.2351 -1.6279
   13SAPS  H19S 1676   5.395   2.562   8.305 -0.1823 -0.0852  1.0366
   13SAPS  C220 1677   5.283   2.714   8.413  0.1351  0.4743  0.7649
   13SAPS  H20R 1678   5.202   2.661   8.468 -1.0535  2.2641  0.7638
   13SAPS  H20S 1679   5.249   2.813   8.375  0.5567  0.3349  0.0131
   13SAPS  H20T 1680   5.375   2.726   8.475  1.2544 -0.0854 -0.7596
   13SAPS   C33 1681   5.677   2.541   7.112  0.3742  0.7327  0.2100
   13SAPS   H3X 1682   5.661   2.432   7.098 -0.8637  0.9502 -0.1208
   13SAPS   H3Y 1683   5.609   2.596   7.043  1.4302  1.7634 -0.0313
   13SAPS   C34 1684   5.632   2.578   7.258  0.4834  0.1655 -0.6944
   13SAPS   H4X 1685   5.545   2.515   7.286 -0.3083  1.8650  0.7525
   13SAPS   H4Y 1686   5.597   2.683   7.271  1.2990  0.3934 -0.3582
   13SAPS   C35 1687   5.753   2.561   7.359 -0.3181 -0.4864  0.7335
   13SAPS   H5X 1688   5.839   2.621   7.322 -1.5051  0.8135  0.0094
   13SAPS   H5Y 1689   5.779   2.455   7.376 -0.5010 -0.9853 -1.9553
   13SAPS   C36 1690   5.734   2.614   7.501  0.7659 -0.2657 -0.3154
   13SAPS   H6X 1691   5.709   2.720   7.480 -2.4007 -1.3134 -2.1910
   13SAPS   H6Y 1692   5.833   2.606   7.549  2.0605  1.5680 -2.6128
   13SAPS   C37 1693   5.638   2.524   7.583 -0.9627 -0.2489  0.0027
   13SAPS   H7X 1694   5.676   2.420   7.585  1.5053  0.5999 -0.4316
   13SAPS   H7Y 1695   5.537   2.527   7.537 -0.5164  0.1801 -0.9700
   13SAPS   C38 1696   5.622   2.573   7.731 -0.3008 -0.0981  0.5946
   13SAPS   H8X 1697   5.579   2.675   7.721  2.2007  0.9210 -0.1706
   13SAPS   H8Y 1698   5.726   2.591   7.765  0.1062 -0.1098 -0.6023
   13SAPS   C39 1699   5.538   2.490   7.825  0.8427 -0.1807 -0.2347
   13SAPS   H9X 1700   5.456   2.437   7.772 -0.5090 -0.0183  1.6504
   13SAPS   H9Y 1701   5.494   2.559   7.900 -0.1028  0.7006 -1.5732
   13SAPS  C310 1702   5.609   2.386   7.908  1.0212  0.1320  0.1590
   13SAPS  H10X 1703   5.699   2.440   7.944  0.0233  0.7885  1.7666
   13SAPS  H10Y 1704   5.639   2.305   7.838  1.4120  1.6289 -1.4468
   13SAPS  C311 1705   5.521   2.347   8.022 -0.1324  0.2072 -0.5169
   13SAPS  H11X 1706   5.411   2.336   8.011 -0.1978 -0.1012  0.3825
   13SAPS  H11Y 1707   5.528   2.441   8.081 -1.2078  0.8409 -1.3848
   13SAPS  C312 1708   5.580   2.241   8.111  1.2876  0.2148  0.0326
   13SAPS  H12X 1709   5.567   2.139   8.068  1.0861 -0.1392  0.9202
   13SAPS  H12Y 1710   5.529   2.231   8.209  2.3144  1.5908  0.7403
   13SAPS  C313 1711   5.727   2.240   8.148  0.1223  0.0771  0.5074
   13SAPS  H13X 1712   5.793   2.231   8.059  0.6318  1.4638  0.7384
   13SAPS  H13Y 1713   5.744   2.154   8.217 -0.8972 -0.4090  0.1713
   13SAPS  C314 1714   5.771   2.363   8.222 -0.2450  0.2188  0.6324
   13SAPS  H14X 1715   5.689   2.385   8.295  0.4931  4.1447  0.3900
   13SAPS  H14Y 1716   5.769   2.448   8.151 -0.0172  0.2607  0.6752
   13SAPS  C315 1717   5.913   2.359   8.293 -0.0153  0.0752  0.3124
   13SAPS  H15X 1718   5.991   2.337   8.218 -1.7830  0.0138 -1.5697
   13SAPS  H15Y 1719   5.921   2.270   8.358 -1.6674  0.4457  1.0623
   13SAPS  C316 1720   5.964   2.477   8.370 -0.9333 -1.0280 -0.5130
   13SAPS  H16X 1721   5.893   2.521   8.442 -0.6221 -1.3609 -0.0033
   13SAPS  H16Y 1722   5.994   2.552   8.293 -1.6096 -1.2093 -0.9523
   13SAPS  C317 1723   6.094   2.442   8.447  0.0631 -0.5647 -0.1229
   13SAPS  H17X 1724   6.178   2.424   8.377  1.6854  0.7868  1.4293
   13SAPS  H17Y 1725   6.080   2.355   8.514  2.4331 -2.9819 -2.6667
   13SAPS  C318 1726   6.144   2.558   8.544 -0.3290 -0.0304  0.4293
   13SAPS  H18X 1727   6.247   2.525   8.571  0.2527  1.8711  0.5670
   13SAPS  H18Y 1728   6.085   2.560   8.638  0.4385  2.0485  0.8939
   13SAPS  H18Z 1729   6.152   2.654   8.489 -0.8531 -0.7864 -1.0011
   14SAPS     N 1730   5.268   4.593   5.389  0.8056  0.4042  0.3262
   14SAPS   HN1 1731   5.334   4.513   5.376 -0.3080 -0.3846 -0.6724
   14SAPS   HN2 1732   5.177   4.550   5.362 -0.1695  1.2937  2.1337
   14SAPS   HN3 1733   5.295   4.658   5.312 -3.2947 -0.7562 -2.2588
   14SAPS   C12 1734   5.288   4.646   5.530 -0.3577  0.1465  0.3771
   14SAPS  H12A 1735   5.394   4.645   5.551 -0.1732  1.7206 -0.3870
   14SAPS   C13 1736   5.233   4.798   5.540 -0.0267 -0.6586 -0.0289
   14SAPS  O13A 1737   5.156   4.836   5.444  0.4898 -0.5992 -0.2689
   14SAPS  O13B 1738   5.261   4.870   5.636  0.1157 -0.6637 -0.3802
   14SAPS   C11 1739   5.204   4.561   5.629  0.1834 -0.1466  0.3178
   14SAPS  H11A 1740   5.094   4.565   5.609  0.5183 -0.1603 -1.5865
   14SAPS  H11B 1741   5.218   4.596   5.734 -0.9411 -1.0121  0.7756
   14SAPS     P 1742   5.371   4.372   5.718 -0.1907 -0.2536  0.1452
   14SAPS   O13 1743   5.423   4.238   5.682 -0.2616 -0.0129 -0.4293
   14SAPS   O14 1744   5.476   4.474   5.709 -0.3710 -0.4346 -0.0246
   14SAPS   O12 1745   5.244   4.422   5.634  0.1169 -0.3892  0.2788
   14SAPS   O11 1746   5.322   4.375   5.867  0.1413 -0.2196  0.4433
   14SAPS    C1 1747   5.224   4.283   5.921 -0.3115  0.0974  0.1339
   14SAPS    HA 1748   5.250   4.177   5.903 -0.7263  0.1349 -0.7122
   14SAPS    HB 1749   5.228   4.292   6.032 -0.9432 -0.7737  0.2321
   14SAPS    C2 1750   5.081   4.325   5.896 -0.4369 -0.0267  0.1444
   14SAPS    HS 1751   5.063   4.307   5.788  1.5712 -0.9515 -0.0458
   14SAPS   O21 1752   5.055   4.461   5.945  0.9395 -0.5015 -0.6987
   14SAPS   C21 1753   4.940   4.519   5.909 -0.1079 -0.4310  0.7382
   14SAPS   O22 1754   4.877   4.485   5.812 -0.6253  0.1291 -0.4692
   14SAPS   C22 1755   4.927   4.644   6.001  0.5725 -0.2218 -0.5684
   14SAPS   H2R 1756   5.021   4.703   6.001 -0.4249  1.3965  0.0470
   14SAPS   H2S 1757   4.842   4.704   5.961  0.7461 -0.8151 -1.8492
   14SAPS    C3 1758   4.984   4.231   5.971 -0.4786  0.6927 -0.3711
   14SAPS    HX 1759   5.004   4.127   5.940 -0.7175 -0.0044  1.7265
   14SAPS    HY 1760   4.880   4.251   5.937 -0.5730  0.0747 -0.4399
   14SAPS   O31 1761   4.994   4.247   6.119 -1.1111 -0.6931  0.0340
   14SAPS   C31 1762   4.942   4.153   6.188 -0.5726 -0.7939  0.2036
   14SAPS   O32 1763   4.907   4.041   6.153  0.0273 -0.3998  0.0958
   14SAPS   C32 1764   4.929   4.214   6.331  0.5911  0.1457 -0.0018
   14SAPS   H2X 1765   4.851   4.292   6.323  1.6959  1.3049  0.3733
   14SAPS   H2Y 1766   5.019   4.271   6.362  0.6141 -0.6186  1.3738
   14SAPS   C23 1767   4.895   4.602   6.142  0.1674  0.5862 -1.3230
   14SAPS   H3R 1768   4.983   4.546   6.182 -0.9407  0.6372  1.2662
   14SAPS   H3S 1769   4.812   4.528   6.140 -0.1430  0.9303 -1.1243
   14SAPS   C24 1770   4.859   4.730   6.235 -0.3027 -0.3203  0.4892
   14SAPS   H4R 1771   4.762   4.768   6.197 -2.2905 -4.6439  0.9481
   14SAPS   H4S 1772   4.941   4.800   6.207  1.5181 -2.8452 -0.7359
   14SAPS   C25 1773   4.855   4.699   6.384  0.8479 -0.0370  0.6209
   14SAPS   H5R 1774   4.752   4.709   6.423  1.0234 -0.8189  1.3033
   14SAPS   C26 1775   4.957   4.693   6.473  0.6096 -0.3430 -0.4842
   14SAPS   H6R 1776   4.934   4.674   6.579 -0.7838  0.6416 -0.5906
   14SAPS   C27 1777   5.101   4.681   6.443 -0.9160 -0.0773 -0.1559
   14SAPS   H7R 1778   5.119   4.654   6.337  0.2270  0.5533 -0.1220
   14SAPS   H7S 1779   5.136   4.585   6.485 -1.3129 -0.7790 -1.4080
   14SAPS   C28 1780   5.186   4.798   6.484 -0.1796  0.5335 -0.6052
   14SAPS   H8R 1781   5.152   4.893   6.439  0.3786  0.7897 -0.4822
   14SAPS   C29 1782   5.287   4.805   6.576 -0.0192  0.1508  0.4334
   14SAPS   H9R 1783   5.347   4.897   6.580 -0.9289  0.8322 -1.0109
   14SAPS  C210 1784   5.357   4.683   6.637  0.2579 -0.1025 -0.5127
   14SAPS  H10R 1785   5.446   4.658   6.576 -0.9781 -1.7523 -1.7009
   14SAPS  H10S 1786   5.294   4.592   6.628  1.7752 -1.5867  2.8040
   14SAPS  C211 1787   5.409   4.704   6.780 -0.4446  0.1628  0.2519
   14SAPS  H11R 1788   5.480   4.787   6.782 -1.1834  0.9193 -2.6232
   14SAPS  C212 1789   5.375   4.642   6.892  0.5494 -0.4999  0.3493
   14SAPS  H12R 1790   5.431   4.660   6.985 -0.2277 -0.6325  0.8483
   14SAPS  C213 1791   5.272   4.534   6.899 -0.1365 -0.0264  0.1185
   14SAPS  H13R 1792   5.282   4.457   6.979  1.5814  0.7453  0.6809
   14SAPS  H13S 1793   5.275   4.476   6.805 -0.5323 -2.1410  1.3701
   14SAPS  C214 1794   5.135   4.593   6.907 -0.4199  0.2111 -0.4152
   14SAPS  H14R 1795   5.103   4.637   6.811 -0.7370  0.1046 -0.3583
   14SAPS  C215 1796   5.052   4.590   7.008  0.9579  0.1472  0.3141
   14SAPS  H15R 1797   4.957   4.647   7.010  1.5165  1.0662  1.1365
   14SAPS  C216 1798   5.097   4.541   7.145 -0.2510 -0.3149 -0.1535
   14SAPS  H16R 1799   5.152   4.445   7.151 -1.2285 -0.8567  0.2497
   14SAPS  H16S 1800   5.010   4.530   7.214 -0.7545 -1.1231 -0.9101
   14SAPS  C217 1801   5.193   4.641   7.211 -0.5104  0.5344  0.3749
   14SAPS  H17R 1802   5.155   4.746   7.207  1.8157  1.4115  0.4626
   14SAPS  H17S 1803   5.288   4.642   7.152  0.9205  1.5649  2.6075
   14SAPS  C218 1804   5.246   4.592   7.353 -0.3409 -0.8243  0.3737
   14SAPS  H18R 1805   5.325   4.515   7.342  0.3997 -0.1653  1.0854
   14SAPS  H18S 1806   5.154   4.559   7.405  0.1347 -0.1430  1.6549
   14SAPS  C219 1807   5.306   4.701   7.438 -0.7008  0.4529  0.4447
   14SAPS  H19R 1808   5.231   4.783   7.438 -1.3253 -0.1069  0.2105
   14SAPS  H19S 1809   5.403   4.734   7.395 -0.8963 -2.1549 -2.1251
   14SAPS  C220 1810   5.329   4.658   7.584  0.9031  0.4217 -0.6395
   14SAPS  H20R 1811   5.366   4.735   7.655 -0.0202 -1.7753  2.3637
   14SAPS  H20S 1812   5.403   4.575   7.595  0.4365  0.2729  1.5872
   14SAPS  H20T 1813   5.232   4.618   7.619  2.3095 -1.6978  1.0444
   14SAPS   C33 1814   4.894   4.105   6.435 -0.0411  0.1693  0.8582
   14SAPS   H3X 1815   4.963   4.022   6.411 -0.8786 -0.1262 -0.5860
   14SAPS   H3Y 1816   4.788   4.072   6.427 -0.2441  1.1103 -0.3882
   14SAPS   C34 1817   4.919   4.155   6.583 -0.2157  1.0211  0.0573
   14SAPS   H4X 1818   5.027   4.180   6.578  0.1369 -0.3579  0.3436
   14SAPS   H4Y 1819   4.902   4.074   6.658 -2.0718  1.1319 -0.2223
   14SAPS   C35 1820   4.827   4.284   6.616  0.1061  0.3080 -0.0057
   14SAPS   H5X 1821   4.723   4.245   6.614  0.5964 -1.0121 -0.1064
   14SAPS   H5Y 1822   4.839   4.349   6.527 -0.8236  0.8201  0.2333
   14SAPS   C36 1823   4.875   4.352   6.743 -0.7001  0.3503  0.1742
   14SAPS   H6X 1824   4.816   4.444   6.765 -1.3486  0.4695 -1.9956
   14SAPS   H6Y 1825   4.981   4.382   6.731 -0.6480  0.4479  0.8239
   14SAPS   C37 1826   4.855   4.263   6.871 -0.2498 -0.1189  0.4415
   14SAPS   H7X 1827   4.897   4.322   6.955  0.2431 -0.6130  0.5396
   14SAPS   H7Y 1828   4.920   4.175   6.855 -0.1790  0.0191 -0.0482
   14SAPS   C38 1829   4.703   4.218   6.872  0.2374 -0.4292 -0.1653
   14SAPS   H8X 1830   4.679   4.155   6.785 -1.1444 -0.2932  0.1132
   14SAPS   H8Y 1831   4.645   4.311   6.855 -0.9097 -1.2225 -0.5917
   14SAPS   C39 1832   4.656   4.143   6.992 -0.3092 -0.3608 -0.2394
   14SAPS   H9X 1833   4.724   4.056   6.999  2.6828  1.9161 -0.2823
   14SAPS   H9Y 1834   4.556   4.095   6.983 -1.2731  1.5176  0.2913
   14SAPS  C310 1835   4.643   4.223   7.124 -0.4956  0.2144 -0.2090
   14SAPS  H10X 1836   4.558   4.293   7.111 -0.8521 -0.0340  0.7781
   14SAPS  H10Y 1837   4.728   4.292   7.146 -0.1015 -0.3807  0.1186
   14SAPS  C311 1838   4.621   4.128   7.246 -0.0837 -0.2685 -0.6925
   14SAPS  H11X 1839   4.668   4.030   7.223 -0.2280 -0.2882 -0.9066
   14SAPS  H11Y 1840   4.512   4.134   7.267 -0.1005 -1.7297 -0.3040
   14SAPS  C312 1841   4.688   4.182   7.373  0.5981  0.5899 -0.7522
   14SAPS  H12X 1842   4.661   4.289   7.383 -0.2697  0.3211 -0.1609
   14SAPS  H12Y 1843   4.798   4.163   7.368  0.6719  0.2993  1.4071
   14SAPS  C313 1844   4.635   4.132   7.510 -0.1871  0.2031  0.4904
   14SAPS  H13X 1845   4.654   4.023   7.521  2.3617  0.5391 -0.1747
   14SAPS  H13Y 1846   4.524   4.137   7.506 -0.3249  0.2243  3.4561
   14SAPS  C314 1847   4.685   4.215   7.633 -0.1656  0.5524  0.0030
   14SAPS  H14X 1848   4.638   4.315   7.639  1.1090  1.1081  0.9006
   14SAPS  H14Y 1849   4.793   4.240   7.621  0.0870 -0.0433  0.9796
   14SAPS  C315 1850   4.670   4.146   7.771 -0.0588  0.5305 -0.1368
   14SAPS  H15X 1851   4.718   4.047   7.779 -2.0022 -0.4731 -0.4773
   14SAPS  H15Y 1852   4.564   4.112   7.764  0.1923 -0.4892  0.9060
   14SAPS  C316 1853   4.714   4.229   7.890 -0.1747  0.4058 -0.5125
   14SAPS  H16X 1854   4.685   4.330   7.855 -1.4607 -0.6306 -2.5713
   14SAPS  H16Y 1855   4.822   4.218   7.914  0.4079  2.5239 -2.1149
   14SAPS  C317 1856   4.621   4.186   8.012 -0.1589 -0.0914 -0.3146
   14SAPS  H17X 1857   4.524   4.150   7.971 -0.1104 -0.9724  0.3313
   14SAPS  H17Y 1858   4.598   4.272   8.077 -0.1106 -0.6908  0.5035
   14SAPS  C318 1859   4.688   4.077   8.106  0.2546  0.0465  0.5544
   14SAPS  H18X 1860   4.632   4.060   8.200  0.5146 -0.0721  0.6914
   14SAPS  H18Y 1861   4.791   4.111   8.132 -0.2741  2.6704 -0.5904
   14SAPS  H18Z 1862   4.708   3.982   8.052  0.3328 -0.3676  1.3110
   15SAPS     N 1863   5.684   4.137   5.637 -0.1877 -0.4188 -0.1300
   15SAPS   HN1 1864   5.679   4.085   5.727  1.3465  0.5117  0.5182
   15SAPS   HN2 1865   5.596   4.190   5.621  1.5262  2.6592  0.1994
   15SAPS   HN3 1866   5.707   4.063   5.569 -0.3708  1.4896 -2.3118
   15SAPS   C12 1867   5.805   4.233   5.635 -0.4450 -0.4365  0.3603
   15SAPS  H12A 1868   5.897   4.175   5.635 -0.6658 -0.8008  1.9525
   15SAPS   C13 1869   5.819   4.329   5.519  0.5665  0.5790  0.3214
   15SAPS  O13A 1870   5.719   4.347   5.446  0.0503  0.3065 -0.8196
   15SAPS  O13B 1871   5.918   4.401   5.517  0.4211  0.3968 -0.7791
   15SAPS   C11 1872   5.808   4.313   5.764  0.0039  0.1003  0.0883
   15SAPS  H11A 1873   5.722   4.383   5.753 -0.2399 -0.2625 -0.3123
   15SAPS  H11B 1874   5.900   4.375   5.774 -0.1904  0.2251  1.0966
   15SAPS     P 1875   5.757   4.310   6.023  0.6613 -0.3285 -0.0498
   15SAPS   O13 1876   5.857   4.253   6.114  0.0039  0.1869  0.0254
   15SAPS   O14 1877   5.766   4.456   6.007  0.0589 -0.7778 -0.4262
   15SAPS   O12 1878   5.774   4.239   5.881  0.1340  0.3588 -0.1320
   15SAPS   O11 1879   5.611   4.266   6.063 -0.2022 -0.2910  0.0196
   15SAPS    C1 1880   5.512   4.362   6.110  0.5247  0.0328 -0.4998
   15SAPS    HA 1881   5.526   4.464   6.068  0.1418  1.2258  2.1341
   15SAPS    HB 1882   5.414   4.314   6.088  0.8610 -0.7977 -0.2012
   15SAPS    C2 1883   5.523   4.400   6.264 -0.0126 -0.4427  0.0675
   15SAPS    HS 1884   5.437   4.464   6.293  1.0598  0.9837  0.1699
   15SAPS   O21 1885   5.642   4.473   6.296  0.1658 -0.1277  0.2886
   15SAPS   C21 1886   5.648   4.598   6.258  0.7380  0.1955  0.5609
   15SAPS   O22 1887   5.555   4.659   6.209 -0.4083 -0.1418  0.1494
   15SAPS   C22 1888   5.785   4.652   6.283 -0.3258 -1.2792 -0.2494
   15SAPS   H2R 1889   5.829   4.589   6.363  1.0769 -0.5526 -0.4248
   15SAPS   H2S 1890   5.839   4.637   6.187  1.1391  0.1222  0.3344
   15SAPS    C3 1891   5.508   4.272   6.350 -0.3444  0.2412 -0.8193
   15SAPS    HX 1892   5.594   4.210   6.317  0.9197  1.1670  0.6403
   15SAPS    HY 1893   5.410   4.227   6.325 -0.5729  1.0917 -1.4857
   15SAPS   O31 1894   5.506   4.301   6.497 -0.4066  0.4241 -0.2409
   15SAPS   C31 1895   5.611   4.298   6.565  0.6059  1.1420  0.1778
   15SAPS   O32 1896   5.726   4.276   6.520 -0.0564  0.5983  0.3675
   15SAPS   C32 1897   5.576   4.318   6.713  0.6850 -0.6346  0.4309
   15SAPS   H2X 1898   5.516   4.239   6.763  0.2211 -1.5299 -1.5020
   15SAPS   H2Y 1899   5.519   4.414   6.712  0.9203 -0.4949 -0.1078
   15SAPS   C23 1900   5.793   4.796   6.333 -0.7245 -0.0354 -0.5345
   15SAPS   H3R 1901   5.774   4.868   6.251 -1.4047 -1.0026 -1.2338
   15SAPS   H3S 1902   5.899   4.808   6.362 -0.4529 -2.2111 -0.5250
   15SAPS   C24 1903   5.710   4.829   6.454  0.5987 -0.1761 -0.1669
   15SAPS   H4R 1904   5.602   4.832   6.426  0.2141 -2.2816  1.0008
   15SAPS   H4S 1905   5.742   4.932   6.479  0.7944  0.4298 -2.7391
   15SAPS   C25 1906   5.727   4.740   6.578 -0.4031 -0.8838 -0.4619
   15SAPS   H5R 1907   5.698   4.634   6.567  0.5442 -1.2170  0.1523
   15SAPS   C26 1908   5.781   4.780   6.691 -0.3612  0.5959 -0.0719
   15SAPS   H6R 1909   5.794   4.705   6.771 -1.2514  0.9027  0.3671
   15SAPS   C27 1910   5.837   4.921   6.733 -0.0819  0.3747 -0.0748
   15SAPS   H7R 1911   5.763   4.971   6.799  0.6220  1.8426 -0.3950
   15SAPS   H7S 1912   5.840   4.991   6.647  0.8775 -1.5780 -1.6823
   15SAPS   C28 1913   5.971   4.908   6.796  0.1778 -0.4389 -0.2729
   15SAPS   H8R 1914   6.059   4.907   6.730 -1.6047 -0.0957 -2.7268
   15SAPS   C29 1915   5.989   4.885   6.926  0.1160 -0.2153  0.9970
   15SAPS   H9R 1916   6.091   4.873   6.964 -0.0292  1.0906  1.8372
   15SAPS  C210 1917   5.889   4.869   7.039 -0.1086 -0.5492  0.0376
   15SAPS  H10R 1918   5.888   4.773   7.094 -2.4673 -0.1970  0.6611
   15SAPS  H10S 1919   5.785   4.869   7.001 -0.0048  0.7257 -0.2914
   15SAPS  C211 1920   5.885   4.985   7.136  0.2272 -0.4956 -0.7437
   15SAPS  H11R 1921   5.921   5.081   7.097  0.7460  0.2404  1.4614
   15SAPS  C212 1922   5.822   4.983   7.257  0.0956  0.3114 -0.1397
   15SAPS  H12R 1923   5.814   5.080   7.308  1.7680 -0.0389  0.8596
   15SAPS  C213 1924   5.751   4.863   7.318 -0.5250  0.6372  0.1479
   15SAPS  H13R 1925   5.686   4.806   7.247 -0.3303 -1.9882  1.9914
   15SAPS  H13S 1926   5.679   4.901   7.393 -1.8931  0.7927 -1.2192
   15SAPS  C214 1927   5.851   4.767   7.379 -0.1985 -0.1879  0.4562
   15SAPS  H14R 1928   5.915   4.715   7.306 -0.4073  0.0097  0.1353
   15SAPS  C215 1929   5.875   4.746   7.508 -0.6420  0.0447  0.9564
   15SAPS  H15R 1930   5.955   4.678   7.540 -0.6000  0.7204  2.2885
   15SAPS  C216 1931   5.814   4.812   7.630 -0.8995 -0.1747  0.3116
   15SAPS  H16R 1932   5.739   4.893   7.618  1.7237  2.3798  0.6960
   15SAPS  H16S 1933   5.886   4.865   7.696 -2.2065 -1.9180  3.1991
   15SAPS  C217 1934   5.741   4.712   7.718  0.4513  0.1823 -0.6445
   15SAPS  H17R 1935   5.799   4.627   7.759 -0.1201 -0.0443 -0.2942
   15SAPS  H17S 1936   5.648   4.679   7.666 -0.2350  1.9029 -0.5308
   15SAPS  C218 1937   5.670   4.784   7.835  0.8128  0.9170 -0.1746
   15SAPS  H18R 1938   5.597   4.859   7.798  2.4804  2.0093 -1.3169
   15SAPS  H18S 1939   5.750   4.835   7.894  1.3306  0.9047 -0.8609
   15SAPS  C219 1940   5.588   4.671   7.909 -0.0142 -0.3789  0.0365
   15SAPS  H19R 1941   5.665   4.595   7.935 -0.1104 -1.3536 -2.3700
   15SAPS  H19S 1942   5.519   4.610   7.846 -0.4923 -0.0987  0.2861
   15SAPS  C220 1943   5.516   4.703   8.027 -0.3358 -0.5105  0.1833
   15SAPS  H20R 1944   5.592   4.743   8.097 -0.4879  0.9009 -0.4432
   15SAPS  H20S 1945   5.466   4.618   8.078  0.6540 -1.7168 -0.8457
   15SAPS  H20T 1946   5.434   4.768   7.990 -1.3311 -2.6863 -1.5589
   15SAPS   C33 1947   5.698   4.336   6.805  0.4908 -0.0073  1.1864
   15SAPS   H3X 1948   5.768   4.408   6.757 -1.5042  1.6967  0.7792
   15SAPS   H3Y 1949   5.755   4.242   6.821 -0.3741 -0.5864  0.8867
   15SAPS   C34 1950   5.650   4.395   6.934 -0.1237 -0.2084 -0.1025
   15SAPS   H4X 1951   5.595   4.491   6.927 -2.3399 -1.3115  1.6009
   15SAPS   H4Y 1952   5.745   4.409   6.991 -0.3066  2.8441 -0.4533
   15SAPS   C35 1953   5.572   4.301   7.028 -1.0728  0.0909  0.2794
   15SAPS   H5X 1954   5.633   4.211   7.049  0.6170  1.1556 -0.0490
   15SAPS   H5Y 1955   5.483   4.255   6.979 -0.7185 -1.1679  0.8003
   15SAPS   C36 1956   5.531   4.376   7.153 -0.7904 -0.4148 -0.2183
   15SAPS   H6X 1957   5.439   4.332   7.197 -0.4026  0.9318  2.0186
   15SAPS   H6Y 1958   5.506   4.482   7.128  4.1177  1.4096  2.0066
   15SAPS   C37 1959   5.637   4.370   7.265 -0.4599  0.0957  0.5829
   15SAPS   H7X 1960   5.711   4.452   7.259  0.6354 -0.8806  0.6741
   15SAPS   H7Y 1961   5.681   4.269   7.277  3.0651  1.0497 -3.2353
   15SAPS   C38 1962   5.562   4.392   7.391  0.0728  0.0583 -1.1109
   15SAPS   H8X 1963   5.476   4.323   7.397  1.6612 -1.8368  0.4186
   15SAPS   H8Y 1964   5.520   4.495   7.393  0.8075  0.3431  0.0706
   15SAPS   C39 1965   5.655   4.368   7.510 -0.4818  0.1864  0.2729
   15SAPS   H9X 1966   5.703   4.463   7.543 -0.0328  0.2562 -0.5698
   15SAPS   H9Y 1967   5.735   4.294   7.486  0.6219  1.0894  1.1268
   15SAPS  C310 1968   5.576   4.310   7.633  0.5610 -0.6172  0.2085
   15SAPS  H10X 1969   5.523   4.222   7.591 -1.0116  0.8035 -0.8545
   15SAPS  H10Y 1970   5.499   4.387   7.650 -0.1726 -0.9480 -1.4825
   15SAPS  C311 1971   5.658   4.281   7.750  0.1418 -0.5480  0.0326
   15SAPS  H11X 1972   5.743   4.352   7.751 -2.0151  2.1154 -0.5641
   15SAPS  H11Y 1973   5.696   4.178   7.731  0.3209 -0.3990 -0.4284
   15SAPS  C312 1974   5.579   4.287   7.881 -0.5728 -0.4485 -0.1374
   15SAPS  H12X 1975   5.492   4.219   7.870  0.8978 -2.4317  0.2194
   15SAPS  H12Y 1976   5.542   4.392   7.890 -2.2580 -0.8943 -1.5321
   15SAPS  C313 1977   5.663   4.260   8.010 -0.1511  0.6061  0.3059
   15SAPS  H13X 1978   5.745   4.334   7.994 -1.1514  1.4178 -1.2177
   15SAPS  H13Y 1979   5.703   4.157   7.999 -1.7462  0.2792 -2.8779
   15SAPS  C314 1980   5.609   4.296   8.148 -0.2246  0.5054 -0.3566
   15SAPS  H14X 1981   5.534   4.218   8.175 -0.2607  0.3282 -0.9498
   15SAPS  H14Y 1982   5.541   4.383   8.144 -1.6960 -0.4979  1.7935
   15SAPS  C315 1983   5.723   4.334   8.247  0.3377 -0.0060  0.9720
   15SAPS  H15X 1984   5.806   4.385   8.194 -0.9092  2.1824  1.0814
   15SAPS  H15Y 1985   5.757   4.234   8.283 -0.1875 -0.9696 -1.0765
   15SAPS  C316 1986   5.686   4.424   8.368  0.3280  0.1718  0.0235
   15SAPS  H16X 1987   5.588   4.391   8.410 -0.3623 -0.9578 -2.3653
   15SAPS  H16Y 1988   5.663   4.529   8.341  1.5214  0.5145  0.3095
   15SAPS  C317 1989   5.796   4.419   8.476 -0.0430 -0.3063 -0.5381
   15SAPS  H17X 1990   5.840   4.318   8.492  0.6198 -0.0848 -0.9280
   15SAPS  H17Y 1991   5.749   4.442   8.574 -0.3547  0.3062 -0.8319
   15SAPS  C318 1992   5.915   4.516   8.462  0.7615 -0.4615 -0.4747
   15SAPS  H18X 1993   5.895   4.623   8.483 -0.3817 -1.0276  1.4022
   15SAPS  H18Y 1994   5.960   4.501   8.362  0.4495 -0.1670 -0.6613
   15SAPS  H18Z 1995   5.994   4.479   8.530 -0.8786  0.0103  1.7486
   16SAPS     N 1996   0.467   6.221   6.367  0.6926 -0.1172  0.5147
   16SAPS   HN1 1997   0.385   6.218   6.304  2.1379  0.0544 -1.4098
   16SAPS   HN2 1998   0.445   6.189   6.464 -0.8707 -0.9193 -0.0853
   16SAPS   HN3 1999   0.486   6.323   6.362 -2.1419  0.3929 -0.8246
   16SAPS   C12 2000   0.568   6.141   6.300 -0.0487  0.0716 -0.5208
   16SAPS  H12A 2001   0.558   6.044   6.347  0.3022  0.6314  0.7470
   16SAPS   C13 2002   0.576   6.135   6.150 -0.1267 -0.6302  0.2183
   16SAPS  O13A 2003   0.493   6.199   6.084  0.3211  0.0239 -0.3580
   16SAPS  O13B 2004   0.645   6.043   6.097 -0.0474 -0.2998 -0.6659
   16SAPS   C11 2005   0.703   6.203   6.345 -0.2376 -0.2843  0.1093
   16SAPS  H11A 2006   0.705   6.309   6.313  0.6160 -0.4438 -0.3899
   16SAPS  H11B 2007   0.783   6.142   6.296  1.2925  1.5155  0.3137
   16SAPS     P 2008   0.858   6.228   6.554  0.1440  0.2642 -0.1266
   16SAPS   O13 2009   0.903   6.102   6.618 -0.3356  0.6437 -0.0393
   16SAPS   O14 2010   0.946   6.275   6.442 -0.3956  0.0336  0.7562
   16SAPS   O12 2011   0.712   6.201   6.488  0.3284 -1.1359  0.3757
   16SAPS   O11 2012   0.837   6.347   6.647  0.1995  0.3776 -0.1518
   16SAPS    C1 2013   0.738   6.447   6.619  0.3614  0.9899 -0.4451
   16SAPS    HA 2014   0.749   6.496   6.520  2.6177  0.2150 -0.6136
   16SAPS    HB 2015   0.638   6.399   6.626  0.7088  0.3369  0.1384
   16SAPS    C2 2016   0.742   6.557   6.731  0.5619  0.4616  0.4427
   16SAPS    HS 2017   0.833   6.621   6.723  0.4890  0.4506 -0.4248
   16SAPS   O21 2018   0.739   6.490   6.861  0.2191  0.2911 -0.2951
   16SAPS   C21 2019   0.805   6.555   6.955 -0.4193 -0.9784  0.2053
   16SAPS   O22 2020   0.882   6.648   6.947 -0.3750 -0.1719  0.3695
   16SAPS   C22 2021   0.788   6.463   7.076  0.4118 -0.7600  0.3777
   16SAPS   H2R 2022   0.711   6.386   7.056  0.3193 -0.2769 -1.1814
   16SAPS   H2S 2023   0.889   6.426   7.102  1.2883 -0.0677 -1.9285
   16SAPS    C3 2024   0.615   6.652   6.730 -0.1612 -0.6473 -0.3024
   16SAPS    HX 2025   0.520   6.595   6.726  0.5380 -1.6964 -2.2612
   16SAPS    HY 2026   0.613   6.700   6.630 -4.0848 -2.9009 -1.4112
   16SAPS   O31 2027   0.608   6.736   6.844  0.0109 -0.1906 -0.8080
   16SAPS   C31 2028   0.611   6.869   6.820 -0.3833 -1.0917  0.5069
   16SAPS   O32 2029   0.608   6.920   6.711  0.6158 -0.3151  0.1020
   16SAPS   C32 2030   0.614   6.935   6.953  0.4614 -0.1982  0.3391
   16SAPS   H2X 2031   0.714   6.921   6.998  0.2253 -0.5697  0.7512
   16SAPS   H2Y 2032   0.546   6.879   7.020 -3.0080  1.7349 -1.4399
   16SAPS   C23 2033   0.748   6.545   7.200  0.4780  0.0215 -0.5839
   16SAPS   H3R 2034   0.647   6.589   7.190 -0.6506 -2.3614 -0.0220
   16SAPS   H3S 2035   0.822   6.627   7.212  1.6840 -0.6013 -3.3871
   16SAPS   C24 2036   0.740   6.463   7.335 -0.2775 -0.5015 -0.9224
   16SAPS   H4R 2037   0.746   6.532   7.422  0.2721 -0.9868 -0.5703
   16SAPS   H4S 2038   0.827   6.394   7.341  0.2974  0.2446 -0.5108
   16SAPS   C25 2039   0.607   6.386   7.342  0.0435 -0.3829 -0.2392
   16SAPS   H5R 2040   0.560   6.345   7.251 -0.5967 -2.5238  1.0202
   16SAPS   C26 2041   0.530   6.394   7.451  0.7822  0.1966 -0.1738
   16SAPS   H6R 2042   0.433   6.341   7.449  0.1309  1.3991 -3.2699
   16SAPS   C27 2043   0.541   6.484   7.574 -0.1907  0.4009  0.2094
   16SAPS   H7R 2044   0.649   6.486   7.598  0.3227 -0.4041 -1.9487
   16SAPS   H7S 2045   0.466   6.448   7.649 -1.5199  0.2155 -1.1846
   16SAPS   C28 2046   0.500   6.624   7.543 -0.0756 -0.2231 -0.3565
   16SAPS   H8R 2047   0.492   6.650   7.437  2.6450 -0.8355 -0.7605
   16SAPS   C29 2048   0.492   6.715   7.637  0.0217  0.5250  0.2883
   16SAPS   H9R 2049   0.437   6.807   7.612  0.1803  0.7271  0.6783
   16SAPS  C210 2050   0.517   6.705   7.788  0.4165 -0.4958  0.3454
   16SAPS  H10R 2051   0.582   6.787   7.824 -0.3211  0.7486 -1.1126
   16SAPS  H10S 2052   0.563   6.606   7.811 -0.8812 -1.1772  0.0625
   16SAPS  C211 2053   0.379   6.701   7.852 -0.1854  0.2292  0.0194
   16SAPS  H11R 2054   0.307   6.646   7.789  0.1257 -0.4585  0.2531
   16SAPS  C212 2055   0.339   6.744   7.969 -0.6864  0.1705 -0.6580
   16SAPS  H12R 2056   0.240   6.713   8.003 -0.4177 -1.2484 -1.1220
   16SAPS  C213 2057   0.429   6.813   8.073 -0.8453 -0.3621 -0.1371
   16SAPS  H13R 2058   0.371   6.897   8.116  1.7379  2.0234 -1.2058
   16SAPS  H13S 2059   0.524   6.856   8.036 -0.8205 -1.6406 -1.6417
   16SAPS  C214 2060   0.464   6.732   8.192  0.5817 -0.1423  0.4026
   16SAPS  H14R 2061   0.374   6.693   8.241 -0.5003 -0.3693 -1.6876
   16SAPS  C215 2062   0.582   6.709   8.249  0.0993 -0.1446 -0.7032
   16SAPS  H15R 2063   0.570   6.640   8.334 -0.7210 -1.2183 -1.6752
   16SAPS  C216 2064   0.718   6.749   8.209 -0.4665 -0.0715  0.5952
   16SAPS  H16R 2065   0.738   6.848   8.255  0.4647  0.8339 -1.6279
   16SAPS  H16S 2066   0.730   6.751   8.098  0.4367 -3.2156  0.5754
   16SAPS  C217 2067   0.834   6.658   8.266  0.4424 -0.2295 -0.6057
   16SAPS  H17R 2068   0.922   6.705   8.217  0.6706 -1.5511 -1.4800
   16SAPS  H17S 2069   0.825   6.558   8.220  3.2800 -0.3363 -1.0375
   16SAPS  C218 2070   0.852   6.657   8.417  0.3222  0.3485  0.3984
   16SAPS  H18R 2071   0.751   6.626   8.452  0.7270 -0.7702  0.5770
   16SAPS  H18S 2072   0.876   6.762   8.443  3.2679 -0.3119  0.4492
   16SAPS  C219 2073   0.958   6.564   8.475 -0.4486  0.2011  0.7275
   16SAPS  H19R 2074   1.055   6.582   8.424 -1.8445 -0.9868 -2.5026
   16SAPS  H19S 2075   0.932   6.460   8.447 -2.0212  1.5941 -3.5387
   16SAPS  C220 2076   0.994   6.588   8.622  0.2088  1.1243  0.7119
   16SAPS  H20R 2077   1.097   6.549   8.635 -0.3137 -0.2881  0.6946
   16SAPS  H20S 2078   0.915   6.542   8.685  0.2975 -0.2467 -0.1660
   16SAPS  H20T 2079   0.994   6.697   8.644 -1.5225  1.1331  0.7690
   16SAPS   C33 2080   0.587   7.080   6.942 -0.2062  0.5729  0.0526
   16SAPS   H3X 2081   0.513   7.114   6.867 -0.5192 -0.5256 -0.1525
   16SAPS   H3Y 2082   0.684   7.126   6.914 -0.4076  0.2045 -1.2996
   16SAPS   C34 2083   0.537   7.127   7.081 -0.0332  0.3476  0.0108
   16SAPS   H4X 2084   0.442   7.079   7.112 -0.8491  0.5453 -2.0830
   16SAPS   H4Y 2085   0.523   7.237   7.075  0.7404  0.4588  0.1463
   16SAPS   C35 2086   0.641   7.102   7.196 -0.6755 -0.3842 -0.1143
   16SAPS   H5X 2087   0.733   7.155   7.162 -0.5438  0.1958  1.1114
   16SAPS   H5Y 2088   0.658   6.993   7.213  1.4675  0.1825  1.6739
   16SAPS   C36 2089   0.601   7.167   7.329  0.0020 -0.7142  0.0870
   16SAPS   H6X 2090   0.580   7.275   7.314  0.5839 -0.3171  2.0228
   16SAPS   H6Y 2091   0.700   7.156   7.378 -0.3793 -2.4997  0.4929
   16SAPS   C37 2092   0.492   7.099   7.408 -0.4288  0.5580  0.1876
   16SAPS   H7X 2093   0.508   6.991   7.426 -2.0955  0.0456 -1.2206
   16SAPS   H7Y 2094   0.398   7.101   7.348 -0.2594 -1.7453 -0.1889
   16SAPS   C38 2095   0.470   7.170   7.542 -0.5218  0.1396  0.5878
   16SAPS   H8X 2096   0.422   7.269   7.529  0.5548  1.0045  2.9920
   16SAPS   H8Y 2097   0.568   7.194   7.589 -0.4919 -0.6516  0.9365
   16SAPS   C39 2098   0.395   7.084   7.650 -0.2554 -0.2225  0.2366
   16SAPS   H9X 2099   0.466   7.025   7.712 -1.9908  0.1279  2.6462
   16SAPS   H9Y 2100   0.314   7.028   7.598  0.5230  0.5183 -1.8006
   16SAPS  C310 2101   0.337   7.184   7.753 -0.1228 -0.3594  0.1541
   16SAPS  H10X 2102   0.262   7.251   7.706  0.6796  1.0879  0.8648
   16SAPS  H10Y 2103   0.419   7.247   7.794  0.3478 -0.7372 -0.2090
   16SAPS  C311 2104   0.258   7.114   7.872  0.6009  0.2175 -0.5202
   16SAPS  H11X 2105   0.331   7.061   7.937  1.7723  0.8902 -1.2727
   16SAPS  H11Y 2106   0.196   7.035   7.824 -0.3799  0.4374  0.3819
   16SAPS  C312 2107   0.169   7.208   7.963 -0.0698  0.0135 -0.0079
   16SAPS  H12X 2108   0.209   7.310   7.979  0.5187  0.0065 -1.4319
   16SAPS  H12Y 2109   0.168   7.157   8.061  0.6169 -2.8003 -1.4285
   16SAPS  C313 2110   0.030   7.231   7.907 -0.5049  0.7148  0.0391
   16SAPS  H13X 2111  -0.036   7.148   7.940 -1.0616  1.6551  1.3464
   16SAPS  H13Y 2112   0.039   7.237   7.797 -0.0557 -1.0450 -0.0386
   16SAPS  C314 2113  -0.032   7.354   7.966 -0.0289 -0.2877  0.5384
   16SAPS  H14X 2114  -0.127   7.382   7.915 -1.7081 -3.1688  1.9027
   16SAPS  H14Y 2115   0.043   7.436   7.959  0.0051 -0.5565 -3.6865
   16SAPS  C315 2116  -0.087   7.343   8.118 -0.3800  0.7403  0.4096
   16SAPS  H15X 2117  -0.091   7.447   8.159 -2.4223  0.4985  0.8506
   16SAPS  H15Y 2118  -0.021   7.281   8.182 -1.6821 -2.3283 -1.1472
   16SAPS  C316 2119  -0.227   7.287   8.120  0.4197  0.0459 -0.8313
   16SAPS  H16X 2120  -0.221   7.176   8.115 -0.9557 -0.0735 -0.1620
   16SAPS  H16Y 2121  -0.282   7.316   8.028 -1.5030  3.0678  1.1792
   16SAPS  C317 2122  -0.314   7.335   8.244  0.0473 -0.4986  1.0695
   16SAPS  H17X 2123  -0.309   7.445   8.265 -0.1067  0.0138 -1.4477
   16SAPS  H17Y 2124  -0.261   7.289   8.330  1.9493  0.6197  0.5296
   16SAPS  C318 2125  -0.456   7.285   8.238 -0.0978  0.6626 -0.7704
   16SAPS  H18X 2126  -0.461   7.180   8.201 -0.4417 -0.0563  1.2498
   16SAPS  H18Y 2127  -0.509   7.349   8.164 -2.4911  1.4990  1.6140
   16SAPS  H18Z 2128  -0.505   7.289   8.337  2.0717 -4.1677  0.6591
   17SAPC     N 2129   4.538   2.462  10.435 -0.2557  0.0840 -0.2774
   17SAPC   C12 2130   4.520   2.308  10.447 -0.1413  0.0943  0.6676
   17SAPC  H12A 2131   4.494   2.276  10.348  1.1297 -0.6259  0.5472
   17SAPC  H12B 2132   4.424   2.296  10.494 -1.1186 -0.3490 -1.3791
   17SAPC   C13 2133   4.549   2.520  10.574  0.1916  0.4917 -0.4803
   17SAPC  H13A 2134   4.455   2.511  10.626 -0.1383 -1.3946 -1.3158
   17SAPC  H13B 2135   4.633   2.479  10.628 -0.1157  0.3783 -0.0891
   17SAPC  H13C 2136   4.565   2.626  10.563 -1.8605  0.9839  1.0877
   17SAPC   C14 2137   4.650   2.514  10.357  0.5985  0.5333  0.3388
   17SAPC  H14A 2138   4.680   2.452  10.273  2.3555  3.0334 -0.9567
   17SAPC  H14B 2139   4.631   2.617  10.329 -1.5336 -0.8157 -3.4634
   17SAPC  H14C 2140   4.737   2.519  10.420  1.3739  3.2593 -0.8689
   17SAPC   C15 2141   4.413   2.524  10.373 -0.1525  0.3000 -0.3845
   17SAPC  H15A 2142   4.317   2.489  10.408  0.3864  0.8136  1.6969
   17SAPC  H15B 2143   4.424   2.631  10.387  2.4280  0.1300 -0.7442
   17SAPC  H15C 2144   4.404   2.507  10.267  0.1904  1.9357 -0.6985
   17SAPC   C11 2145   4.636   2.219  10.496  0.0750 -0.4583 -0.5825
   17SAPC  H11A 2146   4.599   2.114  10.501  0.6483 -0.6812 -1.0715
   17SAPC  H11B 2147   4.646   2.244  10.604  0.9985 -0.5850 -0.6368
   17SAPC     P 2148   4.779   2.173  10.287  0.1042 -0.1873  0.1790
   17SAPC   O13 2149   4.713   2.256  10.187  0.3363 -0.1821  1.0446
   17SAPC   O14 2150   4.925   2.152  10.271 -0.0756 -0.8842  0.3402
   17SAPC   O12 2151   4.758   2.238  10.427 -0.2288  0.1246  0.3398
   17SAPC   O11 2152   4.710   2.030  10.300 -0.1801  0.6531 -0.4248
   17SAPC    C1 2153   4.677   1.967  10.180 -0.4662  0.0283 -0.1533
   17SAPC    HA 2154   4.579   2.009  10.148 -0.3681 -0.2823 -0.8622
   17SAPC    HB 2155   4.764   1.973  10.112 -0.0685  1.1613  0.4339
   17SAPC    C2 2156   4.657   1.819  10.205  1.0360  0.1035  0.3893
   17SAPC    HS 2157   4.594   1.807  10.296 -1.0336 -2.0049 -1.2642
   17SAPC   O21 2158   4.789   1.759  10.228  0.2223 -0.5470 -0.0891
   17SAPC   C21 2159   4.779   1.635  10.272 -0.2954  0.0505  0.4336
   17SAPC   O22 2160   4.682   1.569  10.292  0.1370 -0.0761  0.3200
   17SAPC   C22 2161   4.916   1.566  10.282  0.5386  0.3284  0.1336
   17SAPC   H2R 2162   4.910   1.513  10.380  0.4359 -3.1825 -1.7170
   17SAPC   H2S 2163   4.903   1.492  10.200 -0.3111  0.0232  0.5302
   17SAPC    C3 2164   4.578   1.761  10.085  0.6854  0.4634 -0.7148
   17SAPC    HX 2165   4.551   1.655  10.105 -1.0353  0.4626 -2.8462
   17SAPC    HY 2166   4.656   1.756  10.006  2.1322 -0.6839  0.7619
   17SAPC   O31 2167   4.459   1.834  10.047 -0.2731 -0.0742  0.9929
   17SAPC   C31 2168   4.348   1.803  10.099 -0.3162  0.5361  0.0944
   17SAPC   O32 2169   4.329   1.710  10.174 -0.2667  0.0692  0.4571
   17SAPC   C32 2170   4.243   1.905  10.066 -0.7282 -0.0257 -0.0471
   17SAPC   H2X 2171   4.279   2.002  10.104 -0.9239  0.5264 -1.2571
   17SAPC   H2Y 2172   4.159   1.858  10.124 -1.6683  2.1020  0.3539
   17SAPC   C23 2173   5.039   1.667  10.275  0.3984  0.4956 -0.2633
   17SAPC   H3R 2174   5.131   1.610  10.303 -0.5389 -0.1571  1.6441
   17SAPC   H3S 2175   5.014   1.744  10.351 -0.6911 -0.4519  0.3667
   17SAPC   C24 2176   5.075   1.731  10.136  0.6552 -0.4996  0.0946
   17SAPC   H4R 2177   5.168   1.791  10.136  1.4152 -1.6492 -0.1737
   17SAPC   H4S 2178   4.987   1.797  10.122  1.0161 -0.0898 -0.2445
   17SAPC   C25 2179   5.084   1.622  10.031  0.0072  0.3474 -0.0936
   17SAPC   H5R 2180   5.145   1.537  10.065 -0.5742  0.5743  1.5653
   17SAPC   C26 2181   5.020   1.622   9.903 -0.2113  0.0719 -0.5787
   17SAPC   H6R 2182   5.043   1.541   9.832  1.6711 -1.3621  1.5996
   17SAPC   C27 2183   4.938   1.738   9.848  0.6285  0.1984 -0.0961
   17SAPC   H7R 2184   5.024   1.796   9.808  1.0779 -1.1273 -1.0998
   17SAPC   H7S 2185   4.896   1.807   9.924 -3.0395 -1.9451 -0.0876
   17SAPC   C28 2186   4.831   1.707   9.746  0.8441  0.3490 -0.2753
   17SAPC   H8R 2187   4.737   1.683   9.798 -0.2833  1.0610 -1.9534
   17SAPC   C29 2188   4.839   1.710   9.615  0.3806  0.0605  0.2368
   17SAPC   H9R 2189   4.747   1.688   9.558  0.8766 -1.5316  0.0129
   17SAPC  C210 2190   4.962   1.750   9.532 -0.1906 -0.6556 -0.6970
   17SAPC  H10R 2191   4.991   1.674   9.457  1.4816 -2.2663  1.5075
   17SAPC  H10S 2192   5.056   1.776   9.586  0.9832 -0.4084 -2.8241
   17SAPC  C211 2193   4.910   1.877   9.474 -0.1500  0.3581 -0.1531
   17SAPC  H11R 2194   4.898   1.955   9.551  1.7985 -1.4174  2.0453
   17SAPC  C212 2195   4.888   1.911   9.345 -0.2653 -0.5881  0.5153
   17SAPC  H12R 2196   4.840   2.006   9.320  0.2497 -0.2489  0.8091
   17SAPC  C213 2197   4.910   1.820   9.226 -0.1531 -0.7846  0.7766
   17SAPC  H13R 2198   4.913   1.714   9.260  0.9513 -0.9198  0.2788
   17SAPC  H13S 2199   5.013   1.842   9.191 -0.3965 -0.3561  0.3210
   17SAPC  C214 2200   4.812   1.842   9.115 -0.3734 -0.3168  0.3641
   17SAPC  H14R 2201   4.717   1.792   9.136 -0.4794  0.7988  2.7500
   17SAPC  C215 2202   4.825   1.916   9.004 -0.4469 -0.2562  0.2550
   17SAPC  H15R 2203   4.738   1.923   8.937 -0.0429  0.8299 -0.1628
   17SAPC  C216 2204   4.953   1.991   8.957  0.1459 -0.4547  0.4932
   17SAPC  H16R 2205   5.033   1.921   8.924  1.2092  1.7872 -1.8067
   17SAPC  H16S 2206   4.987   2.053   9.042  0.7313  1.0657 -0.8361
   17SAPC  C217 2207   4.926   2.082   8.829 -1.0708  0.3097  0.3919
   17SAPC  H17R 2208   4.875   2.018   8.753  0.3162 -0.6379  0.2331
   17SAPC  H17S 2209   5.017   2.127   8.784 -0.2988 -1.7866 -0.2064
   17SAPC  C218 2210   4.826   2.193   8.862 -0.9356  0.5262 -0.7987
   17SAPC  H18R 2211   4.815   2.201   8.972  0.7909 -0.0050 -0.5590
   17SAPC  H18S 2212   4.727   2.157   8.828  0.3927 -1.8937 -2.3172
   17SAPC  C219 2213   4.861   2.325   8.784 -0.1827  0.3519 -0.8321
   17SAPC  H19R 2214   4.957   2.368   8.821  0.7193 -1.6906 -0.7264
   17SAPC  H19S 2215   4.783   2.398   8.815 -1.8300 -1.6040 -0.2188
   17SAPC  C220 2216   4.856   2.319   8.632 -0.2313 -0.8569 -0.3368
   17SAPC  H20R 2217   4.759   2.281   8.593  0.0151  1.0124 -2.9029
   17SAPC  H20S 2218   4.933   2.245   8.603  2.0283  0.9401  0.8641
   17SAPC  H20T 2219   4.867   2.418   8.584 -0.6105 -0.2423  0.8292
   17SAPC   C33 2220   4.220   1.928   9.919  0.0624 -0.2814 -0.4654
   17SAPC   H3X 2221   4.220   1.836   9.856 -1.0248 -0.3111 -0.4371
   17SAPC   H3Y 2222   4.307   1.986   9.882 -0.6623  1.1522  0.0269
   17SAPC   C34 2223   4.097   2.010   9.900  0.8206  0.6782 -0.1676
   17SAPC   H4X 2224   4.101   2.113   9.941  0.1515  2.0808 -3.4070
   17SAPC   H4Y 2225   4.017   1.953   9.951  2.0350 -1.3325 -0.4710
   17SAPC   C35 2226   4.057   2.022   9.751  0.0911 -0.4181  0.2806
   17SAPC   H5X 2227   3.972   2.093   9.741  1.5838  1.4205  0.2845
   17SAPC   H5Y 2228   4.014   1.925   9.719 -2.5758  0.1931  1.8902
   17SAPC   C36 2229   4.173   2.059   9.650 -0.6852 -0.5731 -0.6128
   17SAPC   H6X 2230   4.255   1.987   9.674 -0.7001 -0.1799  0.6740
   17SAPC   H6Y 2231   4.201   2.165   9.666  0.3904 -0.8648 -0.5265
   17SAPC   C37 2232   4.139   2.035   9.507 -0.5693  0.3570  0.2034
   17SAPC   H7X 2233   4.182   2.107   9.435  1.6309  0.7749  1.8813
   17SAPC   H7Y 2234   4.029   2.040   9.495 -0.4964 -0.8274 -1.1489
   17SAPC   C38 2235   4.172   1.889   9.475  0.2509 -0.8888 -0.0324
   17SAPC   H8X 2236   4.124   1.825   9.552 -0.8799  0.5474  0.4913
   17SAPC   H8Y 2237   4.279   1.862   9.478  1.4836  3.4481 -1.5006
   17SAPC   C39 2238   4.113   1.834   9.341  0.4829  0.3679  0.0298
   17SAPC   H9X 2239   4.014   1.881   9.326  1.3139  2.5308  1.1140
   17SAPC   H9Y 2240   4.098   1.725   9.354 -1.7478  0.1040 -3.9223
   17SAPC  C310 2241   4.203   1.872   9.221  0.3279  0.0734  0.7953
   17SAPC  H10X 2242   4.303   1.824   9.219  0.1104 -0.4744  2.4835
   17SAPC  H10Y 2243   4.221   1.981   9.212 -0.5536  0.2237  0.8012
   17SAPC  C311 2244   4.131   1.853   9.084  0.1394  0.5315  0.4905
   17SAPC  H11X 2245   4.037   1.913   9.086 -0.8022 -0.8835  3.7196
   17SAPC  H11Y 2246   4.092   1.748   9.080 -1.7042  1.1399  1.6478
   17SAPC  C312 2247   4.212   1.895   8.963 -0.2557 -0.3433  0.3290
   17SAPC  H12X 2248   4.253   1.996   8.984  1.3112 -1.0070  0.5118
   17SAPC  H12Y 2249   4.145   1.923   8.879 -1.3712  1.2950  1.7213
   17SAPC  C313 2250   4.318   1.796   8.921  0.3346  0.2862  0.2198
   17SAPC  H13X 2251   4.279   1.709   8.866  1.4546  0.7310 -1.3254
   17SAPC  H13Y 2252   4.388   1.760   9.000 -1.4035 -2.5551  0.5068
   17SAPC  C314 2253   4.427   1.868   8.831 -0.5121  0.1187  0.4496
   17SAPC  H14X 2254   4.470   1.951   8.892 -1.7375  0.5007  0.8241
   17SAPC  H14Y 2255   4.388   1.916   8.739  0.1466  1.6658  0.9580
   17SAPC  C315 2256   4.537   1.777   8.781 -0.3483  0.1654  0.0764
   17SAPC  H15X 2257   4.498   1.698   8.713 -0.8543 -2.1973  3.0478
   17SAPC  H15Y 2258   4.587   1.729   8.868  0.4525  1.7659  0.5273
   17SAPC  C316 2259   4.640   1.859   8.700 -0.6837  0.2840 -0.2867
   17SAPC  H16X 2260   4.736   1.803   8.698 -0.2141  1.0448  0.6462
   17SAPC  H16Y 2261   4.651   1.956   8.752  1.4667  0.2884 -0.6912
   17SAPC  C317 2262   4.614   1.884   8.553  0.0190 -0.4791 -0.0689
   17SAPC  H17X 2263   4.508   1.907   8.532 -0.1519  0.4096  1.7087
   17SAPC  H17Y 2264   4.639   1.794   8.492 -4.0464 -1.5892 -0.2621
   17SAPC  C318 2265   4.693   2.003   8.498 -0.1270  0.0923  0.0567
   17SAPC  H18X 2266   4.798   1.991   8.533 -0.9265 -0.8785  2.2471
   17SAPC  H18Y 2267   4.669   2.007   8.389 -1.2486  0.2104  0.3009
   17SAPC  H18Z 2268   4.654   2.099   8.538 -4.0257 -1.6210  0.5637
   18SAPC     N 2269   5.590   1.879  10.552 -0.3533  0.1279  1.4220
   18SAPC   C12 2270   5.649   1.745  10.592 -0.7465 -0.1310 -0.6464
   18SAPC  H12A 2271   5.679   1.759  10.695  0.6542  0.8490 -1.1641
   18SAPC  H12B 2272   5.740   1.734  10.534  0.2998 -1.2862  1.1479
   18SAPC   C13 2273   5.691   1.981  10.591  0.4267  0.0073 -0.2576
   18SAPC  H13A 2274   5.717   1.962  10.694  1.0330 -3.4029 -0.9907
   18SAPC  H13B 2275   5.773   1.971  10.521  1.8102  2.6455  0.8876
   18SAPC  H13C 2276   5.649   2.080  10.576 -0.5462 -0.6677 -2.1095
   18SAPC   C14 2277   5.574   1.882  10.401  0.4569 -0.2412  0.6939
   18SAPC  H14A 2278   5.516   1.802  10.359 -0.2956  0.5466  0.2165
   18SAPC  H14B 2279   5.526   1.974  10.371  1.3785 -0.4787 -1.5876
   18SAPC  H14C 2280   5.673   1.877  10.357  0.1906  0.9939 -0.0735
   18SAPC   C15 2281   5.463   1.910  10.621  0.1379  0.5435 -0.1936
   18SAPC  H15A 2282   5.391   1.830  10.611 -0.6051  0.9245  1.8580
   18SAPC  H15B 2283   5.478   1.920  10.727  1.5786 -1.2399 -0.2071
   18SAPC  H15C 2284   5.422   2.004  10.586 -1.9928  0.7095  2.5620
   18SAPC   C11 2285   5.573   1.618  10.576 -0.0055  0.0182 -0.8419
   18SAPC  H11A 2286   5.642   1.535  10.603  2.7426  1.7450 -2.2536
   18SAPC  H11B 2287   5.540   1.604  10.471 -3.4739 -2.0822  0.4592
   18SAPC     P 2288   5.312   1.575  10.612 -0.3426 -0.0721 -0.2390
   18SAPC   O13 2289   5.244   1.534  10.734 -0.4036  0.5183  0.3313
   18SAPC   O14 2290   5.252   1.680  10.526  0.0008 -0.9118 -0.1456
   18SAPC   O12 2291   5.458   1.618  10.667 -0.0655  0.0683  0.2673
   18SAPC   O11 2292   5.332   1.439  10.524 -0.0161 -0.1016 -0.4708
   18SAPC    C1 2293   5.389   1.316  10.574 -0.3144 -0.2453 -0.2144
   18SAPC    HA 2294   5.474   1.323  10.645  0.4004  0.4992 -1.1192
   18SAPC    HB 2295   5.312   1.259  10.629  0.7677 -2.4860 -0.9588
   18SAPC    C2 2296   5.441   1.229  10.458  0.0118  0.6393  0.1222
   18SAPC    HS 2297   5.522   1.286  10.409 -1.3888  0.3797 -2.5657
   18SAPC   O21 2298   5.332   1.225  10.362 -0.2515  0.3503 -0.2378
   18SAPC   C21 2299   5.332   1.315  10.266 -1.2111 -0.5348  0.0050
   18SAPC   O22 2300   5.406   1.416  10.264  0.4291  0.5228 -0.6015
   18SAPC   C22 2301   5.219   1.271  10.178  0.4795  0.8499  0.2225
   18SAPC   H2R 2302   5.198   1.166  10.204  3.1016  0.7581  2.1590
   18SAPC   H2S 2303   5.130   1.335  10.197  0.9731  1.4981  0.3972
   18SAPC    C3 2304   5.491   1.096  10.501  0.3442  0.9785 -0.2752
   18SAPC    HX 2305   5.431   1.065  10.589  0.8853 -1.4453 -0.7101
   18SAPC    HY 2306   5.597   1.111  10.532 -0.1594  2.6896  0.6631
   18SAPC   O31 2307   5.481   0.997  10.399  0.5930  0.0572 -0.8312
   18SAPC   C31 2308   5.366   0.936  10.388 -0.0454 -0.5573 -0.1086
   18SAPC   O32 2309   5.266   0.934  10.464 -0.2035  0.2972  0.2487
   18SAPC   C32 2310   5.369   0.868  10.248 -0.3034 -0.0672 -0.2912
   18SAPC   H2X 2311   5.278   0.903  10.196  0.7133  1.1125 -1.3039
   18SAPC   H2Y 2312   5.383   0.759  10.265 -0.3430  0.3578  2.8306
   18SAPC   C23 2313   5.268   1.281  10.032  0.4977 -0.1038 -0.1465
   18SAPC   H3R 2314   5.366   1.230  10.016 -0.5702 -2.4128  0.4260
   18SAPC   H3S 2315   5.272   1.388  10.004  0.8521 -0.2321 -0.5952
   18SAPC   C24 2316   5.186   1.228   9.915 -0.1559  0.0400  0.0944
   18SAPC   H4R 2317   5.202   1.118   9.906  0.3100  0.2767 -2.3644
   18SAPC   H4S 2318   5.221   1.276   9.821 -0.9288 -0.0032 -0.2188
   18SAPC   C25 2319   5.040   1.253   9.920  0.7670  0.4631  0.2278
   18SAPC   H5R 2320   4.995   1.269  10.019  1.2531  0.1981  0.4936
   18SAPC   C26 2321   4.952   1.252   9.818  0.5670  0.4031  0.0745
   18SAPC   H6R 2322   4.848   1.283   9.835  0.9989  1.1173  1.5174
   18SAPC   C27 2323   4.978   1.220   9.673  0.3396 -0.0510  0.3695
   18SAPC   H7R 2324   4.917   1.129   9.657  0.4067  0.1338 -0.9976
   18SAPC   H7S 2325   5.079   1.173   9.664  0.1368 -0.2255 -1.0749
   18SAPC   C28 2326   4.965   1.339   9.576  0.0184 -0.2323 -0.2248
   18SAPC   H8R 2327   5.037   1.420   9.595 -1.7068  0.8262  2.1006
   18SAPC   C29 2328   4.874   1.351   9.475  0.4005  0.0702  0.7103
   18SAPC   H9R 2329   4.889   1.437   9.408 -1.6003  1.3505  1.8408
   18SAPC  C210 2330   4.763   1.259   9.430 -0.6331  0.6650 -0.2918
   18SAPC  H10R 2331   4.679   1.265   9.501 -0.5916  0.4149 -0.2228
   18SAPC  H10S 2332   4.782   1.149   9.432  1.2302  0.9797  0.5570
   18SAPC  C211 2333   4.705   1.290   9.292 -0.4020 -0.6566  0.0870
   18SAPC  H11R 2334   4.730   1.211   9.220  0.1762 -1.2100  0.8828
   18SAPC  C212 2335   4.630   1.398   9.265 -0.3339 -1.1029  0.4604
   18SAPC  H12R 2336   4.612   1.421   9.159 -0.4491 -2.3749  0.1958
   18SAPC  C213 2337   4.599   1.507   9.361 -0.1452 -0.3531  0.2718
   18SAPC  H13R 2338   4.643   1.606   9.334 -1.6516  0.0803 -0.6797
   18SAPC  H13S 2339   4.647   1.500   9.461 -1.4387 -3.5946  0.7149
   18SAPC  C214 2340   4.446   1.521   9.375 -0.4939  0.1315 -0.0430
   18SAPC  H14R 2341   4.382   1.499   9.289 -0.0039  0.0967 -0.4033
   18SAPC  C215 2342   4.396   1.563   9.493 -0.1059  0.3608 -0.2557
   18SAPC  H15R 2343   4.289   1.560   9.517  0.3053  0.5439  1.6153
   18SAPC  C216 2344   4.469   1.604   9.617 -0.2239 -0.3065  0.2844
   18SAPC  H16R 2345   4.491   1.710   9.595  1.5286 -1.0865 -1.9530
   18SAPC  H16S 2346   4.564   1.549   9.637 -0.5885 -0.8317  0.5818
   18SAPC  C217 2347   4.390   1.591   9.759  0.1930 -0.0692  0.4072
   18SAPC  H17R 2348   4.303   1.659   9.757  0.9172  1.0051  2.7914
   18SAPC  H17S 2349   4.448   1.621   9.850 -1.7276  0.4001  1.4975
   18SAPC  C218 2350   4.328   1.452   9.798 -0.7494 -0.0854 -0.0453
   18SAPC  H18R 2351   4.267   1.402   9.720 -1.1690 -0.3719  0.4640
   18SAPC  H18S 2352   4.259   1.486   9.878 -1.2623 -0.0354 -0.5076
   18SAPC  C219 2353   4.430   1.353   9.854  0.1436 -0.3739 -0.2851
   18SAPC  H19R 2354   4.375   1.260   9.881  0.2995 -1.0459 -2.1396
   18SAPC  H19S 2355   4.477   1.394   9.945 -1.5552 -1.6624  1.1936
   18SAPC  C220 2356   4.544   1.312   9.755  0.4642 -0.0170  0.0038
   18SAPC  H20R 2357   4.595   1.222   9.796  1.7543  0.3451 -0.7705
   18SAPC  H20S 2358   4.629   1.382   9.738  2.5101 -2.0536  1.5010
   18SAPC  H20T 2359   4.489   1.301   9.660  1.4784  1.9808 -0.8466
   18SAPC   C33 2360   5.490   0.907  10.158 -0.3854  0.0009 -0.5921
   18SAPC   H3X 2361   5.586   0.858  10.184 -1.5306 -1.8396  0.3021
   18SAPC   H3Y 2362   5.504   1.017  10.154  1.1261 -0.2387 -2.1379
   18SAPC   C34 2363   5.450   0.865  10.014 -0.1027 -0.2271  0.2823
   18SAPC   H4X 2364   5.353   0.914   9.989 -0.1724 -0.7654 -0.5426
   18SAPC   H4Y 2365   5.429   0.756  10.012  4.4599 -1.1834  0.3563
   18SAPC   C35 2366   5.555   0.904   9.913 -0.3039  0.2159  0.1755
   18SAPC   H5X 2367   5.659   0.878   9.942 -0.1471 -3.2190 -3.1300
   18SAPC   H5Y 2368   5.564   1.015   9.916  1.8540  0.0614  0.0036
   18SAPC   C36 2369   5.529   0.857   9.770  0.5009  0.5085 -0.1411
   18SAPC   H6X 2370   5.552   0.749   9.759 -2.3735 -0.0219 -1.5222
   18SAPC   H6Y 2371   5.606   0.895   9.700  1.6770  1.1646  1.4643
   18SAPC   C37 2372   5.391   0.893   9.701 -0.2808 -0.0919 -0.1923
   18SAPC   H7X 2373   5.384   1.004   9.691 -0.2488 -0.0597  0.1094
   18SAPC   H7Y 2374   5.309   0.865   9.771  0.9100 -1.0884  0.8267
   18SAPC   C38 2375   5.362   0.801   9.585 -0.2266  0.6581 -0.2159
   18SAPC   H8X 2376   5.361   0.697   9.623 -1.0551  1.0397  0.8142
   18SAPC   H8Y 2377   5.451   0.808   9.518 -2.0097 -0.2123 -2.7777
   18SAPC   C39 2378   5.233   0.826   9.516  0.4198  0.1881  1.0159
   18SAPC   H9X 2379   5.218   0.935   9.500  1.1610  0.0371 -0.7781
   18SAPC   H9Y 2380   5.149   0.784   9.575  1.6359 -0.3933  2.3803
   18SAPC  C310 2381   5.222   0.755   9.381  0.0193  0.0917 -0.3531
   18SAPC  H10X 2382   5.268   0.654   9.394 -1.2065 -0.0655  3.2078
   18SAPC  H10Y 2383   5.288   0.808   9.309  0.9148 -1.3881 -0.6534
   18SAPC  C311 2384   5.079   0.753   9.329 -0.0973  0.9503  0.2301
   18SAPC  H11X 2385   5.030   0.850   9.354 -0.6206  0.1234  2.5481
   18SAPC  H11Y 2386   5.019   0.673   9.378  1.0536 -0.1843 -0.1723
   18SAPC  C312 2387   5.074   0.734   9.179  0.5537 -0.8375 -0.5737
   18SAPC  H12X 2388   5.083   0.627   9.152  1.4447 -1.1197  0.7953
   18SAPC  H12Y 2389   5.167   0.772   9.130 -0.8915  1.4519 -1.6237
   18SAPC  C313 2390   4.957   0.804   9.112 -0.1722  0.2040 -0.3199
   18SAPC  H13X 2391   4.951   0.770   9.006  0.9886  1.1565 -0.7022
   18SAPC  H13Y 2392   4.974   0.913   9.113 -0.7295  0.3488 -2.7791
   18SAPC  C314 2393   4.815   0.777   9.177  0.1419  0.7204  0.9684
   18SAPC  H14X 2394   4.808   0.799   9.286  1.6684  2.3291  0.7683
   18SAPC  H14Y 2395   4.806   0.666   9.172 -1.3232  0.7167  2.8158
   18SAPC  C315 2396   4.704   0.861   9.108 -0.3292 -0.9852 -0.4023
   18SAPC  H15X 2397   4.724   0.969   9.126 -0.3712 -0.7609 -1.6350
   18SAPC  H15Y 2398   4.609   0.829   9.156  0.5087  0.6242  2.4331
   18SAPC  C316 2399   4.711   0.858   8.953 -0.4325  0.0849  0.3428
   18SAPC  H16X 2400   4.812   0.886   8.918 -0.9287 -0.0713 -1.2380
   18SAPC  H16Y 2401   4.647   0.941   8.916 -0.5984 -0.2692 -0.1547
   18SAPC  C317 2402   4.672   0.718   8.895 -0.2340 -0.8871  0.5247
   18SAPC  H17X 2403   4.596   0.675   8.964 -1.1684  0.4511  0.3364
   18SAPC  H17Y 2404   4.752   0.641   8.904  0.8571 -0.0173 -1.4765
   18SAPC  C318 2405   4.625   0.725   8.750 -0.5817 -0.3049  0.1828
   18SAPC  H18X 2406   4.707   0.745   8.677  0.1187 -3.5004  0.0134
   18SAPC  H18Y 2407   4.542   0.798   8.750  0.9637  1.5447  3.3823
   18SAPC  H18Z 2408   4.582   0.628   8.716 -0.3845 -0.8631  1.5025
   19SAPC     N 2409   4.115   2.972  10.831 -0.1475 -0.2226 -0.0992
   19SAPC   C12 2410   4.024   2.943  10.709 -0.2501 -0.3244 -0.0044
   19SAPC  H12A 2411   4.015   3.030  10.647  0.4637  0.5361  1.0854
   19SAPC  H12B 2412   3.924   2.931  10.748  0.0693  0.7320  1.1631
   19SAPC   C13 2413   4.248   3.028  10.782  0.5207  0.4557  0.2743
   19SAPC  H13A 2414   4.298   3.064  10.871 -1.7005  0.9722  1.3414
   19SAPC  H13B 2415   4.311   2.954  10.735 -1.6589 -1.4711  0.3243
   19SAPC  H13C 2416   4.229   3.103  10.707 -3.0858 -3.3333 -2.8066
   19SAPC   C14 2417   4.048   3.074  10.923 -0.5891 -0.2883  0.6032
   19SAPC  H14A 2418   4.043   3.171  10.877 -0.9112  0.0821  1.4239
   19SAPC  H14B 2419   3.944   3.052  10.944 -0.3044 -2.1040  0.2510
   19SAPC  H14C 2420   4.105   3.078  11.014  0.6402  1.2878 -0.2159
   19SAPC   C15 2421   4.140   2.851  10.916 -0.4788 -0.2263  0.0133
   19SAPC  H15A 2422   4.184   2.876  11.011 -0.7661 -1.7009  0.5438
   19SAPC  H15B 2423   4.047   2.827  10.965  0.2883 -0.8046  1.2099
   19SAPC  H15C 2424   4.176   2.761  10.868  1.0191  1.7552 -2.7266
   19SAPC   C11 2425   4.056   2.827  10.618 -0.5155  0.0790 -0.2057
   19SAPC  H11A 2426   3.974   2.798  10.549 -0.8972  1.3826 -0.3179
   19SAPC  H11B 2427   4.082   2.737  10.677  2.8917  0.1980 -1.4078
   19SAPC     P 2428   4.231   2.873  10.409  0.2296 -0.5057  0.3909
   19SAPC   O13 2429   4.372   2.904  10.395  0.5553 -0.2796 -0.4425
   19SAPC   O14 2430   4.179   2.757  10.332 -0.1066 -0.1322  0.1792
   19SAPC   O12 2431   4.178   2.859  10.557  0.3689  0.2023 -0.0580
   19SAPC   O11 2432   4.154   2.999  10.337 -0.6836  0.3241 -0.5656
   19SAPC    C1 2433   4.127   3.114  10.411  0.1843 -0.0914  0.2153
   19SAPC    HA 2434   4.025   3.118  10.456 -0.1451 -1.4026 -0.3989
   19SAPC    HB 2435   4.199   3.122  10.495  0.9709 -1.1907 -0.3448
   19SAPC    C2 2436   4.140   3.244  10.324 -0.5261  0.3376 -0.3727
   19SAPC    HS 2437   4.138   3.333  10.389 -1.5642 -0.2433  0.4039
   19SAPC   O21 2438   4.037   3.250  10.221  0.0707  0.0355  0.1548
   19SAPC   C21 2439   3.981   3.366  10.201  0.8264  0.5249  0.8931
   19SAPC   O22 2440   3.998   3.468  10.268  0.2804 -0.3996 -0.7160
   19SAPC   C22 2441   3.868   3.340  10.095  0.2032 -0.1365 -0.0733
   19SAPC   H2R 2442   3.876   3.235  10.061  2.5973 -0.1734  0.5130
   19SAPC   H2S 2443   3.767   3.357  10.139  0.7911  0.4341  1.0684
   19SAPC    C3 2444   4.278   3.248  10.253  0.0284  0.3618 -0.3310
   19SAPC    HX 2445   4.277   3.157  10.189 -0.4820  0.5085 -0.5387
   19SAPC    HY 2446   4.358   3.236  10.329  0.7563 -0.7501 -1.2639
   19SAPC   O31 2447   4.289   3.368  10.170 -0.2324  0.4778  0.6826
   19SAPC   C31 2448   4.410   3.391  10.129 -0.0228  0.2101  0.1516
   19SAPC   O32 2449   4.510   3.332  10.164  0.4604 -0.1903 -0.3274
   19SAPC   C32 2450   4.408   3.497  10.030 -0.3000 -0.1230 -0.8265
   19SAPC   H2X 2451   4.485   3.575  10.047  0.7216 -1.1444 -0.6150
   19SAPC   H2Y 2452   4.305   3.534  10.011  0.2787  2.5265  0.9364
   19SAPC   C23 2453   3.872   3.429   9.969  0.0531 -0.3643  0.4513
   19SAPC   H3R 2454   3.840   3.533   9.992 -0.5145 -0.1428 -1.2903
   19SAPC   H3S 2455   3.800   3.401   9.889  0.1116 -0.0624  0.2958
   19SAPC   C24 2456   4.012   3.449   9.905  0.1292 -0.3024 -0.3525
   19SAPC   H4R 2457   4.085   3.502   9.971  0.0002 -0.5530 -0.0076
   19SAPC   H4S 2458   3.993   3.522   9.823  1.0061  0.7268  0.3529
   19SAPC   C25 2459   4.077   3.315   9.866  0.3778 -0.2356  0.7755
   19SAPC   H5R 2460   4.114   3.262   9.955  1.0905 -1.4673 -0.2346
   19SAPC   C26 2461   4.066   3.272   9.742  0.4558  0.1021  0.4443
   19SAPC   H6R 2462   4.110   3.177   9.706  0.5849  1.4098 -3.0131
   19SAPC   C27 2463   3.983   3.341   9.628  0.6731  0.8181 -0.0534
   19SAPC   H7R 2464   3.925   3.421   9.678 -0.2350  0.0930  0.0763
   19SAPC   H7S 2465   3.910   3.271   9.581  0.4059  1.6957 -0.9465
   19SAPC   C28 2466   4.084   3.396   9.526  0.2540 -0.0395 -0.4084
   19SAPC   H8R 2467   4.174   3.440   9.572  0.2462  1.1985 -1.5178
   19SAPC   C29 2468   4.066   3.391   9.392 -0.3550 -0.0461 -0.2683
   19SAPC   H9R 2469   4.151   3.416   9.327  0.4303  1.5090  1.2860
   19SAPC  C210 2470   3.958   3.328   9.311 -0.7659 -0.1932  0.0992
   19SAPC  H10R 2471   3.866   3.313   9.371 -1.2352 -0.3181 -0.6561
   19SAPC  H10S 2472   3.976   3.220   9.292  0.4441  0.1830 -0.9937
   19SAPC  C211 2473   3.918   3.392   9.179  0.6564  0.0030  0.3024
   19SAPC  H11R 2474   3.825   3.450   9.174 -0.6802 -2.2019 -1.1673
   19SAPC  C212 2475   3.979   3.382   9.061 -0.3451  0.2159  0.6542
   19SAPC  H12R 2476   3.940   3.440   8.976  0.9598 -0.9487 -0.7716
   19SAPC  C213 2477   4.103   3.305   9.029  0.4188 -0.5361  0.4093
   19SAPC  H13R 2478   4.060   3.226   8.963 -3.2822  0.7760  1.0895
   19SAPC  H13S 2479   4.144   3.247   9.114  0.1168  0.0807  0.9756
   19SAPC  C214 2480   4.201   3.393   8.954 -0.7359  0.5569  0.1587
   19SAPC  H14R 2481   4.276   3.437   9.021  1.6142 -1.6680 -0.9026
   19SAPC  C215 2482   4.205   3.424   8.826  0.0986 -1.2986  0.8884
   19SAPC  H15R 2483   4.283   3.488   8.784 -0.2777 -1.3681  0.0683
   19SAPC  C216 2484   4.100   3.376   8.735  0.0657 -0.0814 -0.0417
   19SAPC  H16R 2485   3.999   3.380   8.781  0.5466  1.2261  0.9372
   19SAPC  H16S 2486   4.125   3.269   8.719  0.1034  0.2146 -2.0684
   19SAPC  C217 2487   4.088   3.453   8.605 -0.2382  0.4751  1.0003
   19SAPC  H17R 2488   4.179   3.438   8.543  0.6163 -0.3181  2.4092
   19SAPC  H17S 2489   4.081   3.563   8.622 -0.5845  0.4066  1.3000
   19SAPC  C218 2490   3.972   3.390   8.516  0.3294 -0.0431  0.0367
   19SAPC  H18R 2491   3.876   3.446   8.523 -0.3224 -1.4240  2.3246
   19SAPC  H18S 2492   3.966   3.284   8.547 -0.5919 -0.2723 -0.8827
   19SAPC  C219 2493   4.001   3.391   8.364  0.6975 -0.2076 -0.1794
   19SAPC  H19R 2494   4.053   3.484   8.333  3.6112 -2.1441 -1.3222
   19SAPC  H19S 2495   3.899   3.385   8.320  0.8524 -1.0997 -0.4173
   19SAPC  C220 2496   4.080   3.270   8.310  0.1570 -0.6000 -0.0221
   19SAPC  H20R 2497   4.038   3.171   8.337 -0.2799 -1.0567 -2.2924
   19SAPC  H20S 2498   4.188   3.270   8.336  0.2224  2.8512  0.0324
   19SAPC  H20T 2499   4.063   3.277   8.200  0.4280 -0.4365 -0.0553
   19SAPC   C33 2500   4.434   3.439   9.884  0.1047  1.1339 -0.3997
   19SAPC   H3X 2501   4.359   3.360   9.863  1.6901 -0.7907  0.9400
   19SAPC   H3Y 2502   4.531   3.386   9.874  0.0285  0.2803  2.6873
   19SAPC   C34 2503   4.442   3.552   9.774  0.5264  0.3303 -0.7584
   19SAPC   H4X 2504   4.534   3.614   9.782  0.4910  0.1611  1.1678
   19SAPC   H4Y 2505   4.348   3.610   9.779  1.2783  1.5701 -0.6587
   19SAPC   C35 2506   4.460   3.491   9.636 -0.3722  0.8053 -0.2444
   19SAPC   H5X 2507   4.382   3.414   9.622 -1.0588  1.4980 -0.2635
   19SAPC   H5Y 2508   4.561   3.446   9.624 -0.3745  0.9040 -0.6441
   19SAPC   C36 2509   4.439   3.591   9.524  0.4816  0.1095  0.5275
   19SAPC   H6X 2510   4.472   3.694   9.551  0.0281 -0.0358  1.6605
   19SAPC   H6Y 2511   4.328   3.592   9.511  0.5301  0.0724  0.1135
   19SAPC   C37 2512   4.511   3.560   9.397 -0.4097 -0.4175 -0.2444
   19SAPC   H7X 2513   4.511   3.452   9.373 -0.5722 -0.8188  1.5006
   19SAPC   H7Y 2514   4.620   3.576   9.415 -0.5449 -0.3557  0.5392
   19SAPC   C38 2515   4.462   3.643   9.274 -0.2871  0.1488  0.0880
   19SAPC   H8X 2516   4.454   3.750   9.303 -0.8951  0.4789 -1.2479
   19SAPC   H8Y 2517   4.362   3.603   9.247  0.3619 -1.8226  0.5421
   19SAPC   C39 2518   4.555   3.629   9.149 -0.3563  0.4662 -0.6483
   19SAPC   H9X 2519   4.564   3.519   9.137  1.4730  0.3047  1.8514
   19SAPC   H9Y 2520   4.659   3.667   9.160 -1.0718  2.8860 -1.7626
   19SAPC  C310 2521   4.490   3.699   9.022 -0.0781 -0.3308  0.2600
   19SAPC  H10X 2522   4.486   3.809   9.041 -1.1039  0.2479 -2.9421
   19SAPC  H10Y 2523   4.383   3.669   9.014 -0.2536 -0.2042  1.9358
   19SAPC  C311 2524   4.557   3.677   8.891  0.2570 -0.2872  0.7055
   19SAPC  H11X 2525   4.544   3.573   8.852 -1.0688  0.2922 -0.4798
   19SAPC  H11Y 2526   4.668   3.678   8.893  0.3100 -1.1075 -0.6414
   19SAPC  C312 2527   4.492   3.771   8.784 -0.4999  1.4052  0.1910
   19SAPC  H12X 2528   4.499   3.879   8.806 -1.5520  1.8395 -1.5290
   19SAPC  H12Y 2529   4.384   3.748   8.782 -0.0137 -1.1511  0.2991
   19SAPC  C313 2530   4.540   3.751   8.634  0.0680 -1.0954  0.6877
   19SAPC  H13X 2531   4.507   3.649   8.604  1.0409 -1.1693 -0.1570
   19SAPC  H13Y 2532   4.651   3.761   8.635 -0.1191  1.4519  0.5061
   19SAPC  C314 2533   4.474   3.855   8.538 -0.3862  0.2419 -0.0456
   19SAPC  H14X 2534   4.521   3.953   8.563  1.1514 -0.6242  0.5636
   19SAPC  H14Y 2535   4.366   3.857   8.562 -0.8251 -1.4107 -1.7393
   19SAPC  C315 2536   4.479   3.821   8.381  0.3545  0.6934 -0.8515
   19SAPC  H15X 2537   4.586   3.792   8.380  1.0865  3.2299 -0.2143
   19SAPC  H15Y 2538   4.453   3.907   8.316 -1.3023 -0.3448 -1.5851
   19SAPC  C316 2539   4.379   3.706   8.344 -0.6031  0.4146  0.4347
   19SAPC  H16X 2540   4.360   3.648   8.437  0.8529  0.0120  0.4886
   19SAPC  H16Y 2541   4.416   3.620   8.285 -0.7903 -0.5343  1.6626
   19SAPC  C317 2542   4.242   3.736   8.283 -0.2865 -0.0204  0.6461
   19SAPC  H17X 2543   4.193   3.638   8.267 -2.7233  1.0516  1.3248
   19SAPC  H17Y 2544   4.239   3.786   8.184  1.3000  1.4796  1.3234
   19SAPC  C318 2545   4.150   3.817   8.373 -0.6273 -0.3848  0.1140
   19SAPC  H18X 2546   4.193   3.919   8.382 -0.4110 -0.5261  0.7201
   19SAPC  H18Y 2547   4.148   3.783   8.479  0.1147 -0.9813 -0.0621
   19SAPC  H18Z 2548   4.045   3.824   8.337  0.4651 -2.1574 -3.6090
   20SAPC     N 2549   4.583   6.402  11.039 -0.5634 -0.0322 -0.1038
   20SAPC   C12 2550   4.554   6.552  11.017 -0.8037 -0.7197  0.2705
   20SAPC  H12A 2551   4.631   6.610  11.067 -0.3045 -0.0733 -1.2062
   20SAPC  H12B 2552   4.466   6.573  11.075 -0.8014 -0.8861  0.3357
   20SAPC   C13 2553   4.688   6.362  10.938 -0.7034  0.4738 -0.1717
   20SAPC  H13A 2554   4.777   6.423  10.948 -0.0702 -0.8938  2.7838
   20SAPC  H13B 2555   4.712   6.259  10.957  0.5081  0.9749  1.0862
   20SAPC  H13C 2556   4.659   6.370  10.834 -0.2478  2.2080 -0.1860
   20SAPC   C14 2557   4.639   6.386  11.174  0.3737 -0.0607  0.1704
   20SAPC  H14A 2558   4.727   6.448  11.184 -0.5380  1.1371  1.0259
   20SAPC  H14B 2559   4.562   6.414  11.245 -0.7704 -0.5703 -0.8506
   20SAPC  H14C 2560   4.659   6.284  11.202 -0.6426 -0.5498 -0.8571
   20SAPC   C15 2561   4.467   6.308  11.026 -0.1109  0.3395 -0.0817
   20SAPC  H15A 2562   4.377   6.342  11.075  2.2193  1.7383  3.5047
   20SAPC  H15B 2563   4.456   6.304  10.919  2.8242 -0.5369 -0.3830
   20SAPC  H15C 2564   4.498   6.209  11.056 -1.4836 -0.4765 -1.3099
   20SAPC   C11 2565   4.520   6.598  10.873  0.1297  0.5565 -0.0591
   20SAPC  H11A 2566   4.600   6.563  10.805 -1.2836 -1.6774 -0.6103
   20SAPC  H11B 2567   4.512   6.709  10.874 -1.8337  0.4337  0.3083
   20SAPC     P 2568   4.271   6.587  10.880 -0.1598  0.1047  0.1457
   20SAPC   O13 2569   4.200   6.468  10.932  1.0080  0.0972  0.0906
   20SAPC   O14 2570   4.304   6.697  10.973  0.4597 -0.4087 -0.6672
   20SAPC   O12 2571   4.398   6.542  10.804  0.1662 -0.2002  0.1409
   20SAPC   O11 2572   4.176   6.653  10.770 -0.5490 -0.1592  0.2471
   20SAPC    C1 2573   4.154   6.583  10.647 -0.2863  0.1621 -0.3097
   20SAPC    HA 2574   4.218   6.492  10.641 -1.0266 -0.5285  1.8910
   20SAPC    HB 2575   4.046   6.569  10.624  0.1141 -1.7028 -1.1565
   20SAPC    C2 2576   4.215   6.660  10.527  0.0645 -0.3798  0.2223
   20SAPC    HS 2577   4.323   6.679  10.545 -0.4764  1.8248  1.3282
   20SAPC   O21 2578   4.135   6.786  10.526  0.0794 -0.0661  0.7394
   20SAPC   C21 2579   4.208   6.883  10.476 -0.5353  0.8810 -0.2234
   20SAPC   O22 2580   4.325   6.877  10.445 -0.2557 -0.1921 -0.4228
   20SAPC   C22 2581   4.123   7.006  10.457  0.5045  0.3437 -0.8671
   20SAPC   H2R 2582   4.029   6.979  10.406  0.2487  1.1251 -0.8179
   20SAPC   H2S 2583   4.101   7.045  10.559 -0.5412 -1.4450 -0.3902
   20SAPC    C3 2584   4.200   6.577  10.396  0.4736 -0.2560  0.6744
   20SAPC    HX 2585   4.096   6.539  10.398  1.3459 -2.8430  0.0347
   20SAPC    HY 2586   4.257   6.482  10.407 -0.1634 -1.1544 -3.1576
   20SAPC   O31 2587   4.226   6.652  10.275 -0.0819 -0.1231 -0.6681
   20SAPC   C31 2588   4.352   6.637  10.228 -1.0942  0.2191  0.2609
   20SAPC   O32 2589   4.430   6.554  10.265  0.0431  0.1787  0.1500
   20SAPC   C32 2590   4.376   6.744  10.125  0.4894  0.6359 -0.8623
   20SAPC   H2X 2591   4.354   6.830  10.192  1.2780 -0.2933  0.6197
   20SAPC   H2Y 2592   4.308   6.741  10.038  0.1520  1.4841 -0.6301
   20SAPC   C23 2593   4.189   7.123  10.382 -0.3211 -0.1364 -0.1817
   20SAPC   H3R 2594   4.257   7.080  10.305  0.8483  3.2381 -1.1316
   20SAPC   H3S 2595   4.253   7.182  10.452  1.0719 -0.0159 -1.5194
   20SAPC   C24 2596   4.088   7.228  10.329  0.3383 -0.5030  0.2721
   20SAPC   H4R 2597   4.154   7.300  10.275  1.4915 -0.3168  1.8920
   20SAPC   H4S 2598   4.044   7.272  10.420  1.9926  2.2188 -0.1883
   20SAPC   C25 2599   3.993   7.174  10.227 -0.0675 -0.3977 -1.1150
   20SAPC   H5R 2600   3.899   7.137  10.270  0.4685 -2.7834 -1.9220
   20SAPC   C26 2601   4.012   7.174  10.093  0.3655  0.0476  0.1646
   20SAPC   H6R 2602   3.934   7.126  10.031 -0.0313  0.6109  0.2269
   20SAPC   C27 2603   4.128   7.233  10.017  1.1754  0.3943 -1.0127
   20SAPC   H7R 2604   4.149   7.156   9.941 -1.9625  0.6225 -2.1773
   20SAPC   H7S 2605   4.222   7.247  10.075 -0.2261  0.0212  1.4608
   20SAPC   C28 2606   4.078   7.360   9.954  0.1436 -0.4105 -0.0855
   20SAPC   H8R 2607   4.072   7.443  10.026 -0.5252  0.7938 -1.4905
   20SAPC   C29 2608   4.060   7.389   9.819 -0.9032 -0.4830 -0.2764
   20SAPC   H9R 2609   4.042   7.496   9.799  0.8556 -0.0954  0.1717
   20SAPC  C210 2610   4.072   7.299   9.698 -0.4704 -0.2937  1.0863
   20SAPC  H10R 2611   3.972   7.277   9.655 -0.1970 -0.2665  0.4283
   20SAPC  H10S 2612   4.115   7.201   9.729 -1.1160 -1.1318 -0.6144
   20SAPC  C211 2613   4.163   7.355   9.594 -0.2211 -0.3440 -0.2797
   20SAPC  H11R 2614   4.269   7.345   9.622  0.1794  0.9726 -1.3104
   20SAPC  C212 2615   4.123   7.407   9.475 -0.4651  0.8028  1.0846
   20SAPC  H12R 2616   4.198   7.432   9.399 -0.1367 -2.3781  0.2612
   20SAPC  C213 2617   3.980   7.426   9.427 -0.6117  0.1503 -0.2805
   20SAPC  H13R 2618   3.974   7.508   9.351 -0.2600  0.4304 -0.0090
   20SAPC  H13S 2619   3.935   7.454   9.524  2.5316 -1.5680  1.7721
   20SAPC  C214 2620   3.927   7.293   9.375  0.7090  0.6454  0.3381
   20SAPC  H14R 2621   3.937   7.210   9.447 -2.0952  0.1465  0.1889
   20SAPC  C215 2622   3.870   7.264   9.255 -0.7894 -0.0663 -0.8622
   20SAPC  H15R 2623   3.844   7.159   9.235 -0.1217 -0.0252 -1.9700
   20SAPC  C216 2624   3.855   7.357   9.134  0.1801  0.4348  0.6725
   20SAPC  H16R 2625   3.919   7.447   9.144  3.5223 -2.0579  2.9020
   20SAPC  H16S 2626   3.747   7.376   9.116 -0.0183 -2.8664 -2.1336
   20SAPC  C217 2627   3.917   7.268   9.022  0.2927  0.6089 -0.1486
   20SAPC  H17R 2628   4.019   7.229   9.041  0.3205  0.2756 -0.9699
   20SAPC  H17S 2629   3.930   7.327   8.929 -2.4350  1.8331  0.1724
   20SAPC  C218 2630   3.833   7.146   8.971 -0.1521  0.0055 -0.7522
   20SAPC  H18R 2631   3.824   7.063   9.044  1.6357  0.7466  0.3505
   20SAPC  H18S 2632   3.894   7.097   8.892  0.2125  1.2945 -1.2915
   20SAPC  C219 2633   3.701   7.170   8.900 -0.1201 -0.7639 -0.1499
   20SAPC  H19R 2634   3.687   7.274   8.865 -5.0506 -1.1085  0.4660
   20SAPC  H19S 2635   3.619   7.169   8.976  0.3917 -0.2949  0.4110
   20SAPC  C220 2636   3.658   7.072   8.791 -0.4383 -0.0715 -0.7763
   20SAPC  H20R 2637   3.633   6.976   8.843  1.7888 -0.0882  0.3349
   20SAPC  H20S 2638   3.731   7.059   8.708 -0.3764  0.2026 -0.7650
   20SAPC  H20T 2639   3.567   7.109   8.740 -1.0231 -1.7478 -0.9652
   20SAPC   C33 2640   4.522   6.749  10.080 -0.2781 -0.2481 -0.2204
   20SAPC   H3X 2641   4.593   6.758  10.165 -0.9337  2.3332  0.1051
   20SAPC   H3Y 2642   4.536   6.839  10.016 -0.0188 -0.0539  0.1103
   20SAPC   C34 2643   4.550   6.635   9.989  0.2410 -0.1752  0.9211
   20SAPC   H4X 2644   4.517   6.539  10.034  0.3757 -0.7707 -0.2196
   20SAPC   H4Y 2645   4.655   6.612   9.962 -0.1932  0.4636 -1.4775
   20SAPC   C35 2646   4.475   6.644   9.849 -0.3294  0.2308  0.0575
   20SAPC   H5X 2647   4.498   6.746   9.811 -0.8707  0.8665  1.3817
   20SAPC   H5Y 2648   4.367   6.633   9.874 -0.3451  0.4926  0.1057
   20SAPC   C36 2649   4.501   6.522   9.767 -0.7537  0.6446 -0.6213
   20SAPC   H6X 2650   4.428   6.441   9.793 -0.8321  0.1343 -2.3458
   20SAPC   H6Y 2651   4.605   6.485   9.778 -1.3930 -1.1991 -0.6597
   20SAPC   C37 2652   4.485   6.543   9.610  0.3787  1.1927  0.4005
   20SAPC   H7X 2653   4.572   6.603   9.575  1.5055 -0.5293  0.2003
   20SAPC   H7Y 2654   4.386   6.589   9.588 -0.3760 -1.3118 -1.7156
   20SAPC   C38 2655   4.498   6.406   9.544 -0.3167 -0.5131 -0.1376
   20SAPC   H8X 2656   4.434   6.332   9.598  0.2004 -0.4983  0.5056
   20SAPC   H8Y 2657   4.603   6.375   9.560 -0.9005 -1.0895  2.9991
   20SAPC   C39 2658   4.464   6.409   9.393  0.4993 -0.5503  0.2012
   20SAPC   H9X 2659   4.518   6.496   9.349  1.0982 -0.8576  0.3175
   20SAPC   H9Y 2660   4.355   6.429   9.387  0.5580 -0.1661  0.3854
   20SAPC  C310 2661   4.488   6.277   9.325 -0.5261 -0.3102  0.3983
   20SAPC  H10X 2662   4.452   6.191   9.386 -0.8314 -0.5258 -0.0785
   20SAPC  H10Y 2663   4.597   6.262   9.313 -0.1747  2.4960 -0.1379
   20SAPC  C311 2664   4.427   6.269   9.184 -0.5076  0.6559 -0.6797
   20SAPC  H11X 2665   4.475   6.345   9.120  0.5657 -0.0284 -0.6859
   20SAPC  H11Y 2666   4.316   6.275   9.174 -1.1020  0.0675  3.9800
   20SAPC  C312 2667   4.460   6.128   9.129  0.8984 -0.0980 -0.0585
   20SAPC  H12X 2668   4.436   6.052   9.206  1.9253  1.7734  2.1917
   20SAPC  H12Y 2669   4.571   6.127   9.129  0.9503  2.4874  0.7341
   20SAPC  C313 2670   4.411   6.093   8.990 -0.0078  0.6207  0.3754
   20SAPC  H13X 2671   4.304   6.067   9.000 -0.3902  2.8132  2.4824
   20SAPC  H13Y 2672   4.461   5.998   8.963 -1.0233 -0.3793  1.9160
   20SAPC  C314 2673   4.444   6.198   8.883 -0.0987  0.1316  0.1604
   20SAPC  H14X 2674   4.537   6.251   8.912  1.1863 -1.7105 -0.4491
   20SAPC  H14Y 2675   4.352   6.260   8.883 -2.2341 -2.8910  1.1417
   20SAPC  C315 2676   4.445   6.145   8.734  0.4859 -0.0259  0.0361
   20SAPC  H15X 2677   4.535   6.079   8.733 -1.7758 -3.3082  2.1124
   20SAPC  H15Y 2678   4.448   6.232   8.666  2.7707 -1.7607 -2.1775
   20SAPC  C316 2679   4.325   6.055   8.693 -0.1975  0.2158 -0.0013
   20SAPC  H16X 2680   4.229   6.107   8.715  0.1454 -0.2384  2.8067
   20SAPC  H16Y 2681   4.330   5.964   8.757 -0.5009  0.0354 -0.2346
   20SAPC  C317 2682   4.323   6.007   8.545  0.3325  0.2302  0.3687
   20SAPC  H17X 2683   4.307   6.086   8.469  4.0113  0.0935 -0.6510
   20SAPC  H17Y 2684   4.240   5.934   8.532 -0.0441  0.8296 -0.6074
   20SAPC  C318 2685   4.457   5.948   8.494  0.7742  0.8265  0.6077
   20SAPC  H18X 2686   4.536   6.026   8.485  1.0227  0.4576 -0.4846
   20SAPC  H18Y 2687   4.439   5.905   8.393 -0.8659 -2.0101  2.0704
   20SAPC  H18Z 2688   4.490   5.863   8.557 -2.5196 -2.5591 -1.9778
   21SAPC     N 2689   3.447   5.936  10.875 -0.1647 -0.6280 -0.5611
   21SAPC   C12 2690   3.517   5.857  10.772  0.3940 -0.0603  0.3042
   21SAPC  H12A 2691   3.451   5.832  10.691  0.4272  0.6782  0.0507
   21SAPC  H12B 2692   3.552   5.765  10.818 -0.2332 -0.2469  0.4077
   21SAPC   C13 2693   3.533   5.953  11.000 -0.6113  0.2033 -0.0939
   21SAPC  H13A 2694   3.477   6.002  11.079  0.5161  0.8002  0.3550
   21SAPC  H13B 2695   3.552   5.857  11.045 -1.8514 -1.3567 -2.8199
   21SAPC  H13C 2696   3.630   5.997  10.986  0.5298 -1.6143  1.7091
   21SAPC   C14 2697   3.404   6.073  10.823 -0.9046  0.4546 -0.4607
   21SAPC  H14A 2698   3.349   6.134  10.893 -0.1293 -2.3276  2.7148
   21SAPC  H14B 2699   3.485   6.140  10.795  0.3380 -1.6316 -1.9642
   21SAPC  H14C 2700   3.337   6.066  10.739 -0.0179 -0.9775 -1.0576
   21SAPC   C15 2701   3.327   5.849  10.918 -0.2811  0.2221  0.0066
   21SAPC  H15A 2702   3.280   5.903  10.999  1.0357  2.0003 -0.3789
   21SAPC  H15B 2703   3.250   5.840  10.843 -2.8943 -1.5081  2.7746
   21SAPC  H15C 2704   3.348   5.748  10.949  1.1356  0.6391  0.4129
   21SAPC   C11 2705   3.645   5.918  10.709 -0.4636  0.6611 -0.4684
   21SAPC  H11A 2706   3.622   6.023  10.683 -2.5031  0.5836  0.9478
   21SAPC  H11B 2707   3.678   5.858  10.621 -3.6408 -1.6681 -0.1507
   21SAPC     P 2708   3.835   5.791  10.844 -0.6469  0.5285  0.2092
   21SAPC   O13 2709   3.920   5.827  10.964  0.0768 -0.5847 -0.4533
   21SAPC   O14 2710   3.756   5.665  10.844  0.3523  0.1449 -0.6960
   21SAPC   O12 2711   3.747   5.917  10.812  0.1737  0.5862 -0.2528
   21SAPC   O11 2712   3.934   5.788  10.725 -0.4430 -0.3722  0.1378
   21SAPC    C1 2713   4.017   5.900  10.683  0.4271 -0.5167  0.5547
   21SAPC    HA 2714   4.027   5.983  10.757  2.2358  0.4875 -0.7846
   21SAPC    HB 2715   4.119   5.861  10.662  0.7085  0.5787 -0.1758
   21SAPC    C2 2716   3.965   5.964  10.553  0.8576  0.2702 -0.2470
   21SAPC    HS 2717   3.877   6.028  10.574 -0.6360 -1.5827 -0.7347
   21SAPC   O21 2718   3.932   5.857  10.461 -0.2994 -0.7139  0.5745
   21SAPC   C21 2719   3.834   5.892  10.378  0.1579  0.6444 -0.4509
   21SAPC   O22 2720   3.766   5.990  10.385 -0.1349  0.5088 -0.5648
   21SAPC   C22 2721   3.816   5.779  10.281  0.5726  0.4898  0.1809
   21SAPC   H2R 2722   3.867   5.809  10.187  0.7959 -0.0697  0.1234
   21SAPC   H2S 2723   3.869   5.688  10.316  1.1013  0.7127 -0.0336
   21SAPC    C3 2724   4.077   6.058  10.496  0.2380  0.3570  0.6052
   21SAPC    HX 2725   4.166   5.991  10.493  0.8918  1.2671 -2.5084
   21SAPC    HY 2726   4.093   6.130  10.580  1.2264  1.7056 -0.6988
   21SAPC   O31 2727   4.045   6.108  10.363  0.1426  0.3056 -0.1467
   21SAPC   C31 2728   3.977   6.216  10.369 -0.3861  0.9427  0.4837
   21SAPC   O32 2729   3.942   6.281  10.467 -0.0621  0.0417 -0.0605
   21SAPC   C32 2730   3.956   6.265  10.225  0.3720  0.3578 -0.4486
   21SAPC   H2X 2731   3.883   6.348  10.231 -3.2379 -2.5840 -1.9347
   21SAPC   H2Y 2732   3.909   6.178  10.174  0.6307 -0.3100  0.4283
   21SAPC   C23 2733   3.663   5.774  10.256  0.4520 -0.8471  0.0999
   21SAPC   H3R 2734   3.624   5.870  10.216 -2.6795 -1.4163  1.6320
   21SAPC   H3S 2735   3.608   5.743  10.347 -0.4235  0.1936 -0.0666
   21SAPC   C24 2736   3.621   5.661  10.159  0.2290  0.2216  0.5873
   21SAPC   H4R 2737   3.670   5.570  10.198  1.3351  0.1526 -0.9265
   21SAPC   H4S 2738   3.681   5.691  10.070 -0.1397  0.6172  0.4720
   21SAPC   C25 2739   3.473   5.647  10.144 -0.1416  0.1600  0.2982
   21SAPC   H5R 2740   3.407   5.710  10.207 -0.0401 -0.5550  1.1208
   21SAPC   C26 2741   3.423   5.564  10.049  0.7383 -0.3919  0.0264
   21SAPC   H6R 2742   3.314   5.558  10.042  0.6864  0.5527 -0.0471
   21SAPC   C27 2743   3.492   5.476   9.938 -0.7692  0.0574  0.2146
   21SAPC   H7R 2744   3.599   5.455   9.955 -0.8979 -1.2653 -0.4891
   21SAPC   H7S 2745   3.480   5.542   9.849 -0.1903  0.7897  0.6756
   21SAPC   C28 2746   3.429   5.345   9.903 -0.3352 -0.0960 -0.6414
   21SAPC   H8R 2747   3.417   5.277   9.989  0.9472  0.3481 -0.1070
   21SAPC   C29 2748   3.367   5.304   9.790 -1.1800  0.2248  0.3476
   21SAPC   H9R 2749   3.319   5.205   9.786 -0.1086 -0.2860 -0.2180
   21SAPC  C210 2750   3.344   5.390   9.666 -0.8091  0.0598 -0.3221
   21SAPC  H10R 2751   3.311   5.487   9.709 -0.6483  0.1878 -0.4901
   21SAPC  H10S 2752   3.253   5.346   9.619 -2.2379  0.8145  1.6854
   21SAPC  C211 2753   3.455   5.380   9.565 -0.1230  0.0803 -0.2120
   21SAPC  H11R 2754   3.550   5.428   9.592 -1.2238  0.3253  3.6084
   21SAPC  C212 2755   3.447   5.341   9.434 -0.7924  0.4504  0.5323
   21SAPC  H12R 2756   3.544   5.341   9.382  0.0591  0.7843  2.1101
   21SAPC  C213 2757   3.321   5.291   9.363  0.5389 -0.4667 -0.0858
   21SAPC  H13R 2758   3.318   5.353   9.271  0.1364  0.0769  0.2934
   21SAPC  H13S 2759   3.223   5.316   9.407  0.6741  1.0908 -0.6304
   21SAPC  C214 2760   3.325   5.137   9.332  0.1436  0.1144  0.1026
   21SAPC  H14R 2761   3.357   5.074   9.417  0.9494  0.7561  0.2737
   21SAPC  C215 2762   3.303   5.084   9.210 -0.0739  0.4376  0.1868
   21SAPC  H15R 2763   3.331   4.978   9.207  1.3418  0.6836  3.0509
   21SAPC  C216 2764   3.261   5.155   9.077  0.3312 -0.4529  0.3897
   21SAPC  H16R 2765   3.347   5.164   9.008 -0.1477  3.1271  0.1739
   21SAPC  H16S 2766   3.230   5.259   9.102  0.2362 -0.4137  0.1079
   21SAPC  C217 2767   3.158   5.080   9.001  0.5022  0.0811 -0.4486
   21SAPC  H17R 2768   3.084   5.052   9.079  1.7303  0.1793  0.7503
   21SAPC  H17S 2769   3.209   4.984   8.977 -1.1369 -0.6700 -1.0178
   21SAPC  C218 2770   3.091   5.144   8.876  0.3542  0.3876 -0.1841
   21SAPC  H18R 2771   3.009   5.214   8.905  1.8370  2.3941 -0.6780
   21SAPC  H18S 2772   3.053   5.055   8.821  3.5692 -1.8574  1.1226
   21SAPC  C219 2773   3.189   5.226   8.778  0.0456 -0.3472  0.4003
   21SAPC  H19R 2774   3.254   5.140   8.750 -1.5112 -1.5059  0.3254
   21SAPC  H19S 2775   3.251   5.303   8.829  2.3115 -1.3124 -0.8154
   21SAPC  C220 2776   3.117   5.298   8.652 -0.9340 -0.7185 -0.0181
   21SAPC  H20R 2777   3.069   5.218   8.591 -2.5743 -0.6966  1.2006
   21SAPC  H20S 2778   3.188   5.350   8.584 -2.0714  1.9004  0.7426
   21SAPC  H20T 2779   3.034   5.363   8.687 -1.3888 -0.7808 -0.9432
   21SAPC   C33 2780   4.083   6.309  10.160 -0.2570  0.4364 -0.5642
   21SAPC   H3X 2781   4.174   6.251  10.184 -0.9918  0.0293  1.3087
   21SAPC   H3Y 2782   4.096   6.409  10.207  0.1975  0.6250 -1.0862
   21SAPC   C34 2783   4.072   6.314  10.014 -0.3818  0.3958  0.2011
   21SAPC   H4X 2784   3.973   6.362  10.002 -1.0906 -1.4860 -1.7418
   21SAPC   H4Y 2785   4.070   6.216   9.962  1.4884  0.6824 -0.4381
   21SAPC   C35 2786   4.177   6.395   9.940 -0.2602  0.4995 -0.4757
   21SAPC   H5X 2787   4.273   6.340   9.935 -0.9549 -0.9323  1.4548
   21SAPC   H5Y 2788   4.203   6.484  10.002  0.9877 -0.9220  1.0786
   21SAPC   C36 2789   4.140   6.437   9.797 -0.4025  0.2805 -0.0316
   21SAPC   H6X 2790   4.225   6.491   9.749  1.0995  0.9346  3.2543
   21SAPC   H6Y 2791   4.063   6.517   9.787  2.1262  2.4840 -2.8106
   21SAPC   C37 2792   4.088   6.323   9.705 -0.6524  0.1786 -0.2195
   21SAPC   H7X 2793   4.008   6.270   9.761 -0.7880  0.6289  0.0115
   21SAPC   H7Y 2794   4.167   6.245   9.692 -1.0027  0.1401 -2.2728
   21SAPC   C38 2795   4.045   6.377   9.573 -0.0336  0.5745  0.1851
   21SAPC   H8X 2796   4.121   6.451   9.540 -0.6495 -0.5403 -4.0769
   21SAPC   H8Y 2797   3.957   6.443   9.586 -1.3401 -1.2818  0.9832
   21SAPC   C39 2798   4.025   6.274   9.458 -0.1164  0.5814 -0.5702
   21SAPC   H9X 2799   3.920   6.238   9.457  0.6079 -1.6158 -0.7656
   21SAPC   H9Y 2800   4.093   6.187   9.471  0.8391  1.7503  2.6423
   21SAPC  C310 2801   4.063   6.340   9.325 -0.3894 -0.1820  0.6009
   21SAPC  H10X 2802   4.165   6.381   9.340  0.1793 -0.6565 -1.6702
   21SAPC  H10Y 2803   4.007   6.436   9.314  1.3917  0.8055 -0.1050
   21SAPC  C311 2804   4.052   6.258   9.195 -0.6285 -0.1012  0.3560
   21SAPC  H11X 2805   4.099   6.158   9.208 -1.1229 -0.6278 -1.7374
   21SAPC  H11Y 2806   4.096   6.308   9.106  0.8100  1.0079  1.6509
   21SAPC  C312 2807   3.909   6.232   9.164  0.0937 -0.1280  0.5473
   21SAPC  H12X 2808   3.866   6.334   9.155 -1.6882 -1.0284 -1.8255
   21SAPC  H12Y 2809   3.854   6.189   9.250 -2.5379  0.1455 -0.9527
   21SAPC  C313 2810   3.878   6.153   9.035  0.2258  0.3078 -0.3276
   21SAPC  H13X 2811   3.948   6.069   9.017  1.2927  0.8834  1.0853
   21SAPC  H13Y 2812   3.898   6.226   8.953 -0.7618  1.1831  0.2094
   21SAPC  C314 2813   3.728   6.105   9.015 -0.1126  0.1662  0.5704
   21SAPC  H14X 2814   3.663   6.182   8.968  0.5054 -0.2107 -0.9372
   21SAPC  H14Y 2815   3.684   6.081   9.114  0.1784 -0.3206  0.5855
   21SAPC  C315 2816   3.718   5.972   8.940  0.4339  0.0261 -0.2223
   21SAPC  H15X 2817   3.612   5.941   8.945  0.2576  0.8485  1.7426
   21SAPC  H15Y 2818   3.786   5.911   9.004 -0.6872  0.7737  1.7524
   21SAPC  C316 2819   3.767   5.970   8.791  0.3433 -0.6904  0.3204
   21SAPC  H16X 2820   3.872   6.003   8.782  0.7875 -2.1828 -0.0864
   21SAPC  H16Y 2821   3.696   6.038   8.739  2.2186  2.0542  1.2564
   21SAPC  C317 2822   3.763   5.825   8.720  0.3502 -0.2436 -0.3807
   21SAPC  H17X 2823   3.659   5.789   8.707 -0.2575  0.3254  2.4955
   21SAPC  H17Y 2824   3.816   5.753   8.785  4.5234  1.4917 -1.7294
   21SAPC  C318 2825   3.839   5.835   8.585 -0.0395  1.1678 -0.6685
   21SAPC  H18X 2826   3.777   5.879   8.504 -0.7662 -1.2893 -1.5072
   21SAPC  H18Y 2827   3.874   5.733   8.559 -1.6387  0.1024  1.2108
   21SAPC  H18Z 2828   3.926   5.902   8.598 -0.3194  1.3210  0.4491
   22SAPC     N 2829   3.231   2.898  10.966 -0.2670 -0.0254  0.2363
   22SAPC   C12 2830   3.179   3.006  10.868 -0.3209 -0.0696  0.5492
   22SAPC  H12A 2831   3.197   2.971  10.768  0.9945 -0.7720  1.0156
   22SAPC  H12B 2832   3.239   3.096  10.860  0.6849 -0.7654  0.1814
   22SAPC   C13 2833   3.377   2.885  10.954  0.0723  0.1589  0.4701
   22SAPC  H13A 2834   3.420   2.799  11.002  0.1332  0.5676  1.1683
   22SAPC  H13B 2835   3.403   2.875  10.850  1.5076  1.6980  0.6672
   22SAPC  H13C 2836   3.423   2.973  10.996  1.1418 -0.3228  0.3132
   22SAPC   C14 2837   3.197   2.924  11.108  0.2760  0.1083 -0.2503
   22SAPC  H14A 2838   3.239   3.021  11.133  1.3050 -0.4496  0.2351
   22SAPC  H14B 2839   3.090   2.931  11.119  0.4752  1.2337  1.2755
   22SAPC  H14C 2840   3.241   2.857  11.181 -1.2302  1.2951  1.8315
   22SAPC   C15 2841   3.167   2.769  10.919 -0.1298  0.1244  0.3636
   22SAPC  H15A 2842   3.191   2.687  10.985 -0.8793  1.9620  3.0186
   22SAPC  H15B 2843   3.060   2.778  10.935  0.0687  0.6030  1.5022
   22SAPC  H15C 2844   3.189   2.740  10.817 -1.5631  1.0792 -0.2414
   22SAPC   C11 2845   3.038   3.047  10.876 -0.2763  0.0782  0.9786
   22SAPC  H11A 2846   3.027   3.106  10.969  1.0516 -0.1615  1.2911
   22SAPC  H11B 2847   2.979   2.954  10.883 -0.5920  0.2578  0.7533
   22SAPC     P 2848   2.889   3.224  10.766 -0.3524  0.1553  0.1147
   22SAPC   O13 2849   2.758   3.155  10.756 -0.1028  0.2429 -0.1741
   22SAPC   O14 2850   2.912   3.323  10.872  0.4259  0.0669  0.3993
   22SAPC   O12 2851   3.006   3.116  10.758 -0.7307 -0.2785 -0.0827
   22SAPC   O11 2852   2.895   3.300  10.623 -0.2287 -0.1987 -0.1942
   22SAPC    C1 2853   2.800   3.400  10.601 -0.1434 -0.6130  0.0917
   22SAPC    HA 2854   2.699   3.373  10.640 -0.4569 -1.9794 -1.5834
   22SAPC    HB 2855   2.829   3.493  10.655  1.2059 -0.6012 -0.6532
   22SAPC    C2 2856   2.788   3.449  10.454  0.0701 -0.2988 -0.7157
   22SAPC    HS 2857   2.737   3.548  10.465 -1.1172 -0.9362 -0.4636
   22SAPC   O21 2858   2.712   3.349  10.374 -0.3606 -0.2512 -0.6909
   22SAPC   C21 2859   2.613   3.397  10.294  0.5396 -0.0888 -0.0535
   22SAPC   O22 2860   2.594   3.521  10.282  0.0687  0.4471  0.6636
   22SAPC   C22 2861   2.542   3.289  10.220  0.0799  0.5685  0.5420
   22SAPC   H2R 2862   2.503   3.211  10.289  0.0542 -0.3383 -0.4847
   22SAPC   H2S 2863   2.450   3.326  10.168 -0.5879 -1.4698  0.2445
   22SAPC    C3 2864   2.930   3.461  10.389  0.0522 -0.0748 -0.2059
   22SAPC    HX 2865   2.975   3.359  10.378 -0.0311 -0.4052  2.2405
   22SAPC    HY 2866   2.999   3.513  10.459 -2.1013  2.4412  0.0967
   22SAPC   O31 2867   2.915   3.538  10.266  1.1598  0.1679  0.6897
   22SAPC   C31 2868   2.981   3.645  10.237 -0.0937  0.6551  0.2332
   22SAPC   O32 2869   3.062   3.702  10.308 -0.2377  0.0989 -0.2726
   22SAPC   C32 2870   2.937   3.692  10.098 -0.1122 -1.0218  0.7435
   22SAPC   H2X 2871   2.966   3.798  10.084 -0.1862 -1.1495 -0.4465
   22SAPC   H2Y 2872   2.828   3.674  10.089 -0.0277 -1.0712 -0.1799
   22SAPC   C23 2873   2.633   3.216  10.124 -0.5491 -0.1782  0.8315
   22SAPC   H3R 2874   2.572   3.129  10.093 -0.7990 -0.6120  2.4684
   22SAPC   H3S 2875   2.718   3.175  10.183  0.5474  0.2117 -0.4541
   22SAPC   C24 2876   2.686   3.295  10.003 -0.3673  0.2171  0.3224
   22SAPC   H4R 2877   2.753   3.227   9.947 -0.2534 -0.4626  1.2551
   22SAPC   H4S 2878   2.752   3.379  10.035 -0.7485 -0.3677  2.7885
   22SAPC   C25 2879   2.571   3.337   9.916 -0.3981 -0.4280 -0.0836
   22SAPC   H5R 2880   2.470   3.325   9.957 -0.5761  0.6948 -0.1841
   22SAPC   C26 2881   2.581   3.383   9.783  0.3693  0.2802  0.4982
   22SAPC   H6R 2882   2.493   3.407   9.722  0.7734 -1.7586 -0.9515
   22SAPC   C27 2883   2.710   3.410   9.719 -0.6903 -0.3489 -0.0650
   22SAPC   H7R 2884   2.760   3.315   9.690 -0.9092 -0.3955 -0.2972
   22SAPC   H7S 2885   2.772   3.464   9.794 -0.9103 -1.9743  1.3243
   22SAPC   C28 2886   2.694   3.495   9.598 -0.0970  0.6075  0.0351
   22SAPC   H8R 2887   2.611   3.567   9.598 -1.3434 -0.7949  0.0418
   22SAPC   C29 2888   2.749   3.483   9.473  0.2089  0.3207 -0.4599
   22SAPC   H9R 2889   2.724   3.559   9.398 -0.7165  0.2188 -0.2568
   22SAPC  C210 2890   2.830   3.368   9.427 -0.1570 -0.1503 -0.2476
   22SAPC  H10R 2891   2.823   3.279   9.493 -1.2356  0.3663  0.3371
   22SAPC  H10S 2892   2.933   3.410   9.428 -0.2514  0.1529 -1.7541
   22SAPC  C211 2893   2.795   3.310   9.290  0.5324 -0.4901  0.6254
   22SAPC  H11R 2894   2.687   3.299   9.276  0.6907 -1.0866 -0.1152
   22SAPC  C212 2895   2.881   3.279   9.192 -0.0660  0.2718 -0.0923
   22SAPC  H12R 2896   2.846   3.248   9.092  0.4565 -1.8918  0.3683
   22SAPC  C213 2897   3.031   3.278   9.202 -0.9862 -0.2555 -0.4127
   22SAPC  H13R 2898   3.054   3.365   9.268 -3.5300  1.0492 -1.1809
   22SAPC  H13S 2899   3.079   3.317   9.110 -0.6395  2.7574  0.9818
   22SAPC  C214 2900   3.081   3.141   9.232 -0.4383  0.3177  0.4658
   22SAPC  H14R 2901   3.002   3.071   9.263 -0.1887 -0.8913 -1.5287
   22SAPC  C215 2902   3.205   3.092   9.215  0.2456  0.1210  0.2013
   22SAPC  H15R 2903   3.220   2.983   9.217  0.8320  0.2151  2.2983
   22SAPC  C216 2904   3.329   3.168   9.174 -0.3928  0.0010 -0.6778
   22SAPC  H16R 2905   3.297   3.271   9.151 -1.9452 -0.6659 -1.5629
   22SAPC  H16S 2906   3.368   3.126   9.079 -0.4900 -4.3542  1.0594
   22SAPC  C217 2907   3.449   3.170   9.277  0.1507 -0.0176 -0.6937
   22SAPC  H17R 2908   3.550   3.168   9.232  0.2222  0.4161 -0.5520
   22SAPC  H17S 2909   3.443   3.088   9.352 -0.1052  0.4153 -0.2413
   22SAPC  C218 2910   3.438   3.289   9.375  0.0906  0.4026  0.1739
   22SAPC  H18R 2911   3.355   3.265   9.445  0.3308  0.8718  0.6325
   22SAPC  H18S 2912   3.419   3.387   9.326 -2.6766  0.3435  1.0318
   22SAPC  C219 2913   3.573   3.310   9.446  0.1404 -0.0717 -0.1543
   22SAPC  H19R 2914   3.656   3.308   9.372 -0.2689  0.1189 -0.6226
   22SAPC  H19S 2915   3.591   3.229   9.519  1.0376  0.4445  0.2139
   22SAPC  C220 2916   3.571   3.440   9.522  0.0294  0.1929  0.2702
   22SAPC  H20R 2917   3.478   3.453   9.582 -0.1539 -1.1306  0.2969
   22SAPC  H20S 2918   3.573   3.524   9.449  2.3780 -0.6693 -0.7082
   22SAPC  H20T 2919   3.663   3.448   9.583  1.2283 -0.7845 -1.3638
   22SAPC   C33 2920   3.007   3.602   9.984  0.2614  0.1206  0.1875
   22SAPC   H3X 2921   2.964   3.500   9.982  3.1859 -1.1115 -2.3688
   22SAPC   H3Y 2922   3.115   3.606  10.006  0.2514  1.0539  0.1126
   22SAPC   C34 2923   2.996   3.670   9.848 -0.7935 -0.3020 -0.0459
   22SAPC   H4X 2924   3.029   3.776   9.851  1.5132 -0.9863 -0.2699
   22SAPC   H4Y 2925   2.891   3.660   9.812 -0.6030 -1.4753 -0.2837
   22SAPC   C35 2926   3.078   3.596   9.744  0.2580 -0.8001 -0.4225
   22SAPC   H5X 2927   3.033   3.494   9.736 -0.0131 -0.5433 -2.4868
   22SAPC   H5Y 2928   3.183   3.597   9.779 -0.7184 -2.1656  2.7808
   22SAPC   C36 2929   3.069   3.667   9.604  0.0844  0.4815 -0.4040
   22SAPC   H6X 2930   3.113   3.769   9.614  1.4393 -0.0911 -0.5424
   22SAPC   H6Y 2931   2.965   3.683   9.567 -0.2540 -0.9085 -0.0688
   22SAPC   C37 2932   3.147   3.593   9.491  0.5538 -0.4797  0.1537
   22SAPC   H7X 2933   3.093   3.501   9.461 -3.0086  1.8616 -0.8834
   22SAPC   H7Y 2934   3.238   3.561   9.546  0.7126 -0.3885 -0.0540
   22SAPC   C38 2935   3.187   3.687   9.374  0.4805 -0.4960 -0.2586
   22SAPC   H8X 2936   3.232   3.778   9.418  0.9504 -1.2958  0.9402
   22SAPC   H8Y 2937   3.096   3.727   9.325  1.0724  0.9487 -0.1757
   22SAPC   C39 2938   3.310   3.636   9.297  0.0297  0.4445 -0.4085
   22SAPC   H9X 2939   3.279   3.560   9.223 -1.1244 -0.4656  0.9751
   22SAPC   H9Y 2940   3.392   3.593   9.358  0.0252 -1.2357 -1.5628
   22SAPC  C310 2941   3.365   3.751   9.212  0.1293 -0.2774  0.3799
   22SAPC  H10X 2942   3.475   3.766   9.224  0.1721 -0.6044  0.4143
   22SAPC  H10Y 2943   3.314   3.849   9.226 -1.7512 -1.4131  1.7558
   22SAPC  C311 2944   3.344   3.727   9.059 -0.3015 -0.5036  1.3301
   22SAPC  H11X 2945   3.240   3.692   9.045  0.1536 -2.9295  3.6553
   22SAPC  H11Y 2946   3.409   3.642   9.031 -0.8892 -1.5897  3.1897
   22SAPC  C312 2947   3.369   3.858   8.967 -0.2902 -0.1928 -0.7221
   22SAPC  H12X 2948   3.477   3.882   8.957  0.0442  0.0253  2.8652
   22SAPC  H12Y 2949   3.329   3.945   9.024 -1.7726 -0.7159 -0.9476
   22SAPC  C313 2950   3.302   3.853   8.836  0.0269 -0.1329  0.4550
   22SAPC  H13X 2951   3.193   3.836   8.852 -0.3314  1.6861  0.0408
   22SAPC  H13Y 2952   3.344   3.778   8.766 -1.6180 -0.8274  0.1733
   22SAPC  C314 2953   3.309   3.993   8.765 -0.6941 -0.0897  0.1641
   22SAPC  H14X 2954   3.412   4.004   8.726 -1.9404 -0.0871 -3.3108
   22SAPC  H14Y 2955   3.284   4.057   8.852 -0.6259  0.7198 -0.4125
   22SAPC  C315 2956   3.205   4.019   8.655 -0.1150 -0.4380  0.4833
   22SAPC  H15X 2957   3.103   3.992   8.690 -0.6288 -0.7370 -1.1745
   22SAPC  H15Y 2958   3.216   3.956   8.564 -0.7961 -1.9133  1.4095
   22SAPC  C316 2959   3.196   4.171   8.611 -0.3239 -0.8875 -0.4991
   22SAPC  H16X 2960   3.190   4.236   8.702 -0.9754 -1.7953  0.1119
   22SAPC  H16Y 2961   3.123   4.199   8.533  0.1265  0.2936 -0.5257
   22SAPC  C317 2962   3.335   4.202   8.547  0.4131  0.4532 -0.3158
   22SAPC  H17X 2963   3.350   4.131   8.463 -0.2120  0.0126 -0.0538
   22SAPC  H17Y 2964   3.425   4.193   8.611 -0.0632 -0.8882  0.1641
   22SAPC  C318 2965   3.322   4.336   8.489  0.1194 -0.0369 -0.0776
   22SAPC  H18X 2966   3.259   4.338   8.397  0.7700  1.5907 -0.4944
   22SAPC  H18Y 2967   3.421   4.364   8.448 -0.1090  0.5335 -0.2310
   22SAPC  H18Z 2968   3.289   4.411   8.564  0.9384 -1.0519  1.3321
   23SAPC     N 2969   4.118   5.091  10.639  0.3780  0.0055  0.5083
   23SAPC   C12 2970   4.256   5.025  10.614 -0.5795 -0.2940  0.3151
   23SAPC  H12A 2971   4.244   4.937  10.553  1.2698 -0.4945  0.2189
   23SAPC  H12B 2972   4.292   4.990  10.710  0.3120 -1.6690 -0.5045
   23SAPC   C13 2973   4.040   4.996  10.721  0.7173 -0.6359 -0.1418
   23SAPC  H13A 2974   4.051   4.895  10.685  2.0719 -1.6955  3.1222
   23SAPC  H13B 2975   4.060   4.999  10.827 -0.2389  0.2210  0.0241
   23SAPC  H13C 2976   3.935   5.016  10.710  0.7540  0.2675  1.0639
   23SAPC   C14 2977   4.130   5.225  10.706 -0.1254  0.1653 -0.3581
   23SAPC  H14A 2978   4.196   5.282  10.642 -0.9864  3.3787  1.5192
   23SAPC  H14B 2979   4.036   5.278  10.711  0.9801  2.1665 -0.1272
   23SAPC  H14C 2980   4.187   5.220  10.797 -0.6895  1.6715  0.0932
   23SAPC   C15 2981   4.041   5.098  10.507  0.1376 -0.1440  0.5798
   23SAPC  H15A 2982   4.027   5.003  10.459 -1.0005  0.2435  0.1270
   23SAPC  H15B 2983   3.945   5.145  10.517 -0.6404 -1.9937  2.0564
   23SAPC  H15C 2984   4.101   5.165  10.446 -1.9387  1.1829 -0.0488
   23SAPC   C11 2985   4.370   5.118  10.564  0.0222 -0.0117  0.6491
   23SAPC  H11A 2986   4.314   5.175  10.487 -0.6321 -1.0491  0.3599
   23SAPC  H11B 2987   4.445   5.042  10.535  1.2538  1.4636 -0.1427
   23SAPC     P 2988   4.519   5.329  10.623 -0.3933  0.1345  0.1278
   23SAPC   O13 2989   4.473   5.440  10.530 -0.3870 -0.0293 -0.6957
   23SAPC   O14 2990   4.581   5.380  10.746 -0.6949  0.3250  0.4845
   23SAPC   O12 2991   4.412   5.215  10.660 -0.3864 -0.8314  0.0250
   23SAPC   O11 2992   4.617   5.249  10.532  0.1939 -0.2837 -0.4028
   23SAPC    C1 2993   4.757   5.232  10.567 -0.2978 -0.1565  0.3207
   23SAPC    HA 2994   4.785   5.290  10.658 -1.5597 -1.6235  1.6833
   23SAPC    HB 2995   4.773   5.125  10.591 -2.4296 -0.4121  0.7291
   23SAPC    C2 2996   4.854   5.243  10.444 -0.5413 -0.3055 -1.2405
   23SAPC    HS 2997   4.869   5.350  10.420  0.4521 -0.1347  0.0692
   23SAPC   O21 2998   4.793   5.179  10.332  0.0514  0.1104 -0.3169
   23SAPC   C21 2999   4.711   5.243  10.252  0.0823 -0.0796  1.0910
   23SAPC   O22 3000   4.712   5.366  10.239  0.3658  0.7157  0.3125
   23SAPC   C22 3001   4.651   5.138  10.152 -0.1199  0.5463  0.3454
   23SAPC   H2R 3002   4.734   5.108  10.086  0.7454 -2.6346  2.7521
   23SAPC   H2S 3003   4.629   5.042  10.204  2.4314 -1.0142 -1.3867
   23SAPC    C3 3004   4.987   5.166  10.472  0.2252 -0.2605 -0.6445
   23SAPC    HX 3005   4.963   5.059  10.491 -2.3730  0.2903 -0.5351
   23SAPC    HY 3006   5.027   5.193  10.572 -0.3597  1.4108 -0.8531
   23SAPC   O31 3007   5.086   5.186  10.375  0.1623 -0.3709 -0.0460
   23SAPC   C31 3008   5.212   5.220  10.397 -0.4895 -0.4482 -0.5441
   23SAPC   O32 3009   5.272   5.224  10.506 -0.3770  0.0242  0.5813
   23SAPC   C32 3010   5.279   5.247  10.266 -0.5643  0.3296  0.3895
   23SAPC   H2X 3011   5.387   5.219  10.274 -0.2549  1.4238  0.1566
   23SAPC   H2Y 3012   5.287   5.357  10.251  1.6328 -0.0428 -1.6404
   23SAPC   C23 3013   4.540   5.189  10.070 -0.0953  0.1720  0.4194
   23SAPC   H3R 3014   4.522   5.122   9.984 -1.7113  1.1302 -0.0084
   23SAPC   H3S 3015   4.567   5.287  10.024 -0.3574 -0.4742 -1.1277
   23SAPC   C24 3016   4.413   5.205  10.145  0.0335  0.5806 -0.3106
   23SAPC   H4R 3017   4.339   5.250  10.074 -2.4955 -1.4080  0.9700
   23SAPC   H4S 3018   4.423   5.270  10.234 -2.9483  0.2010  0.3731
   23SAPC   C25 3019   4.351   5.073  10.176 -0.3800 -0.0254 -0.1648
   23SAPC   H5R 3020   4.345   5.061  10.285  0.6319 -0.5200 -0.1591
   23SAPC   C26 3021   4.295   4.981  10.092  0.4184 -0.4978 -0.1618
   23SAPC   H6R 3022   4.260   4.882  10.127 -1.5234  0.9108  2.0404
   23SAPC   C27 3023   4.296   4.999   9.937  0.1213 -0.2478 -0.3000
   23SAPC   H7R 3024   4.379   4.938   9.895  0.9587  2.0970 -2.1575
   23SAPC   H7S 3025   4.307   5.103   9.899 -1.5572 -0.0093 -0.1321
   23SAPC   C28 3026   4.178   4.941   9.870  0.2726 -0.2050  0.4867
   23SAPC   H8R 3027   4.079   4.932   9.917 -0.0596  2.4870  0.3865
   23SAPC   C29 3028   4.170   4.918   9.736 -0.3076  0.0820 -0.5866
   23SAPC   H9R 3029   4.078   4.880   9.690  1.2635 -2.5426 -1.6464
   23SAPC  C210 3030   4.280   4.939   9.642  0.5508  0.3001 -0.2077
   23SAPC  H10R 3031   4.382   4.930   9.685  0.6379 -2.1213 -0.8181
   23SAPC  H10S 3032   4.262   5.040   9.599 -0.4640  1.8723  3.7030
   23SAPC  C211 3033   4.266   4.827   9.538 -0.6837  0.0220  0.2716
   23SAPC  H11R 3034   4.283   4.723   9.570 -1.7479  0.3092  1.7778
   23SAPC  C212 3035   4.255   4.843   9.406  0.7169 -0.0679  0.2944
   23SAPC  H12R 3036   4.240   4.753   9.344  1.1528 -0.2238  0.4117
   23SAPC  C213 3037   4.261   4.976   9.330 -0.5728  0.2624 -0.9648
   23SAPC  H13R 3038   4.208   5.057   9.386  0.3644  1.4722 -1.8085
   23SAPC  H13S 3039   4.204   4.969   9.235  0.3288  1.1570 -1.5783
   23SAPC  C214 3040   4.406   5.006   9.295  0.5307 -0.0140 -0.3635
   23SAPC  H14R 3041   4.476   5.000   9.380 -0.7987 -0.2618  0.7415
   23SAPC  C215 3042   4.459   5.034   9.173 -0.2789  0.0244  0.3933
   23SAPC  H15R 3043   4.564   5.063   9.161 -0.4963 -0.4197 -3.2706
   23SAPC  C216 3044   4.386   5.027   9.042 -0.4271 -0.3371 -0.1546
   23SAPC  H16R 3045   4.276   5.021   9.050 -0.5336  1.8224  0.4283
   23SAPC  H16S 3046   4.419   4.942   8.979  1.0918 -0.9429  1.4063
   23SAPC  C217 3047   4.418   5.159   8.970  0.2338  0.0813  0.4829
   23SAPC  H17R 3048   4.518   5.162   8.922 -0.7178  0.1274 -1.5652
   23SAPC  H17S 3049   4.432   5.240   9.044 -2.3155  2.2528 -1.2958
   23SAPC  C218 3050   4.317   5.199   8.861 -0.0742  0.4288 -0.8288
   23SAPC  H18R 3051   4.359   5.293   8.819 -2.7568  2.3769  0.7043
   23SAPC  H18S 3052   4.215   5.213   8.901  0.3080 -0.9971  0.7132
   23SAPC  C219 3053   4.303   5.094   8.754  0.0980 -0.4978 -0.0700
   23SAPC  H19R 3054   4.243   5.013   8.801  2.2505 -1.1365  1.6385
   23SAPC  H19S 3055   4.400   5.044   8.734 -0.2887 -1.6105  0.7660
   23SAPC  C220 3056   4.233   5.140   8.621  0.2800 -0.3073  0.0051
   23SAPC  H20R 3057   4.210   5.044   8.570  0.3521 -0.7022  0.7081
   23SAPC  H20S 3058   4.306   5.203   8.565  0.2126 -1.7857 -1.7967
   23SAPC  H20T 3059   4.140   5.196   8.643  0.3707  1.1732 -3.1334
   23SAPC   C33 3060   5.213   5.188  10.142  0.0539  0.5793  0.4083
   23SAPC   H3X 3061   5.103   5.204  10.146  0.1754  1.2784  1.0311
   23SAPC   H3Y 3062   5.232   5.078  10.133  0.0657  0.7646 -2.0557
   23SAPC   C34 3063   5.266   5.262  10.016  0.8052  0.0973  0.0523
   23SAPC   H4X 3064   5.374   5.237  10.010  0.7103 -0.3529  0.1813
   23SAPC   H4Y 3065   5.234   5.368  10.027 -0.2295 -0.2087  0.0551
   23SAPC   C35 3066   5.223   5.209   9.885 -0.2904  0.7346  0.5255
   23SAPC   H5X 3067   5.113   5.225   9.872 -0.4225 -0.6259 -0.1522
   23SAPC   H5Y 3068   5.252   5.102   9.882 -0.5065  0.5572  3.4756
   23SAPC   C36 3069   5.310   5.273   9.775  0.1391 -0.0495  0.2972
   23SAPC   H6X 3070   5.417   5.241   9.778 -0.1943 -1.3242 -1.1803
   23SAPC   H6Y 3071   5.316   5.377   9.813 -0.2746 -0.4342  1.4316
   23SAPC   C37 3072   5.265   5.261   9.630 -0.5264  0.7260  0.2578
   23SAPC   H7X 3073   5.322   5.342   9.579  2.1881 -0.7133  0.9313
   23SAPC   H7Y 3074   5.157   5.278   9.612 -0.4203 -1.7849 -3.0631
   23SAPC   C38 3075   5.293   5.120   9.582 -0.0748  0.7481 -0.1431
   23SAPC   H8X 3076   5.227   5.058   9.648  0.4334 -0.5015 -0.7987
   23SAPC   H8Y 3077   5.400   5.109   9.610 -0.6206  1.3092  2.3717
   23SAPC   C39 3078   5.256   5.088   9.433 -0.0181 -0.4772  0.2299
   23SAPC   H9X 3079   5.145   5.087   9.440 -0.1469  2.3106 -0.9241
   23SAPC   H9Y 3080   5.291   4.987   9.405 -0.9029 -1.3241  2.0838
   23SAPC  C310 3081   5.292   5.190   9.326 -0.2150  0.0851  0.3358
   23SAPC  H10X 3082   5.398   5.221   9.316  0.1672 -1.7286 -1.6938
   23SAPC  H10Y 3083   5.248   5.288   9.352 -3.3103 -0.1032 -3.7870
   23SAPC  C311 3084   5.262   5.141   9.183 -0.1454 -0.0329 -0.2353
   23SAPC  H11X 3085   5.152   5.140   9.189 -0.0790 -0.7485  1.1727
   23SAPC  H11Y 3086   5.296   5.035   9.188  1.0349  0.2844 -1.2427
   23SAPC  C312 3087   5.325   5.215   9.072 -0.3007 -0.1040 -0.0430
   23SAPC  H12X 3088   5.293   5.168   8.977  1.1976  0.4760 -0.8599
   23SAPC  H12Y 3089   5.436   5.206   9.070 -0.4651 -2.2526 -1.3683
   23SAPC  C313 3090   5.282   5.363   9.068  0.4410 -0.1736 -0.4937
   23SAPC  H13X 3091   5.320   5.419   9.155  0.7840 -1.5204  0.2369
   23SAPC  H13Y 3092   5.171   5.366   9.078  0.6503 -0.9999  2.6595
   23SAPC  C314 3093   5.316   5.432   8.930 -0.3950 -0.4628 -0.8382
   23SAPC  H14X 3094   5.306   5.363   8.844  0.7749 -0.2294 -1.1676
   23SAPC  H14Y 3095   5.418   5.475   8.923 -0.5064 -0.2245 -0.9855
   23SAPC  C315 3096   5.225   5.552   8.904  0.3787  0.1603 -0.9366
   23SAPC  H15X 3097   5.243   5.627   8.984  1.0442  0.4892 -1.3840
   23SAPC  H15Y 3098   5.118   5.529   8.922  0.7528 -0.8958 -0.0288
   23SAPC  C316 3099   5.242   5.606   8.767 -0.0039  0.5656 -0.6181
   23SAPC  H16X 3100   5.211   5.525   8.697  0.5644 -0.3854  0.2196
   23SAPC  H16Y 3101   5.352   5.620   8.761  0.2367  0.6543  2.8424
   23SAPC  C317 3102   5.176   5.742   8.730  0.2625  0.5061 -0.7947
   23SAPC  H17X 3103   5.072   5.755   8.768 -1.1107 -0.7685 -3.9360
   23SAPC  H17Y 3104   5.164   5.731   8.620 -1.4765  0.0889 -0.5876
   23SAPC  C318 3105   5.270   5.865   8.771  0.3338  0.0939  1.0254
   23SAPC  H18X 3106   5.379   5.844   8.761  0.2827  0.3287 -0.1654
   23SAPC  H18Y 3107   5.255   5.872   8.880 -1.5177 -0.1390  0.7897
   23SAPC  H18Z 3108   5.235   5.957   8.718  0.5949  0.9196  2.2626
   24SAPC     N 3109   0.601   5.237  11.172  0.5070  0.0582  0.0820
   24SAPC   C12 3110   0.520   5.298  11.060  0.4137 -0.3365  0.3614
   24SAPC  H12A 3111   0.467   5.383  11.100  1.0018  0.4753 -0.5524
   24SAPC  H12B 3112   0.439   5.231  11.037  0.5216 -0.6600  0.9276
   24SAPC   C13 3113   0.656   5.105  11.124 -0.9513  0.0346  0.7936
   24SAPC  H13A 3114   0.583   5.042  11.077  0.5983 -2.7956  2.0783
   24SAPC  H13B 3115   0.736   5.115  11.052 -4.2761 -0.9026 -3.1963
   24SAPC  H13C 3116   0.695   5.047  11.206  0.1929  0.0023  0.2451
   24SAPC   C14 3117   0.713   5.322  11.217 -0.4980 -0.3926 -0.7357
   24SAPC  H14A 3118   0.676   5.414  11.260  0.3889 -0.3952  0.0474
   24SAPC  H14B 3119   0.782   5.268  11.280 -1.1386 -3.2697 -2.4073
   24SAPC  H14C 3120   0.771   5.343  11.129  0.9934 -1.7707 -0.1017
   24SAPC   C15 3121   0.516   5.218  11.298  0.3699  0.0118  0.0161
   24SAPC  H15A 3122   0.575   5.162  11.368  0.4013  1.2270  0.9728
   24SAPC  H15B 3123   0.488   5.310  11.347  1.6029  1.0922 -1.2450
   24SAPC  H15C 3124   0.424   5.166  11.275  0.9630 -0.9405 -0.2262
   24SAPC   C11 3125   0.589   5.343  10.934 -0.3158  0.3170  0.1978
   24SAPC  H11A 3126   0.531   5.413  10.868 -0.5549  1.8433  1.9874
   24SAPC  H11B 3127   0.613   5.255  10.871 -1.9521 -0.4156  0.5595
   24SAPC     P 3128   0.832   5.433  10.866 -0.0733 -0.0828  0.6451
   24SAPC   O13 3129   0.829   5.561  10.796  0.1165  0.3174 -0.2282
   24SAPC   O14 3130   0.951   5.417  10.948  0.2052  0.4696  0.3482
   24SAPC   O12 3131   0.702   5.427  10.960  0.5934  0.3176  0.0789
   24SAPC   O11 3132   0.816   5.312  10.765 -0.1515 -0.4438  0.1292
   24SAPC    C1 3133   0.916   5.247  10.697 -0.7340 -0.0207  1.0007
   24SAPC    HA 3134   0.951   5.303  10.608 -2.3013  0.9392  0.9685
   24SAPC    HB 3135   1.008   5.235  10.759  1.3841  0.8414 -1.8409
   24SAPC    C2 3136   0.875   5.109  10.649  0.0774 -0.1358 -0.2877
   24SAPC    HS 3137   0.961   5.058  10.601 -0.8251 -1.5166 -0.4596
   24SAPC   O21 3138   0.765   5.120  10.552  0.1427  0.1352 -0.3180
   24SAPC   C21 3139   0.790   5.171  10.431 -0.0891 -0.1294  0.4327
   24SAPC   O22 3140   0.897   5.223  10.404  0.0515 -0.0826 -0.1353
   24SAPC   C22 3141   0.668   5.155  10.338  0.7036 -0.6596  0.1852
   24SAPC   H2R 3142   0.586   5.101  10.390 -0.0584 -1.8850 -2.2429
   24SAPC   H2S 3143   0.619   5.247  10.302  2.8576 -0.5821 -2.6679
   24SAPC    C3 3144   0.831   5.025  10.768  0.0434 -0.3605  0.0223
   24SAPC    HX 3145   0.808   4.920  10.739 -1.4711 -0.0549  0.0459
   24SAPC    HY 3146   0.730   5.058  10.802  0.5201 -0.3588  1.4518
   24SAPC   O31 3147   0.913   5.052  10.887  0.8404  0.0843 -0.0694
   24SAPC   C31 3148   0.984   4.955  10.917  0.1219 -0.0372 -0.0493
   24SAPC   O32 3149   0.999   4.853  10.854  0.4894 -0.1281 -0.6973
   24SAPC   C32 3150   1.053   4.989  11.049  0.3083 -0.9761 -0.3042
   24SAPC   H2X 3151   1.095   4.894  11.088 -1.5365 -2.8665 -2.7548
   24SAPC   H2Y 3152   0.979   5.031  11.120 -1.2008 -0.0622 -2.3849
   24SAPC   C23 3153   0.705   5.070  10.203 -0.3189  0.0976 -0.2646
   24SAPC   H3R 3154   0.606   5.052  10.156 -1.0702 -1.4737  1.7940
   24SAPC   H3S 3155   0.750   4.978  10.245  1.1210  1.5526  1.4534
   24SAPC   C24 3156   0.815   5.133  10.122  0.2276  0.2133  0.1840
   24SAPC   H4R 3157   0.833   5.062  10.038 -1.3250 -0.9908  0.8620
   24SAPC   H4S 3158   0.910   5.144  10.178  0.9212  0.7661 -1.0798
   24SAPC   C25 3159   0.779   5.271  10.070 -0.0833  0.4110  0.0736
   24SAPC   H5R 3160   0.818   5.350  10.136  1.3187  1.6308 -2.1488
   24SAPC   C26 3161   0.710   5.290   9.959 -0.3716  0.1098 -0.2334
   24SAPC   H6R 3162   0.694   5.397   9.936 -1.2938 -0.0725 -0.4781
   24SAPC   C27 3163   0.650   5.190   9.870  0.0952  0.7627  0.1178
   24SAPC   H7R 3164   0.631   5.091   9.916 -2.4636  0.5177 -1.3475
   24SAPC   H7S 3165   0.736   5.169   9.803  1.4311 -1.5235  2.4609
   24SAPC   C28 3166   0.522   5.240   9.807 -0.1485  0.0046 -0.3266
   24SAPC   H8R 3167   0.437   5.236   9.877  1.4805 -0.4894  1.6906
   24SAPC   C29 3168   0.505   5.282   9.680 -0.3332  1.1555 -0.3582
   24SAPC   H9R 3169   0.404   5.301   9.642  0.1154  0.7450 -1.8156
   24SAPC  C210 3170   0.614   5.283   9.573 -0.4797  0.0640  0.1301
   24SAPC  H10R 3171   0.628   5.184   9.524  3.2677  0.6070 -0.0371
   24SAPC  H10S 3172   0.717   5.304   9.611 -0.2088 -0.4864 -0.2847
   24SAPC  C211 3173   0.600   5.385   9.459 -0.0373 -0.6336  0.6982
   24SAPC  H11R 3174   0.544   5.474   9.491  0.6953  0.0814  0.0356
   24SAPC  C212 3175   0.662   5.391   9.336  0.4689 -0.4671 -0.3629
   24SAPC  H12R 3176   0.636   5.480   9.277 -0.2510  0.4294  1.2683
   24SAPC  C213 3177   0.746   5.296   9.264 -0.1444 -0.5022 -0.0310
   24SAPC  H13R 3178   0.698   5.211   9.212 -0.7574 -0.4239  0.3994
   24SAPC  H13S 3179   0.812   5.243   9.335  0.7012  1.1294  0.4255
   24SAPC  C214 3180   0.842   5.363   9.162  0.7972 -0.0069 -0.3020
   24SAPC  H14R 3181   0.851   5.473   9.163 -0.7584  0.1550 -1.5028
   24SAPC  C215 3182   0.893   5.301   9.053  0.3096  0.6059  0.2676
   24SAPC  H15R 3183   0.955   5.356   8.981 -0.1739 -1.9064 -2.1499
   24SAPC  C216 3184   0.869   5.162   9.002 -0.2515  0.6609 -0.1322
   24SAPC  H16R 3185   0.786   5.122   9.064 -0.6342  0.5344 -0.7238
   24SAPC  H16S 3186   0.962   5.105   9.022 -1.5291 -1.8607 -1.0891
   24SAPC  C217 3187   0.829   5.161   8.860  0.6131  0.4111  0.0850
   24SAPC  H17R 3188   0.892   5.240   8.812  0.9647 -0.5468 -1.0573
   24SAPC  H17S 3189   0.725   5.188   8.833 -0.1317 -1.7225  0.7560
   24SAPC  C218 3190   0.849   5.018   8.806  0.2898 -0.3127 -0.1516
   24SAPC  H18R 3191   0.793   5.021   8.710 -3.0170 -0.1217  1.7118
   24SAPC  H18S 3192   0.815   4.948   8.885 -1.7102  0.3708 -0.3697
   24SAPC  C219 3193   0.998   4.976   8.787 -0.3534 -0.3023  0.3522
   24SAPC  H19R 3194   1.054   4.996   8.880 -1.6866  1.1478  0.8674
   24SAPC  H19S 3195   1.031   5.044   8.705  0.6897 -1.9918 -0.6566
   24SAPC  C220 3196   1.015   4.830   8.742  0.1006  0.0631 -0.0635
   24SAPC  H20R 3197   0.956   4.760   8.805 -1.7848 -0.0775 -1.9137
   24SAPC  H20S 3198   1.123   4.808   8.750  0.7607  3.2591  0.4695
   24SAPC  H20T 3199   0.975   4.807   8.641 -0.0134 -2.7038  0.5721
   24SAPC   C33 3200   1.155   5.104  11.038  0.0806 -0.1221 -0.7215
   24SAPC   H3X 3201   1.185   5.119  11.144 -0.0721 -0.2001 -0.6674
   24SAPC   H3Y 3202   1.106   5.196  11.000  0.3127  0.3963  0.2133
   24SAPC   C34 3203   1.285   5.060  10.966 -0.0413  0.1211 -0.2386
   24SAPC   H4X 3204   1.323   4.961  10.998  2.0961  1.2883  0.9242
   24SAPC   H4Y 3205   1.368   5.127  10.996 -0.1721 -0.0319  0.4815
   24SAPC   C35 3206   1.272   5.065  10.816 -0.8691 -0.2272 -0.5191
   24SAPC   H5X 3207   1.201   5.146  10.788  1.0389  1.1072 -1.5991
   24SAPC   H5Y 3208   1.213   4.981  10.775 -0.9853 -0.3082 -0.1930
   24SAPC   C36 3209   1.404   5.085  10.747  0.0415  0.3001 -0.9173
   24SAPC   H6X 3210   1.481   5.028  10.803  0.7887  3.4103  1.3762
   24SAPC   H6Y 3211   1.437   5.191  10.741 -0.7367  0.4505 -2.8302
   24SAPC   C37 3212   1.403   5.054  10.597 -0.3103  0.1424  0.0126
   24SAPC   H7X 3213   1.392   4.946  10.572  0.0731  0.0037  0.4200
   24SAPC   H7Y 3214   1.507   5.081  10.569 -0.5073  0.8886  0.0066
   24SAPC   C38 3215   1.288   5.126  10.519 -0.1662  0.1255 -0.3571
   24SAPC   H8X 3216   1.298   5.233  10.549  0.1186  0.6354 -2.2106
   24SAPC   H8Y 3217   1.188   5.091  10.551  0.7848 -1.1437  1.2982
   24SAPC   C39 3218   1.322   5.115  10.370  0.1313  0.1264  0.1592
   24SAPC   H9X 3219   1.323   5.010  10.334  1.3929 -0.2230  1.1480
   24SAPC   H9Y 3220   1.422   5.162  10.353 -0.7495  1.5466 -1.2045
   24SAPC  C310 3221   1.231   5.202  10.282  0.0798 -0.1484  0.6079
   24SAPC  H10X 3222   1.241   5.310  10.309  1.3182  0.4467 -2.0681
   24SAPC  H10Y 3223   1.127   5.170  10.301 -0.3585  2.4560  2.9521
   24SAPC  C311 3224   1.260   5.215  10.131 -0.0275  0.3695  0.6981
   24SAPC  H11X 3225   1.258   5.111  10.093 -1.1908  0.4503  0.5074
   24SAPC  H11Y 3226   1.364   5.251  10.115 -0.3608  2.6019  3.1384
   24SAPC  C312 3227   1.167   5.298  10.042  0.0007 -0.7972  0.2116
   24SAPC  H12X 3228   1.187   5.405  10.063  1.3791 -0.6561 -1.6940
   24SAPC  H12Y 3229   1.061   5.266  10.057  0.4092 -2.5087 -0.3948
   24SAPC  C313 3230   1.197   5.276   9.894 -0.5309 -0.0184  0.4422
   24SAPC  H13X 3231   1.179   5.169   9.870 -1.6509 -0.0426  1.3794
   24SAPC  H13Y 3232   1.304   5.307   9.892 -0.5559  0.0973  0.8428
   24SAPC  C314 3233   1.097   5.366   9.812  0.4759  0.4615  0.3916
   24SAPC  H14X 3234   1.124   5.474   9.822  2.7631 -0.1328  0.9030
   24SAPC  H14Y 3235   0.998   5.349   9.858  0.6977 -0.3610  0.5773
   24SAPC  C315 3236   1.078   5.329   9.663  0.6860  0.3024 -0.3273
   24SAPC  H15X 3237   1.020   5.234   9.661  0.3919  0.4945 -1.0604
   24SAPC  H15Y 3238   1.168   5.309   9.601 -1.5935 -2.8554 -2.7629
   24SAPC  C316 3239   0.986   5.430   9.595  0.0684  0.1062  0.7745
   24SAPC  H16X 3240   0.893   5.448   9.652 -0.3578  1.1581 -0.2192
   24SAPC  H16Y 3241   0.950   5.376   9.504  1.1072 -0.0094  0.4306
   24SAPC  C317 3242   1.057   5.554   9.556  0.3167  1.1063  0.2579
   24SAPC  H17X 3243   1.143   5.528   9.491 -1.0229 -0.1939 -1.0305
   24SAPC  H17Y 3244   1.093   5.593   9.654  0.4105 -0.5964  0.9098
   24SAPC  C318 3245   0.971   5.661   9.488  0.0223 -0.0012 -0.2199
   24SAPC  H18X 3246   1.025   5.757   9.473  2.7290 -1.5565 -0.7602
   24SAPC  H18Y 3247   0.881   5.678   9.550  0.6381  1.7632  0.2235
   24SAPC  H18Z 3248   0.951   5.629   9.383 -0.7107 -1.4178  0.3462
   25SAPC     N 3249   3.892   3.798   5.823 -0.2435 -0.6516 -0.4623
   25SAPC   C12 3250   3.867   3.692   5.934  0.4477  0.4384  0.1493
   25SAPC  H12A 3251   3.836   3.600   5.887 -0.5302  0.8724 -0.0699
   25SAPC  H12B 3252   3.780   3.729   5.985  0.7225 -1.7231  2.2553
   25SAPC   C13 3253   3.908   3.927   5.888 -0.1770 -0.2348 -1.2584
   25SAPC  H13A 3254   3.956   4.002   5.826 -0.5516  2.9030  2.0660
   25SAPC  H13B 3255   3.808   3.970   5.888  0.4098  1.1562 -0.8109
   25SAPC  H13C 3256   3.950   3.923   5.987 -2.5237  0.1078 -0.2012
   25SAPC   C14 3257   4.025   3.761   5.763 -1.0377  0.2967  0.5797
   25SAPC  H14A 3258   4.069   3.821   5.685 -1.3339  0.0782  0.2367
   25SAPC  H14B 3259   4.097   3.757   5.843  0.3398 -3.6312 -0.7133
   25SAPC  H14C 3260   4.021   3.659   5.725  4.0991  0.9000 -2.0276
   25SAPC   C15 3261   3.783   3.801   5.713  0.1530  0.2556 -0.7564
   25SAPC  H15A 3262   3.686   3.784   5.756 -0.3450  0.0937 -1.9381
   25SAPC  H15B 3263   3.782   3.894   5.658  0.2982  0.2304 -0.8043
   25SAPC  H15C 3264   3.795   3.718   5.645  0.3889  1.2982 -2.0022
   25SAPC   C11 3265   3.972   3.671   6.046  0.5094 -0.1637  0.3506
   25SAPC  H11A 3266   4.066   3.631   6.002  0.4904 -1.4474  1.4458
   25SAPC  H11B 3267   3.935   3.590   6.111  1.5189 -0.3224  0.7443
   25SAPC     P 3268   3.921   3.818   6.243  0.4217 -0.2592 -0.0858
   25SAPC   O13 3269   3.991   3.918   6.320 -0.6399 -0.9736 -0.2812
   25SAPC   O14 3270   3.786   3.847   6.195 -0.2320 -0.3983  0.1939
   25SAPC   O12 3271   4.014   3.784   6.122 -0.4829  0.0289 -0.3165
   25SAPC   O11 3272   3.911   3.693   6.330  0.2389  0.2800 -0.2267
   25SAPC    C1 3273   4.032   3.638   6.386  0.0577  0.1139  0.0943
   25SAPC    HA 3274   4.115   3.648   6.313  0.9487 -0.9201  0.9560
   25SAPC    HB 3275   4.055   3.700   6.475 -4.5287  0.8254  0.9450
   25SAPC    C2 3276   4.026   3.494   6.444 -0.0311  0.0004  0.6518
   25SAPC    HS 3277   3.996   3.424   6.363 -0.9400  1.2775 -0.1427
   25SAPC   O21 3278   3.947   3.491   6.565 -0.0385  0.0170  0.1641
   25SAPC   C21 3279   3.893   3.365   6.577 -0.4496 -0.2042 -0.2763
   25SAPC   O22 3280   3.902   3.277   6.493  0.7052  0.0889 -0.2137
   25SAPC   C22 3281   3.828   3.344   6.723 -0.6772 -0.0774  0.6266
   25SAPC   H2R 3282   3.899   3.397   6.790  0.8205 -0.8737 -0.3058
   25SAPC   H2S 3283   3.730   3.396   6.725  0.3521  1.9793 -0.2336
   25SAPC    C3 3284   4.173   3.460   6.480  0.4005  0.6863 -0.2088
   25SAPC    HX 3285   4.217   3.449   6.379  0.8754  0.7197 -0.0088
   25SAPC    HY 3286   4.174   3.361   6.531 -1.8860  0.6958 -0.1062
   25SAPC   O31 3287   4.239   3.563   6.556 -0.0973 -0.2246 -0.3970
   25SAPC   C31 3288   4.369   3.582   6.525 -0.3410 -0.3342 -0.1017
   25SAPC   O32 3289   4.430   3.529   6.434  0.5617 -0.1258 -0.3598
   25SAPC   C32 3290   4.437   3.675   6.630  0.0659  0.3456  0.1659
   25SAPC   H2X 3291   4.440   3.634   6.734 -0.5066  0.1006  0.0869
   25SAPC   H2Y 3292   4.384   3.771   6.649 -0.9127 -0.2324  0.3868
   25SAPC   C23 3293   3.822   3.198   6.759 -0.5914  0.5733  0.1969
   25SAPC   H3R 3294   3.767   3.141   6.681  0.3375 -0.7786  0.5102
   25SAPC   H3S 3295   3.758   3.191   6.851 -0.4063 -0.4999  0.2490
   25SAPC   C24 3296   3.950   3.122   6.797 -0.3081  0.3285  0.0992
   25SAPC   H4R 3297   4.014   3.106   6.707 -0.9400  1.0070 -0.4765
   25SAPC   H4S 3298   3.922   3.020   6.832  2.2949 -0.9864 -1.4630
   25SAPC   C25 3299   4.032   3.198   6.898 -0.0972 -0.7860 -0.0705
   25SAPC   H5R 3300   4.114   3.265   6.869  0.8348 -0.5328  2.9102
   25SAPC   C26 3301   4.011   3.192   7.034  0.0198 -0.2894  0.2349
   25SAPC   H6R 3302   4.066   3.255   7.105 -0.7588  3.4599 -2.3042
   25SAPC   C27 3303   3.917   3.099   7.105  0.3487 -0.6283 -0.6025
   25SAPC   H7R 3304   3.967   3.051   7.191 -0.6671  2.2078  1.6701
   25SAPC   H7S 3305   3.884   3.023   7.031  0.2631 -0.2991 -0.9078
   25SAPC   C28 3306   3.793   3.171   7.157 -0.2539 -0.0146  0.8159
   25SAPC   H8R 3307   3.746   3.249   7.093  1.6670  0.1186 -0.4679
   25SAPC   C29 3308   3.747   3.162   7.281  0.8194 -0.7966 -0.2369
   25SAPC   H9R 3309   3.665   3.228   7.314  0.4976 -1.0070 -0.6051
   25SAPC  C210 3310   3.792   3.062   7.390  0.1532 -0.3121  0.1806
   25SAPC  H10R 3311   3.816   2.970   7.332 -0.2858 -0.6176  0.4820
   25SAPC  H10S 3312   3.706   3.037   7.456  0.1976 -1.1129 -0.0629
   25SAPC  C211 3313   3.921   3.094   7.463  0.5871  0.0937  0.0669
   25SAPC  H11R 3314   4.009   3.095   7.396  0.2220  2.0230 -0.4077
   25SAPC  C212 3315   3.932   3.129   7.594 -0.0862  0.3291 -0.6001
   25SAPC  H12R 3316   4.034   3.167   7.615 -0.8659  1.3612  1.4814
   25SAPC  C213 3317   3.827   3.155   7.694 -0.2866 -0.7579 -0.1242
   25SAPC  H13R 3318   3.802   3.058   7.743 -2.3881  0.6106  1.6203
   25SAPC  H13S 3319   3.733   3.182   7.641 -0.8487 -0.9369  0.7674
   25SAPC  C214 3320   3.870   3.262   7.795  0.7158  0.6402 -1.1284
   25SAPC  H14R 3321   3.883   3.363   7.753  2.8017  0.8293 -0.1141
   25SAPC  C215 3322   3.887   3.247   7.929 -0.2491 -0.8199 -0.1564
   25SAPC  H15R 3323   3.922   3.330   7.991 -2.9785 -1.1582  1.9233
   25SAPC  C216 3324   3.861   3.127   8.015 -0.4396  0.5534  0.1680
   25SAPC  H16R 3325   3.936   3.104   8.094 -0.2526 -0.1183 -0.1998
   25SAPC  H16S 3326   3.853   3.038   7.948  0.8869  0.4828  0.0882
   25SAPC  C217 3327   3.733   3.147   8.094 -0.5866  0.8371 -0.5493
   25SAPC  H17R 3328   3.646   3.174   8.031 -1.2726 -0.1113 -0.0170
   25SAPC  H17S 3329   3.749   3.235   8.161 -0.5891 -1.5452  2.7456
   25SAPC  C218 3330   3.686   3.021   8.174 -0.5157  0.2852 -0.2490
   25SAPC  H18R 3331   3.680   2.933   8.106 -1.1179 -0.2175  0.4347
   25SAPC  H18S 3332   3.581   3.048   8.201 -0.3165  1.0725 -0.2677
   25SAPC  C219 3333   3.779   2.985   8.295 -0.0238 -0.4607  0.8580
   25SAPC  H19R 3334   3.883   2.985   8.258  0.4896  0.6345  2.2659
   25SAPC  H19S 3335   3.750   2.884   8.331 -0.7138 -0.3443  0.6469
   25SAPC  C220 3336   3.759   3.079   8.414 -0.1836 -0.2686 -0.7717
   25SAPC  H20R 3337   3.816   3.171   8.389  2.1141 -2.2118 -2.8889
   25SAPC  H20S 3338   3.791   3.042   8.514  1.4824  0.0482 -1.1709
   25SAPC  H20T 3339   3.649   3.093   8.418 -0.3517 -1.6668 -0.1177
   25SAPC   C33 3340   4.586   3.701   6.587  0.1522  0.5370 -0.9898
   25SAPC   H3X 3341   4.596   3.749   6.487  1.9084 -0.4869 -1.3269
   25SAPC   H3Y 3342   4.645   3.606   6.586  1.3955  1.2916 -0.6556
   25SAPC   C34 3343   4.661   3.798   6.690 -0.5125  0.0282 -0.3791
   25SAPC   H4X 3344   4.611   3.893   6.717  0.6761  0.0805  1.7434
   25SAPC   H4Y 3345   4.758   3.816   6.640 -1.3373  0.8240 -1.7126
   25SAPC   C35 3346   4.688   3.729   6.823 -0.8919 -0.3802  0.4108
   25SAPC   H5X 3347   4.683   3.620   6.807 -0.3437 -0.1704 -1.2765
   25SAPC   H5Y 3348   4.606   3.763   6.890 -0.3534 -1.1425  1.4664
   25SAPC   C36 3349   4.814   3.782   6.893  0.0740  0.0958 -0.0581
   25SAPC   H6X 3350   4.791   3.890   6.905  1.2481  0.3960 -0.4453
   25SAPC   H6Y 3351   4.895   3.766   6.818  0.6550  1.0152  0.3673
   25SAPC   C37 3352   4.839   3.703   7.018 -0.6774 -0.0741  0.3449
   25SAPC   H7X 3353   4.838   3.593   6.999  3.9068 -0.3091  0.9213
   25SAPC   H7Y 3354   4.762   3.726   7.095 -0.4955 -0.2311  0.5789
   25SAPC   C38 3355   4.970   3.751   7.071 -0.4110 -0.5718  1.2727
   25SAPC   H8X 3356   4.951   3.859   7.093  0.7012  0.1816 -1.3489
   25SAPC   H8Y 3357   5.044   3.751   6.988 -0.4924  0.8294  1.1874
   25SAPC   C39 3358   5.015   3.696   7.211  0.1727  0.7472 -0.3306
   25SAPC   H9X 3359   5.109   3.742   7.247  0.8782 -1.6833  1.0676
   25SAPC   H9Y 3360   5.052   3.591   7.217  0.8782  1.0029 -0.1667
   25SAPC  C310 3361   4.908   3.718   7.319  0.0535  0.2622  0.6254
   25SAPC  H10X 3362   4.824   3.647   7.306  1.2766 -0.9225 -0.9879
   25SAPC  H10Y 3363   4.867   3.821   7.312  2.0155  1.0593  0.7649
   25SAPC  C311 3364   4.968   3.709   7.461  0.0271 -0.2790  0.9046
   25SAPC  H11X 3365   5.070   3.752   7.449  0.0154 -1.0623 -2.5775
   25SAPC  H11Y 3366   4.988   3.609   7.503  1.0060 -0.3729  0.2384
   25SAPC  C312 3367   4.876   3.779   7.565  0.0213 -0.2084  0.2614
   25SAPC  H12X 3368   4.776   3.738   7.541  0.1641 -0.0930 -0.5551
   25SAPC  H12Y 3369   4.855   3.886   7.543  1.7193  0.1648  0.3743
   25SAPC  C313 3370   4.902   3.772   7.715  0.1254  0.0507  0.1535
   25SAPC  H13X 3371   4.921   3.669   7.753  0.0790  0.7341  2.0854
   25SAPC  H13Y 3372   4.828   3.811   7.788 -0.2525 -0.8138  0.2362
   25SAPC  C314 3373   5.020   3.862   7.742  0.3724 -0.0590  0.0445
   25SAPC  H14X 3374   4.999   3.968   7.713 -0.5670 -0.1411  0.4272
   25SAPC  H14Y 3375   5.103   3.832   7.675  1.0710  1.8621  0.0117
   25SAPC  C315 3376   5.060   3.867   7.890 -0.1684 -0.2076 -0.1666
   25SAPC  H15X 3377   5.065   3.769   7.943  1.4537  0.6697  1.3810
   25SAPC  H15Y 3378   4.975   3.916   7.941  0.2779 -0.4089  0.7897
   25SAPC  C316 3379   5.200   3.926   7.915  0.0879  0.2507 -0.6034
   25SAPC  H16X 3380   5.202   4.022   7.859 -0.4434 -0.0861 -1.2154
   25SAPC  H16Y 3381   5.278   3.864   7.867  0.4657  0.8333 -0.7531
   25SAPC  C317 3382   5.237   3.942   8.068  0.2256  0.3147  0.3356
   25SAPC  H17X 3383   5.212   3.842   8.107 -0.7560  0.6332  0.5394
   25SAPC  H17Y 3384   5.168   4.012   8.120  1.4088  1.6156  0.2021
   25SAPC  C318 3385   5.381   3.972   8.092  0.4037 -0.0116 -0.1691
   25SAPC  H18X 3386   5.400   4.078   8.064 -0.0317 -0.2362 -1.3363
   25SAPC  H18Y 3387   5.446   3.909   8.029  0.1017  1.1665 -1.6643
   25SAPC  H18Z 3388   5.390   3.963   8.203 -0.0322  3.3168  0.1977
   26SAPC     N 3389   3.539   5.362   6.319  0.7403  0.5129  0.0420
   26SAPC   C12 3390   3.558   5.210   6.328 -0.5737 -0.6017 -0.1472
   26SAPC  H12A 3391   3.459   5.173   6.348 -0.7218 -0.1940 -0.1270
   26SAPC  H12B 3392   3.614   5.197   6.420 -0.2165 -2.1773 -0.5699
   26SAPC   C13 3393   3.670   5.429   6.327  0.4957 -0.0233  0.1630
   26SAPC  H13A 3394   3.718   5.396   6.418 -0.8463  1.6446  1.5302
   26SAPC  H13B 3395   3.733   5.405   6.243 -0.0341 -0.5656 -0.0785
   26SAPC  H13C 3396   3.649   5.535   6.337  2.0176  0.2367  0.6740
   26SAPC   C14 3397   3.467   5.403   6.193 -0.1879 -0.1392  0.2753
   26SAPC  H14A 3398   3.523   5.355   6.114  1.8584 -2.2661  2.9118
   26SAPC  H14B 3399   3.368   5.361   6.182  0.3399 -0.9403 -1.6569
   26SAPC  H14C 3400   3.459   5.511   6.192 -0.2765 -0.1316  1.3801
   26SAPC   C15 3401   3.465   5.403   6.446  0.8852  0.4731  0.5983
   26SAPC  H15A 3402   3.367   5.358   6.453  1.0843  0.0635  0.7207
   26SAPC  H15B 3403   3.523   5.374   6.532  0.8200  2.0955  1.2081
   26SAPC  H15C 3404   3.442   5.508   6.453 -0.4184  0.2762 -0.4503
   26SAPC   C11 3405   3.618   5.131   6.209  1.5234 -0.2043 -0.1053
   26SAPC  H11A 3406   3.546   5.137   6.124 -1.4140 -4.2025  1.9321
   26SAPC  H11B 3407   3.625   5.026   6.244 -0.3332 -0.3324 -0.0657
   26SAPC     P 3408   3.866   5.109   6.248 -0.1304 -0.1077  0.4657
   26SAPC   O13 3409   3.897   4.990   6.168 -0.1562  0.9235 -0.1420
   26SAPC   O14 3410   3.978   5.207   6.272 -0.4790  0.1654  0.1682
   26SAPC   O12 3411   3.747   5.174   6.178  0.3396 -0.6121  0.1545
   26SAPC   O11 3412   3.813   5.064   6.393 -0.4382  0.1254 -0.1653
   26SAPC    C1 3413   3.804   4.930   6.432  0.0047 -0.3836  0.5839
   26SAPC    HA 3414   3.708   4.882   6.401 -0.1740 -0.0220  0.5667
   26SAPC    HB 3415   3.893   4.870   6.404 -0.4145 -1.5364  1.6878
   26SAPC    C2 3416   3.791   4.918   6.585  0.1598  0.3820 -0.6342
   26SAPC    HS 3417   3.761   4.815   6.613  1.4258  0.0820 -0.3433
   26SAPC   O21 3418   3.690   5.015   6.619 -0.1861 -0.7261  0.6092
   26SAPC   C21 3419   3.572   4.962   6.660  0.1150 -0.7102 -0.2032
   26SAPC   O22 3420   3.537   4.849   6.653 -0.0434  0.0221  0.8888
   26SAPC   C22 3421   3.498   5.073   6.735 -0.0565  0.6571  0.4335
   26SAPC   H2R 3422   3.573   5.139   6.783  2.0944 -1.9771  0.8587
   26SAPC   H2S 3423   3.438   5.125   6.658 -2.5619  2.2261  3.3838
   26SAPC    C3 3424   3.926   4.953   6.661 -0.1454  0.5321  0.1809
   26SAPC    HX 3425   3.985   5.039   6.624 -1.4835  1.6572  0.5898
   26SAPC    HY 3426   3.984   4.861   6.641 -1.1997 -0.2216  0.5315
   26SAPC   O31 3427   3.912   4.957   6.803 -0.1183  0.0308  0.1511
   26SAPC   C31 3428   3.885   5.079   6.848  0.0274 -1.0099 -0.2725
   26SAPC   O32 3429   3.862   5.181   6.781 -0.0151  0.0821 -0.3136
   26SAPC   C32 3430   3.901   5.083   7.004 -0.5746 -0.2672 -0.1684
   26SAPC   H2X 3431   4.000   5.049   7.040  1.2793  4.1708 -0.6759
   26SAPC   H2Y 3432   3.829   5.007   7.041  0.5258 -1.1350  0.1982
   26SAPC   C23 3433   3.397   5.030   6.839  0.5055  0.9556 -0.9776
   26SAPC   H3R 3434   3.321   4.965   6.790 -1.4165  1.9473  0.5998
   26SAPC   H3S 3435   3.342   5.111   6.893  0.4584  0.1023  0.2733
   26SAPC   C24 3436   3.457   4.943   6.947 -0.3759  0.5684  0.2795
   26SAPC   H4R 3437   3.533   5.007   6.997  2.6379 -1.8469 -1.0942
   26SAPC   H4S 3438   3.512   4.863   6.894 -0.3457  0.2608  0.7799
   26SAPC   C25 3439   3.362   4.875   7.043  0.2681  0.2834  0.0452
   26SAPC   H5R 3440   3.304   4.794   6.996 -1.1219  0.2600  1.7726
   26SAPC   C26 3441   3.339   4.904   7.172 -0.0506  0.1201  0.7185
   26SAPC   H6R 3442   3.271   4.834   7.221  1.3094 -1.1011  0.9052
   26SAPC   C27 3443   3.402   5.016   7.249  0.1050  0.3838 -0.0936
   26SAPC   H7R 3444   3.467   5.084   7.191 -1.3857  0.9257 -1.1687
   26SAPC   H7S 3445   3.466   4.972   7.329  1.7852  2.2831 -0.3672
   26SAPC   C28 3446   3.299   5.103   7.317 -0.8402  0.2066  0.0756
   26SAPC   H8R 3447   3.237   5.149   7.238 -0.2834  0.4643 -0.2119
   26SAPC   C29 3448   3.286   5.133   7.448  0.7309 -0.2877 -0.4290
   26SAPC   H9R 3449   3.207   5.197   7.490 -0.0004 -0.3133 -1.7359
   26SAPC  C210 3450   3.378   5.086   7.566  0.4862 -0.3308 -0.3415
   26SAPC  H10R 3451   3.411   5.169   7.633 -0.6813  1.6651 -2.1870
   26SAPC  H10S 3452   3.465   5.026   7.533 -0.7720 -1.0497 -2.4266
   26SAPC  C211 3453   3.308   4.987   7.658  0.4953 -0.4657 -0.6945
   26SAPC  H11R 3454   3.215   4.945   7.618 -1.7282  1.1627  2.5093
   26SAPC  C212 3455   3.362   4.950   7.780 -0.2451  0.2034  0.0746
   26SAPC  H12R 3456   3.309   4.875   7.841  0.6106 -2.0533 -1.8485
   26SAPC  C213 3457   3.493   4.987   7.843 -0.8131 -0.2321 -0.0431
   26SAPC  H13R 3458   3.553   5.048   7.772 -1.3123  0.8823  0.4724
   26SAPC  H13S 3459   3.550   4.899   7.881 -1.2947 -2.2081 -3.7301
   26SAPC  C214 3460   3.465   5.078   7.961 -0.6135  0.3612 -0.0682
   26SAPC  H14R 3461   3.381   5.149   7.958  0.4256  1.7219  1.3971
   26SAPC  C215 3462   3.531   5.061   8.076  0.3148 -0.4369  0.0371
   26SAPC  H15R 3463   3.497   5.118   8.163  2.8324  3.0333 -1.1278
   26SAPC  C216 3464   3.648   4.969   8.106 -0.1267 -0.0891  0.3537
   26SAPC  H16R 3465   3.735   5.021   8.151  1.1946 -0.6019 -1.5514
   26SAPC  H16S 3466   3.678   4.913   8.015  0.0102  1.1832 -0.3927
   26SAPC  C217 3467   3.604   4.858   8.204 -0.0124 -0.1395 -0.7586
   26SAPC  H17R 3468   3.516   4.800   8.171 -0.5672  1.7085 -2.6939
   26SAPC  H17S 3469   3.573   4.908   8.298  0.5923 -1.6445  0.2573
   26SAPC  C218 3470   3.722   4.761   8.241 -0.1772  0.4177 -0.2714
   26SAPC  H18R 3471   3.800   4.821   8.293 -0.0583 -1.5976  1.9638
   26SAPC  H18S 3472   3.771   4.729   8.147  0.3645  0.1654  0.0963
   26SAPC  C219 3473   3.684   4.631   8.316  0.0644  1.0581 -0.0778
   26SAPC  H19R 3474   3.773   4.567   8.329 -1.6876 -1.1043  1.6049
   26SAPC  H19S 3475   3.608   4.557   8.282 -1.4583  1.0205  3.1988
   26SAPC  C220 3476   3.623   4.660   8.452 -0.4545  0.2529 -0.0287
   26SAPC  H20R 3477   3.685   4.721   8.520  0.5436  0.9338 -1.5109
   26SAPC  H20S 3478   3.626   4.557   8.494  1.3044 -0.2839 -1.3644
   26SAPC  H20T 3479   3.517   4.692   8.450 -0.1517  1.3394  0.6477
   26SAPC   C33 3480   3.866   5.224   7.054 -0.2076  0.1661 -0.3615
   26SAPC   H3X 3481   3.763   5.247   7.018 -0.2082  1.1575  0.2596
   26SAPC   H3Y 3482   3.937   5.297   7.010  0.2008  0.0129  0.0403
   26SAPC   C34 3483   3.870   5.239   7.205 -0.3231  0.0760 -0.4361
   26SAPC   H4X 3484   3.847   5.342   7.239 -1.9480 -0.9364  1.6361
   26SAPC   H4Y 3485   3.977   5.218   7.223 -0.4078  0.0191 -0.0064
   26SAPC   C35 3486   3.799   5.134   7.299 -0.2378  0.6062 -0.1552
   26SAPC   H5X 3487   3.820   5.031   7.263 -0.1004  0.9254 -1.0123
   26SAPC   H5Y 3488   3.692   5.162   7.292 -0.4846 -0.6937 -2.1303
   26SAPC   C36 3489   3.844   5.134   7.446  0.8942 -0.4133  0.0109
   26SAPC   H6X 3490   3.847   5.241   7.476  0.1938 -0.1056 -0.9946
   26SAPC   H6Y 3491   3.948   5.096   7.449  1.5579  1.2619 -0.7750
   26SAPC   C37 3492   3.748   5.050   7.535 -0.1542  0.0520 -0.0931
   26SAPC   H7X 3493   3.699   4.967   7.479  2.0014  0.8633 -3.2901
   26SAPC   H7Y 3494   3.670   5.114   7.582 -0.0036 -0.0098  0.2445
   26SAPC   C38 3495   3.832   4.983   7.655  0.2067 -0.0947  0.1242
   26SAPC   H8X 3496   3.906   4.911   7.613 -0.2102 -0.9667  0.8683
   26SAPC   H8Y 3497   3.765   4.916   7.712  1.9432 -1.1022  1.0148
   26SAPC   C39 3498   3.899   5.078   7.754 -0.0752 -0.7375  0.1173
   26SAPC   H9X 3499   3.813   5.128   7.803  1.1450  2.8344 -1.2224
   26SAPC   H9Y 3500   3.956   5.152   7.695 -0.9691 -0.9953 -1.0909
   26SAPC  C310 3501   3.993   5.014   7.860  0.0194  0.0445  0.1678
   26SAPC  H10X 3502   4.070   4.956   7.804  0.2184  0.7486 -0.3003
   26SAPC  H10Y 3503   3.931   4.951   7.927 -1.8685  1.0810 -0.5900
   26SAPC  C311 3504   4.072   5.122   7.942 -0.0440 -0.5154 -0.8081
   26SAPC  H11X 3505   4.015   5.153   8.032  0.4568 -0.2696 -0.5704
   26SAPC  H11Y 3506   4.082   5.213   7.879  2.1572 -0.1795 -0.0323
   26SAPC  C312 3507   4.204   5.064   8.000  0.1982  0.4280 -0.0260
   26SAPC  H12X 3508   4.279   5.026   7.927  0.1031 -0.7828  0.4968
   26SAPC  H12Y 3509   4.184   4.971   8.057 -0.6200  0.2136 -0.6535
   26SAPC  C313 3510   4.270   5.162   8.101 -0.8456  0.1410 -1.0900
   26SAPC  H13X 3511   4.188   5.182   8.174 -1.0072 -0.4326 -1.1118
   26SAPC  H13Y 3512   4.302   5.245   8.035 -2.5024  0.2905 -1.7514
   26SAPC  C314 3513   4.394   5.106   8.175 -0.9217  0.2234  0.2850
   26SAPC  H14X 3514   4.474   5.077   8.103  0.2161  1.6410  0.9557
   26SAPC  H14Y 3515   4.349   5.026   8.237  0.1415  0.0727  0.8602
   26SAPC  C315 3516   4.446   5.203   8.283  0.3349 -0.2031  0.5441
   26SAPC  H15X 3517   4.509   5.167   8.368  0.2903 -1.9279 -0.1349
   26SAPC  H15Y 3518   4.369   5.257   8.342  1.3664  0.4348  1.3263
   26SAPC  C316 3519   4.529   5.316   8.214  0.0918 -0.3736  0.1697
   26SAPC  H16X 3520   4.467   5.361   8.133  0.8060  0.9809  0.3732
   26SAPC  H16Y 3521   4.619   5.277   8.161 -0.8493  0.1874 -1.8845
   26SAPC  C317 3522   4.560   5.437   8.311 -0.0015 -0.5597 -0.4850
   26SAPC  H17X 3523   4.660   5.477   8.284 -0.1387 -1.7557 -2.9142
   26SAPC  H17Y 3524   4.562   5.400   8.415 -1.7106  2.5662  0.7445
   26SAPC  C318 3525   4.454   5.550   8.304  0.0603 -0.4629 -1.0526
   26SAPC  H18X 3526   4.357   5.526   8.353 -0.6540 -0.8765 -2.6150
   26SAPC  H18Y 3527   4.436   5.557   8.194  2.2516 -1.5170 -1.5047
   26SAPC  H18Z 3528   4.479   5.649   8.347  0.0622 -0.7144 -0.4767
   27SAPC     N 3529   0.938   5.818   6.312  0.2233 -0.4991  0.3807
   27SAPC   C12 3530   1.094   5.822   6.332 -0.1544  0.7627  0.0967
   27SAPC  H12A 3531   1.125   5.925   6.342  2.0250  0.2010 -0.5983
   27SAPC  H12B 3532   1.140   5.783   6.242 -1.3341  1.1236 -0.6920
   27SAPC   C13 3533   0.894   5.689   6.259  0.2854  0.0389  0.4621
   27SAPC  H13A 3534   0.970   5.656   6.189 -1.4466  1.2560 -2.0604
   27SAPC  H13B 3535   0.901   5.615   6.338 -0.1084  0.1544  0.6066
   27SAPC  H13C 3536   0.796   5.697   6.214 -0.2757 -1.3412  1.3923
   27SAPC   C14 3537   0.864   5.837   6.440 -0.6953  0.0595  0.1182
   27SAPC  H14A 3538   0.890   5.762   6.514 -1.6851  0.3048  0.7200
   27SAPC  H14B 3539   0.900   5.926   6.490  0.8144 -1.2951  1.5114
   27SAPC  H14C 3540   0.759   5.819   6.426 -1.0714  0.8637  1.6986
   27SAPC   C15 3541   0.899   5.917   6.209 -0.9543 -0.3845 -0.4519
   27SAPC  H15A 3542   0.954   5.906   6.117 -0.2364 -0.9779  0.0475
   27SAPC  H15B 3543   0.794   5.903   6.190 -1.1827 -2.3551  2.0473
   27SAPC  H15C 3544   0.916   6.016   6.249 -2.0978  0.0227 -0.9547
   27SAPC   C11 3545   1.152   5.750   6.452  0.0851  0.4568  0.4158
   27SAPC  H11A 3546   1.261   5.734   6.439 -0.1732 -1.2304  0.1511
   27SAPC  H11B 3547   1.107   5.648   6.462 -2.6845  1.6949  0.9597
   27SAPC     P 3548   1.112   5.755   6.709  0.1333 -0.2239  0.0103
   27SAPC   O13 3549   1.180   5.837   6.822 -0.6445  0.1919  0.2733
   27SAPC   O14 3550   0.971   5.721   6.723 -0.1858 -0.2274  0.0562
   27SAPC   O12 3551   1.134   5.832   6.568  0.6060 -0.2951 -0.3077
   27SAPC   O11 3552   1.183   5.616   6.677 -0.0638 -0.3544  0.2545
   27SAPC    C1 3553   1.325   5.595   6.696 -0.1479 -0.1280  0.1334
   27SAPC    HA 3554   1.357   5.510   6.631 -0.5902 -1.3967  1.5327
   27SAPC    HB 3555   1.384   5.685   6.671 -1.2152  0.0448 -1.8583
   27SAPC    C2 3556   1.352   5.530   6.830 -0.3348  0.0273 -0.3670
   27SAPC    HS 3557   1.319   5.426   6.810  2.3353 -1.1852  1.2468
   27SAPC   O21 3558   1.294   5.601   6.946  0.2268 -0.1137  0.1406
   27SAPC   C21 3559   1.176   5.557   6.987  0.2842  0.4226 -0.2757
   27SAPC   O22 3560   1.116   5.464   6.938  0.2883  0.6734 -0.2936
   27SAPC   C22 3561   1.131   5.641   7.102  0.0990 -0.0036  0.0221
   27SAPC   H2R 3562   1.203   5.720   7.132  0.9413 -1.7455  2.7756
   27SAPC   H2S 3563   1.032   5.686   7.078 -0.3413 -0.7405  0.4132
   27SAPC    C3 3564   1.512   5.516   6.845 -0.0495 -0.4561  1.0315
   27SAPC    HX 3565   1.551   5.618   6.823 -1.3328 -0.1048  0.3230
   27SAPC    HY 3566   1.561   5.447   6.773  0.3281 -1.9931  2.7392
   27SAPC   O31 3567   1.550   5.466   6.972 -0.1552  0.1102  0.8379
   27SAPC   C31 3568   1.573   5.555   7.064 -0.5965 -1.1374 -0.0116
   27SAPC   O32 3569   1.568   5.677   7.038 -0.3676  0.1619 -0.2702
   27SAPC   C32 3570   1.618   5.487   7.187  0.2951  0.4474  0.2765
   27SAPC   H2X 3571   1.729   5.488   7.183  0.3683  0.8456  1.8822
   27SAPC   H2Y 3572   1.603   5.377   7.182 -0.9100  0.6441 -0.6497
   27SAPC   C23 3573   1.093   5.560   7.230  0.5489  0.5638 -0.0187
   27SAPC   H3R 3574   1.185   5.504   7.257 -0.4194 -0.3363  1.5458
   27SAPC   H3S 3575   1.023   5.478   7.203 -0.5061  1.4804 -0.1171
   27SAPC   C24 3576   1.049   5.645   7.360 -0.4799  0.6721 -0.1086
   27SAPC   H4R 3577   0.970   5.584   7.409 -0.2011 -0.2624 -0.8125
   27SAPC   H4S 3578   0.999   5.732   7.311 -0.4221  1.0829  0.5515
   27SAPC   C25 3579   1.165   5.686   7.444 -0.8347 -0.3374 -0.0228
   27SAPC   H5R 3580   1.242   5.742   7.389  0.2651 -0.2672  1.5575
   27SAPC   C26 3581   1.187   5.638   7.569 -0.1437 -1.2023  0.8857
   27SAPC   H6R 3582   1.277   5.674   7.621  0.3316  1.7227 -1.8069
   27SAPC   C27 3583   1.090   5.549   7.640  0.2895 -0.1007  0.4274
   27SAPC   H7R 3584   1.138   5.481   7.714 -1.2401 -1.6981 -0.0326
   27SAPC   H7S 3585   1.071   5.478   7.558 -0.1593 -0.1696  0.5890
   27SAPC   C28 3586   0.947   5.596   7.682  0.8168  0.0215 -0.8090
   27SAPC   H8R 3587   0.882   5.624   7.598 -0.7903  2.6714  1.2344
   27SAPC   C29 3588   0.899   5.621   7.808 -0.2030  0.2715  0.3794
   27SAPC   H9R 3589   0.791   5.631   7.829  0.0063 -0.4479  1.8603
   27SAPC  C210 3590   0.990   5.610   7.933 -0.7672  0.1147 -1.0124
   27SAPC  H10R 3591   1.043   5.512   7.926 -0.9266 -0.0729  0.3577
   27SAPC  H10S 3592   0.948   5.597   8.035  1.8349 -0.5214  0.0315
   27SAPC  C211 3593   1.089   5.727   7.945 -0.2302 -0.2692 -0.1805
   27SAPC  H11R 3594   1.145   5.741   7.851 -1.7678  2.1794 -0.7696
   27SAPC  C212 3595   1.121   5.808   8.048  1.1634 -0.0257 -0.2997
   27SAPC  H12R 3596   1.196   5.885   8.027  1.4571 -0.8116 -2.3671
   27SAPC  C213 3597   1.060   5.794   8.185  0.5569 -0.0296  0.5686
   27SAPC  H13R 3598   1.131   5.852   8.248  0.4199  0.8884 -0.0990
   27SAPC  H13S 3599   1.084   5.692   8.221  0.9794 -0.0332  0.2762
   27SAPC  C214 3600   0.921   5.841   8.212  0.4167  0.0910 -0.3299
   27SAPC  H14R 3601   0.857   5.818   8.127 -0.8065 -0.1381  0.6430
   27SAPC  C215 3602   0.878   5.899   8.324  0.1770 -0.1816 -0.0108
   27SAPC  H15R 3603   0.769   5.913   8.336  0.3569  2.8725 -1.3891
   27SAPC  C216 3604   0.954   5.934   8.445 -0.4052 -0.0144 -0.2006
   27SAPC  H16R 3605   0.969   6.044   8.449  0.5409 -0.1474  0.0264
   27SAPC  H16S 3606   1.049   5.878   8.445 -2.0131 -2.8345 -0.4680
   27SAPC  C217 3607   0.881   5.893   8.577 -0.7205  0.7613 -0.1014
   27SAPC  H17R 3608   0.775   5.864   8.563  0.1165 -2.8135  0.5656
   27SAPC  H17S 3609   0.892   5.980   8.645 -0.7941 -0.4125  1.4443
   27SAPC  C218 3610   0.941   5.777   8.657 -0.4403 -0.1079 -0.4295
   27SAPC  H18R 3611   0.888   5.746   8.749 -1.0955 -2.9485 -1.6988
   27SAPC  H18S 3612   1.035   5.827   8.689 -0.0490 -0.8408 -0.4046
   27SAPC  C219 3613   0.968   5.654   8.570  0.2904 -0.5852  0.3539
   27SAPC  H19R 3614   1.062   5.660   8.510  0.0664  0.2385  0.0843
   27SAPC  H19S 3615   0.889   5.624   8.497  0.5415 -0.7935  0.1651
   27SAPC  C220 3616   0.983   5.529   8.668 -0.7406  0.4442  0.6716
   27SAPC  H20R 3617   1.083   5.522   8.715  0.0193 -0.4426 -1.0185
   27SAPC  H20S 3618   0.982   5.431   8.615 -0.4764  0.4550  0.6481
   27SAPC  H20T 3619   0.910   5.519   8.751  1.8118 -2.5287  2.6836
   27SAPC   C33 3620   1.567   5.561   7.309 -0.3265  0.5558  0.7294
   27SAPC   H3X 3621   1.457   5.544   7.305  0.2761 -3.9232  1.1320
   27SAPC   H3Y 3622   1.605   5.665   7.303  2.4272 -0.3560  1.8327
   27SAPC   C34 3623   1.617   5.497   7.437  0.3308  0.2621  0.0862
   27SAPC   H4X 3624   1.726   5.516   7.450 -0.1823  1.5588  2.9463
   27SAPC   H4Y 3625   1.588   5.391   7.450 -1.5971  0.8991  1.1969
   27SAPC   C35 3626   1.548   5.562   7.558 -0.1770  0.1175 -0.3300
   27SAPC   H5X 3627   1.442   5.590   7.544 -0.3587 -0.8415 -0.9143
   27SAPC   H5Y 3628   1.601   5.659   7.570  2.1251 -0.8174 -2.4771
   27SAPC   C36 3629   1.576   5.485   7.691 -0.1498  0.2059  0.4092
   27SAPC   H6X 3630   1.685   5.476   7.710 -0.0783  0.8509  0.3175
   27SAPC   H6Y 3631   1.534   5.382   7.683 -1.6313  0.9155 -1.3150
   27SAPC   C37 3632   1.518   5.572   7.807  0.2720  0.2970 -0.0501
   27SAPC   H7X 3633   1.412   5.599   7.788 -0.2374 -1.1896  0.5889
   27SAPC   H7Y 3634   1.579   5.664   7.821  2.1359 -0.6395 -1.7964
   27SAPC   C38 3635   1.508   5.486   7.940 -0.2214 -0.0771  0.6733
   27SAPC   H8X 3636   1.609   5.449   7.969  1.5867  2.0543 -2.6389
   27SAPC   H8Y 3637   1.442   5.398   7.923 -1.1384  0.6578  0.4051
   27SAPC   C39 3638   1.454   5.571   8.061 -0.2744  0.7455 -0.2793
   27SAPC   H9X 3639   1.354   5.604   8.027  0.3708  1.3119 -1.6754
   27SAPC   H9Y 3640   1.518   5.661   8.072  0.5732  0.4257 -2.4457
   27SAPC  C310 3641   1.432   5.515   8.203  0.2456  0.6546 -0.3452
   27SAPC  H10X 3642   1.396   5.604   8.259 -0.0259  0.5989 -0.4294
   27SAPC  H10Y 3643   1.531   5.486   8.245  0.0123 -1.3991 -1.1518
   27SAPC  C311 3644   1.331   5.398   8.197  0.2400  0.3484 -0.4842
   27SAPC  H11X 3645   1.351   5.322   8.119  0.6783  0.4807 -0.4975
   27SAPC  H11Y 3646   1.242   5.447   8.152 -1.4905 -1.6403  0.6409
   27SAPC  C312 3647   1.278   5.346   8.336  0.1758  0.4749 -0.3527
   27SAPC  H12X 3648   1.183   5.292   8.315  0.6185  0.2270 -1.7332
   27SAPC  H12Y 3649   1.256   5.435   8.399  0.6386  1.6124 -1.7735
   27SAPC  C313 3650   1.372   5.256   8.415  0.0167  0.2650  0.2291
   27SAPC  H13X 3651   1.470   5.258   8.363  1.0828 -0.9998  2.1266
   27SAPC  H13Y 3652   1.328   5.154   8.423  0.7397 -0.1415 -0.8858
   27SAPC  C314 3653   1.385   5.300   8.564  0.1451  0.2267 -0.8114
   27SAPC  H14X 3654   1.348   5.404   8.571 -1.2096 -0.3401  0.8559
   27SAPC  H14Y 3655   1.494   5.310   8.586 -0.0691  2.2457 -0.5918
   27SAPC  C315 3656   1.317   5.209   8.672 -0.2265  0.0637  0.3634
   27SAPC  H15X 3657   1.317   5.105   8.634  1.8954  0.3339 -0.4427
   27SAPC  H15Y 3658   1.213   5.247   8.685  0.4860  2.5804 -0.8972
   27SAPC  C316 3659   1.371   5.218   8.818 -0.0236 -0.2189 -0.0408
   27SAPC  H16X 3660   1.304   5.153   8.879  1.5081 -1.5773  0.2463
   27SAPC  H16Y 3661   1.364   5.318   8.865 -1.1614 -1.4960  2.6522
   27SAPC  C317 3662   1.513   5.162   8.830 -0.1221 -0.2505  0.2821
   27SAPC  H17X 3663   1.550   5.210   8.923  1.8007  0.0842 -0.6309
   27SAPC  H17Y 3664   1.560   5.194   8.734  2.3368 -0.9634  1.2035
   27SAPC  C318 3665   1.519   5.011   8.845 -0.1949  0.4816  0.5511
   27SAPC  H18X 3666   1.467   4.961   8.760  1.1291 -0.1347  0.0931
   27SAPC  H18Y 3667   1.466   4.989   8.940  0.0250 -0.2120  0.5146
   27SAPC  H18Z 3668   1.623   4.972   8.844  0.1523  1.4204  0.0852
   28SAPC     N 3669   0.417   3.287   5.957  0.0685  0.6477 -0.3038
   28SAPC   C12 3670   0.465   3.212   6.086  0.0811  0.0814 -0.0262
   28SAPC  H12A 3671   0.446   3.274   6.173 -0.5435  1.3955 -1.0826
   28SAPC  H12B 3672   0.572   3.197   6.084  0.1038  0.2371 -0.0410
   28SAPC   C13 3673   0.424   3.190   5.846 -0.2725 -0.7605  0.7137
   28SAPC  H13A 3674   0.356   3.107   5.860 -0.9759 -0.6309 -1.5904
   28SAPC  H13B 3675   0.386   3.226   5.751  1.2391  2.0225  1.1312
   28SAPC  H13C 3676   0.528   3.168   5.825 -0.4999  0.4870 -2.0093
   28SAPC   C14 3677   0.280   3.339   5.984 -0.0473 -0.4673  0.8187
   28SAPC  H14A 3678   0.291   3.415   6.061  0.7997 -1.1120  1.3408
   28SAPC  H14B 3679   0.240   3.364   5.887 -0.2156 -0.6357  0.8442
   28SAPC  H14C 3680   0.219   3.263   6.030  1.2777  0.3252  4.0441
   28SAPC   C15 3681   0.508   3.404   5.922 -0.0399 -0.0031 -0.2890
   28SAPC  H15A 3682   0.525   3.471   6.005 -0.9478 -0.4297  0.2548
   28SAPC  H15B 3683   0.606   3.369   5.894  1.0458  3.0601 -0.5471
   28SAPC  H15C 3684   0.463   3.469   5.849  0.1443  1.7680  1.1365
   28SAPC   C11 3685   0.388   3.073   6.131  0.0573 -0.0764  0.1059
   28SAPC  H11A 3686   0.438   3.027   6.218  0.8725  0.4934 -0.0589
   28SAPC  H11B 3687   0.389   3.008   6.041 -0.6710 -2.6972  1.9433
   28SAPC     P 3688   0.205   3.145   6.307 -0.1413  0.1442  0.1601
   28SAPC   O13 3689   0.289   3.262   6.340 -0.7597  0.0973 -0.2500
   28SAPC   O14 3690   0.057   3.168   6.307 -0.6389 -1.0147  0.4095
   28SAPC   O12 3691   0.248   3.084   6.167  0.3942 -0.2299 -0.6322
   28SAPC   O11 3692   0.230   3.034   6.412  0.1757 -0.1862  0.4742
   28SAPC    C1 3693   0.156   2.911   6.422  0.3043  0.0222 -0.2499
   28SAPC    HA 3694   0.066   2.932   6.484  1.4010 -1.0000  1.7262
   28SAPC    HB 3695   0.120   2.881   6.321  1.8488 -0.9219 -0.5447
   28SAPC    C2 3696   0.244   2.801   6.491  0.4019  0.1609  0.3601
   28SAPC    HS 3697   0.193   2.702   6.482 -0.9264  0.7195  1.5368
   28SAPC   O21 3698   0.258   2.834   6.631  0.1743  0.3208 -0.3123
   28SAPC   C21 3699   0.156   2.796   6.702 -0.0087  0.5960 -0.1494
   28SAPC   O22 3700   0.051   2.751   6.654 -0.2792  0.5819  0.5084
   28SAPC   C22 3701   0.191   2.800   6.853  0.3755  0.2541  1.5897
   28SAPC   H2R 3702   0.128   2.884   6.891  1.7049  2.6673 -1.3413
   28SAPC   H2S 3703   0.151   2.706   6.896  0.9951  0.8308  3.4487
   28SAPC    C3 3704   0.379   2.789   6.420  0.4566 -0.0047  0.4571
   28SAPC    HX 3705   0.424   2.886   6.389  1.0435 -0.2709  0.4607
   28SAPC    HY 3706   0.360   2.749   6.318 -1.9672  2.1953  0.0153
   28SAPC   O31 3707   0.455   2.677   6.474  0.3710  0.3432  0.2559
   28SAPC   C31 3708   0.569   2.715   6.532  0.6963 -0.0501  0.2588
   28SAPC   O32 3709   0.613   2.827   6.534 -0.1195  0.1971 -0.2587
   28SAPC   C32 3710   0.616   2.602   6.617 -0.0643  0.7870 -0.1742
   28SAPC   H2X 3711   0.644   2.519   6.548 -1.4554  1.6395 -1.8061
   28SAPC   H2Y 3712   0.530   2.575   6.682  0.7019  0.5576  0.7458
   28SAPC   C23 3713   0.342   2.820   6.893 -0.1754  0.5705  0.5934
   28SAPC   H3R 3714   0.371   2.924   6.866 -0.5347  1.1217  2.2686
   28SAPC   H3S 3715   0.421   2.769   6.834 -0.3156  1.5225 -0.4338
   28SAPC   C24 3716   0.369   2.788   7.042  0.4247 -0.7213  0.5403
   28SAPC   H4R 3717   0.467   2.824   7.080 -0.3187  2.3288 -0.3365
   28SAPC   H4S 3718   0.309   2.861   7.100  1.7228 -0.9818  2.2778
   28SAPC   C25 3719   0.356   2.645   7.075  0.2491  0.6840 -0.4112
   28SAPC   H5R 3720   0.413   2.574   7.014 -1.4171 -0.1006 -1.1003
   28SAPC   C26 3721   0.273   2.597   7.166  0.3169  0.6037 -0.0589
   28SAPC   H6R 3722   0.265   2.488   7.180  1.0132  0.6025  0.4133
   28SAPC   C27 3723   0.180   2.681   7.252  0.3469 -0.2131  1.0288
   28SAPC   H7R 3724   0.105   2.724   7.183  0.8169 -1.0701 -0.0470
   28SAPC   H7S 3725   0.243   2.770   7.276 -0.2767  0.3394  0.6171
   28SAPC   C28 3726   0.118   2.605   7.364 -0.1284 -0.3488  1.1508
   28SAPC   H8R 3727   0.058   2.519   7.330  0.7493 -0.4208 -0.2618
   28SAPC   C29 3728   0.145   2.622   7.495  0.2208  0.6275 -0.0450
   28SAPC   H9R 3729   0.087   2.556   7.562  1.2215 -0.2119  0.0144
   28SAPC  C210 3730   0.241   2.724   7.545  0.1137  1.0429  0.2733
   28SAPC  H10R 3731   0.309   2.756   7.463  2.0462 -2.2083  0.4872
   28SAPC  H10S 3732   0.308   2.688   7.626  1.0892  0.9174 -0.5718
   28SAPC  C211 3733   0.165   2.846   7.588 -0.5818 -0.3388  0.4002
   28SAPC  H11R 3734   0.080   2.869   7.521 -0.4942 -0.4921  0.2361
   28SAPC  C212 3735   0.174   2.929   7.694 -0.0226 -0.4269  1.4613
   28SAPC  H12R 3736   0.101   3.009   7.714  0.7212  0.1239  2.0490
   28SAPC  C213 3737   0.293   2.918   7.796 -0.3921 -0.4785 -0.9084
   28SAPC  H13R 3738   0.380   2.975   7.759  0.5520 -1.8685 -0.8576
   28SAPC  H13S 3739   0.328   2.813   7.802 -1.5848 -0.8618 -0.5573
   28SAPC  C214 3740   0.269   2.975   7.937 -0.8021  0.2716  0.2791
   28SAPC  H14R 3741   0.337   3.053   7.974  1.2539 -0.2622 -2.2609
   28SAPC  C215 3742   0.187   2.933   8.033  0.4116  0.9952 -0.1747
   28SAPC  H15R 3743   0.183   2.990   8.127  2.6301 -0.0409  0.5760
   28SAPC  C216 3744   0.088   2.814   8.015 -1.4765  0.2315 -0.9371
   28SAPC  H16R 3745   0.146   2.730   7.971 -1.0526 -0.3484  0.6919
   28SAPC  H16S 3746   0.019   2.839   7.931 -0.1427 -0.2077 -2.1993
   28SAPC  C217 3747   0.022   2.785   8.144 -0.2829  1.1411 -0.3610
   28SAPC  H17R 3748   0.106   2.795   8.217  1.0856 -0.0904 -1.7255
   28SAPC  H17S 3749  -0.012   2.679   8.139  1.4070  0.4961  1.2042
   28SAPC  C218 3750  -0.083   2.892   8.177 -0.2105 -0.0201 -0.2304
   28SAPC  H18R 3751  -0.170   2.871   8.111 -1.0073  1.6539  0.2413
   28SAPC  H18S 3752  -0.047   2.990   8.138  2.3620 -0.3113  1.3558
   28SAPC  C219 3753  -0.116   2.904   8.322  0.3109  0.1903  0.0141
   28SAPC  H19R 3754  -0.022   2.932   8.373 -0.0178  2.7789 -0.7325
   28SAPC  H19S 3755  -0.157   2.805   8.354 -1.6260  0.5346 -1.2655
   28SAPC  C220 3756  -0.220   3.004   8.369 -0.3762 -0.7311 -0.5597
   28SAPC  H20R 3757  -0.187   3.108   8.349  0.8289 -1.2620 -1.3749
   28SAPC  H20S 3758  -0.237   2.983   8.477  2.2263 -0.2953 -0.0378
   28SAPC  H20T 3759  -0.316   2.996   8.313 -1.1283 -0.3209  0.6367
   28SAPC   C33 3760   0.748   2.625   6.698 -0.3569 -0.0612 -0.4375
   28SAPC   H3X 3761   0.738   2.719   6.757 -0.8651 -1.1865  1.3173
   28SAPC   H3Y 3762   0.828   2.645   6.624 -0.5171 -1.6331 -1.0468
   28SAPC   C34 3763   0.794   2.512   6.789  0.5210  0.1966  0.1026
   28SAPC   H4X 3764   0.905   2.507   6.795  0.5385 -3.1440 -1.6982
   28SAPC   H4Y 3765   0.785   2.417   6.732 -2.0512 -1.0220  2.4453
   28SAPC   C35 3766   0.715   2.513   6.919 -0.1181 -0.3847  0.5872
   28SAPC   H5X 3767   0.689   2.408   6.946  2.4000 -0.7535  1.6837
   28SAPC   H5Y 3768   0.621   2.570   6.902  0.5434  0.2333 -1.0542
   28SAPC   C36 3769   0.790   2.583   7.038  0.3914 -0.3496  0.3738
   28SAPC   H6X 3770   0.785   2.694   7.026 -0.4933 -0.6948 -2.7979
   28SAPC   H6Y 3771   0.901   2.572   7.043  0.1661 -2.8561  0.4320
   28SAPC   C37 3772   0.730   2.552   7.171 -0.3483  0.6982 -0.2445
   28SAPC   H7X 3773   0.674   2.456   7.178  0.6964  0.2281  2.0973
   28SAPC   H7Y 3774   0.671   2.640   7.206  1.5032  3.3963 -3.5092
   28SAPC   C38 3775   0.849   2.541   7.268 -0.1027  0.2543 -0.7674
   28SAPC   H8X 3776   0.904   2.633   7.239  1.7498 -0.6587 -0.2458
   28SAPC   H8Y 3777   0.911   2.452   7.242 -1.4878 -1.6421  2.2371
   28SAPC   C39 3778   0.807   2.524   7.412 -0.2158 -0.4724 -0.0607
   28SAPC   H9X 3779   0.745   2.433   7.428 -3.4468  1.1314 -2.7794
   28SAPC   H9Y 3780   0.751   2.617   7.436  0.4099  0.0439 -0.5778
   28SAPC  C310 3781   0.935   2.522   7.496  0.5517 -0.9341 -0.2323
   28SAPC  H10X 3782   0.983   2.622   7.510  1.6643 -1.7404  1.7822
   28SAPC  H10Y 3783   0.998   2.447   7.443 -1.8150 -2.7591 -0.5457
   28SAPC  C311 3784   0.929   2.466   7.645  0.0768  0.4959  0.2908
   28SAPC  H11X 3785   0.901   2.358   7.639 -2.1913  1.1142 -0.6651
   28SAPC  H11Y 3786   0.845   2.529   7.681 -1.8173 -0.4700 -2.2605
   28SAPC  C312 3787   1.055   2.477   7.726 -0.1079 -0.0868  0.1381
   28SAPC  H12X 3788   1.103   2.576   7.709  0.2153 -0.4583 -1.1270
   28SAPC  H12Y 3789   1.118   2.396   7.684  0.3576  1.0357 -1.3705
   28SAPC  C313 3790   1.030   2.440   7.873 -0.0483 -0.0960  0.1138
   28SAPC  H13X 3791   1.101   2.362   7.907  0.0002  0.0711  0.3939
   28SAPC  H13Y 3792   0.928   2.397   7.867  0.5665 -1.9075  2.0000
   28SAPC  C314 3793   1.021   2.567   7.960 -0.1889 -0.3816  0.0297
   28SAPC  H14X 3794   0.938   2.625   7.914 -0.7157 -2.2871 -1.4937
   28SAPC  H14Y 3795   1.114   2.626   7.950 -0.3605 -0.1394 -0.1477
   28SAPC  C315 3796   0.995   2.534   8.108  0.3453 -0.0980 -0.6599
   28SAPC  H15X 3797   1.094   2.494   8.139  0.4401  1.4105  1.1546
   28SAPC  H15Y 3798   0.915   2.460   8.125 -1.9872  1.9365 -2.4900
   28SAPC  C316 3799   0.970   2.659   8.193  0.5127 -0.2570 -0.2679
   28SAPC  H16X 3800   0.876   2.704   8.155 -0.4750 -0.9406  1.3210
   28SAPC  H16Y 3801   1.045   2.739   8.177  3.6976 -2.8347  1.2197
   28SAPC  C317 3802   0.956   2.633   8.337  0.4880 -0.5821 -1.0053
   28SAPC  H17X 3803   1.033   2.556   8.360 -0.2242 -1.7253 -2.3601
   28SAPC  H17Y 3804   0.863   2.588   8.378  1.1712 -1.1813 -0.0880
   28SAPC  C318 3805   0.997   2.762   8.418  0.5709 -0.4219  0.5693
   28SAPC  H18X 3806   0.906   2.825   8.421  0.2912 -0.8736  1.9741
   28SAPC  H18Y 3807   1.085   2.812   8.373 -0.0155 -0.4750 -0.6517
   28SAPC  H18Z 3808   1.021   2.731   8.522  1.5410  0.5435  0.6326
   29SAPC     N 3809   3.547   6.198   6.175 -0.0535  0.1125  0.6065
   29SAPC   C12 3810   3.434   6.294   6.175 -0.2370  0.0170 -0.7201
   29SAPC  H12A 3811   3.449   6.372   6.102 -1.5874  2.9868  2.0423
   29SAPC  H12B 3812   3.435   6.347   6.270  0.7270 -1.0427 -0.1194
   29SAPC   C13 3813   3.532   6.097   6.286 -0.4938 -0.7440 -0.1618
   29SAPC  H13A 3814   3.553   6.139   6.383 -1.3441  1.4080 -0.8800
   29SAPC  H13B 3815   3.430   6.063   6.289 -0.7936  0.2160  0.8849
   29SAPC  H13C 3816   3.612   6.025   6.273 -1.1765 -1.6136  0.3400
   29SAPC   C14 3817   3.552   6.127   6.044 -0.1046 -0.3746 -0.3404
   29SAPC  H14A 3818   3.459   6.107   5.994 -0.3113  1.0469 -0.5405
   29SAPC  H14B 3819   3.615   6.186   5.980  2.5693 -0.4225  2.1000
   29SAPC  H14C 3820   3.610   6.036   6.052  0.1307 -0.0334  2.6318
   29SAPC   C15 3821   3.677   6.272   6.188 -0.9448  0.8274 -0.9292
   29SAPC  H15A 3822   3.685   6.326   6.281 -0.0237 -0.9407  0.0390
   29SAPC  H15B 3823   3.757   6.210   6.149 -1.9524  0.0058 -1.7033
   29SAPC  H15C 3824   3.669   6.348   6.111  0.4026  1.2144 -0.7103
   29SAPC   C11 3825   3.293   6.237   6.161  0.6391  0.1634  0.0740
   29SAPC  H11A 3826   3.285   6.159   6.083 -3.2257 -0.4829  1.0224
   29SAPC  H11B 3827   3.226   6.322   6.136 -2.2651 -1.9989  0.2276
   29SAPC     P 3828   3.214   6.256   6.413 -0.3985  0.2636 -0.0442
   29SAPC   O13 3829   3.334   6.333   6.450 -0.1133  0.1405 -0.0157
   29SAPC   O14 3830   3.085   6.322   6.392  0.3036  0.0602 -0.6834
   29SAPC   O12 3831   3.250   6.171   6.280  0.3831  0.0787  0.2742
   29SAPC   O11 3832   3.194   6.136   6.516 -0.0641  0.1905  0.1692
   29SAPC    C1 3833   3.087   6.132   6.612 -0.1852  0.0971  0.7596
   29SAPC    HA 3834   2.988   6.148   6.564 -0.1124 -2.4775 -0.3577
   29SAPC    HB 3835   3.080   6.036   6.667  1.2196 -1.9442 -2.4528
   29SAPC    C2 3836   3.094   6.236   6.724  0.1034 -1.0616 -0.2035
   29SAPC    HS 3837   3.090   6.338   6.679 -1.0702 -1.2425 -0.5370
   29SAPC   O21 3838   3.219   6.215   6.791 -0.1488 -0.4400 -0.2465
   29SAPC   C21 3839   3.250   6.318   6.867  0.6487  0.0109  0.0010
   29SAPC   O22 3840   3.182   6.423   6.871 -0.1322  0.0531  0.4705
   29SAPC   C22 3841   3.383   6.289   6.942 -0.0646 -0.1977 -0.3656
   29SAPC   H2R 3842   3.414   6.183   6.926 -0.8741 -0.3829 -0.6947
   29SAPC   H2S 3843   3.465   6.346   6.893 -0.5399 -1.1996 -2.3726
   29SAPC    C3 3844   2.970   6.220   6.824 -0.1825  0.2710  0.1687
   29SAPC    HX 3845   2.885   6.227   6.753 -0.6243  2.7638  0.8933
   29SAPC    HY 3846   2.969   6.300   6.901 -0.3726  0.1305  0.3122
   29SAPC   O31 3847   2.974   6.088   6.885  0.4416 -0.3871  0.2840
   29SAPC   C31 3848   2.871   6.054   6.959  0.2404  0.5253  0.1835
   29SAPC   O32 3849   2.778   6.135   6.988  0.4830  0.0778  0.2561
   29SAPC   C32 3850   2.879   5.913   7.008  0.0042 -0.3584  0.2338
   29SAPC   H2X 3851   2.973   5.859   6.983  0.7002  0.4785  1.0318
   29SAPC   H2Y 3852   2.793   5.863   6.959 -0.1185 -1.5290  1.5843
   29SAPC   C23 3853   3.360   6.334   7.088 -0.6705 -0.5674 -0.3979
   29SAPC   H3R 3854   3.322   6.438   7.075 -0.3248 -0.4271 -0.3060
   29SAPC   H3S 3855   3.460   6.331   7.138 -0.8737  0.9056  0.1307
   29SAPC   C24 3856   3.271   6.238   7.163  0.7520  0.4055 -0.0430
   29SAPC   H4R 3857   3.177   6.239   7.104 -0.1097  0.7902  1.3172
   29SAPC   H4S 3858   3.253   6.280   7.264 -0.8273  1.8617 -0.9005
   29SAPC   C25 3859   3.323   6.099   7.184 -0.0070 -0.2668 -0.4639
   29SAPC   H5R 3860   3.307   6.030   7.100 -0.8850 -2.5750  1.5587
   29SAPC   C26 3861   3.362   6.045   7.306 -0.5160 -1.1141  0.4294
   29SAPC   H6R 3862   3.397   5.941   7.318  1.1203 -0.7681 -1.1105
   29SAPC   C27 3863   3.371   6.120   7.441  0.1542 -0.2145 -0.1989
   29SAPC   H7R 3864   3.342   6.044   7.517 -0.6034 -1.6898 -1.9401
   29SAPC   H7S 3865   3.296   6.201   7.454  0.4854 -0.1646  1.5139
   29SAPC   C28 3866   3.511   6.166   7.467  0.4760 -0.4389 -0.2015
   29SAPC   H8R 3867   3.558   6.219   7.383  4.1064  1.3337  2.8135
   29SAPC   C29 3868   3.577   6.154   7.581 -0.0165 -0.1766 -0.7125
   29SAPC   H9R 3869   3.684   6.177   7.584 -0.3803  1.4129  3.4854
   29SAPC  C210 3870   3.541   6.086   7.709  0.4490 -0.4802 -0.5072
   29SAPC  H10R 3871   3.635   6.070   7.766 -1.0899 -1.1259  1.9581
   29SAPC  H10S 3872   3.504   5.982   7.693  0.3179 -0.5424  0.1659
   29SAPC  C211 3873   3.440   6.176   7.772 -0.1080 -0.3878 -0.1002
   29SAPC  H11R 3874   3.343   6.183   7.720 -0.5978  0.6230  0.9016
   29SAPC  C212 3875   3.457   6.254   7.886  0.6979  0.4620  0.1259
   29SAPC  H12R 3876   3.367   6.311   7.914  0.4061 -0.5419  1.2393
   29SAPC  C213 3877   3.588   6.276   7.958  0.5200  0.8923  0.1361
   29SAPC  H13R 3878   3.583   6.367   8.020  0.7256  1.1588 -0.2312
   29SAPC  H13S 3879   3.670   6.298   7.886  1.0349  0.7395  0.6711
   29SAPC  C214 3880   3.640   6.163   8.045  0.5973  0.7551 -0.1992
   29SAPC  H14R 3881   3.621   6.066   7.997 -0.2106  0.9543 -0.2889
   29SAPC  C215 3882   3.680   6.162   8.173 -0.5449  0.3827 -0.9761
   29SAPC  H15R 3883   3.714   6.065   8.211 -2.1044  0.9107  2.0160
   29SAPC  C216 3884   3.687   6.280   8.268 -0.6343 -0.1993  0.3612
   29SAPC  H16R 3885   3.592   6.334   8.292 -0.5435  0.1822 -0.1349
   29SAPC  H16S 3886   3.757   6.359   8.233 -1.9232  0.9183  0.2760
   29SAPC  C217 3887   3.730   6.228   8.414 -0.3400 -0.1033  0.1348
   29SAPC  H17R 3888   3.836   6.197   8.405 -0.3343 -0.0418  0.0009
   29SAPC  H17S 3889   3.666   6.142   8.446 -0.2722 -1.1817 -2.5030
   29SAPC  C218 3890   3.715   6.347   8.509  0.1348  0.0170 -0.2067
   29SAPC  H18R 3891   3.606   6.363   8.522 -0.2600 -2.4129 -0.2742
   29SAPC  H18S 3892   3.763   6.433   8.457  2.3116  0.6676  2.7291
   29SAPC  C219 3893   3.774   6.324   8.649 -0.2633 -0.7771 -0.0694
   29SAPC  H19R 3894   3.884   6.308   8.649 -0.2199 -0.9811  3.3253
   29SAPC  H19S 3895   3.720   6.235   8.687  1.0572 -0.7114  2.0659
   29SAPC  C220 3896   3.744   6.430   8.749  0.1594 -0.3773 -0.3845
   29SAPC  H20R 3897   3.796   6.522   8.717  1.8367 -0.3913  2.1751
   29SAPC  H20S 3898   3.772   6.389   8.848  0.1189  1.7700  0.5383
   29SAPC  H20T 3899   3.637   6.458   8.752  0.2668  0.0887 -0.8657
   29SAPC   C33 3900   2.855   5.907   7.161 -0.1777 -0.4112  0.0086
   29SAPC   H3X 3901   2.866   5.802   7.193  1.0607 -0.6663 -1.1876
   29SAPC   H3Y 3902   2.752   5.938   7.190 -0.0970 -1.2625  1.2131
   29SAPC   C34 3903   2.960   5.985   7.244 -0.6381  0.4223 -0.4722
   29SAPC   H4X 3904   2.935   6.091   7.221  0.5082  0.6421 -0.7035
   29SAPC   H4Y 3905   3.066   5.967   7.219 -0.0432  0.9702  1.5308
   29SAPC   C35 3906   2.931   5.964   7.397  0.4053 -0.3965 -0.2446
   29SAPC   H5X 3907   2.950   5.861   7.435 -1.5917  0.0770  2.1712
   29SAPC   H5Y 3908   2.822   5.988   7.403  0.7121  1.0445 -0.1481
   29SAPC   C36 3909   3.002   6.060   7.488 -0.4415  0.3144  0.2654
   29SAPC   H6X 3910   3.008   6.161   7.441  1.9672  0.0700 -0.0193
   29SAPC   H6Y 3911   3.110   6.035   7.495  0.0393  2.1904  0.0003
   29SAPC   C37 3912   2.936   6.082   7.629 -0.1328 -0.5761  0.0648
   29SAPC   H7X 3913   2.845   6.145   7.619 -0.4864 -1.0162  0.4697
   29SAPC   H7Y 3914   3.008   6.151   7.679 -2.2418  0.3632  1.9609
   29SAPC   C38 3915   2.895   5.952   7.702 -0.0036 -0.0150  0.8124
   29SAPC   H8X 3916   2.824   5.905   7.631  0.4520 -0.2701  0.5215
   29SAPC   H8Y 3917   2.834   5.987   7.788 -1.6972  1.0099 -0.7878
   29SAPC   C39 3918   3.008   5.868   7.758 -0.7380  0.1473 -0.2263
   29SAPC   H9X 3919   3.052   5.810   7.674 -0.9646  0.6233 -0.6812
   29SAPC   H9Y 3920   2.964   5.801   7.834  2.9165 -0.8985  1.0448
   29SAPC  C310 3921   3.110   5.955   7.829  0.7700 -0.7851  0.3434
   29SAPC  H10X 3922   3.147   6.032   7.759 -0.8987  1.0600  1.4341
   29SAPC  H10Y 3923   3.197   5.888   7.845 -0.6087 -2.3095  1.7362
   29SAPC  C311 3924   3.063   6.026   7.954  0.4480  0.1795 -0.1048
   29SAPC  H11X 3925   3.025   5.951   8.026  1.9984  0.3980  0.9726
   29SAPC  H11Y 3926   2.978   6.092   7.927  0.0572 -0.5027 -0.5516
   29SAPC  C312 3927   3.185   6.080   8.031 -0.3550  0.3218  0.2876
   29SAPC  H12X 3928   3.215   6.183   8.003 -0.6078  0.6002  1.0230
   29SAPC  H12Y 3929   3.271   6.010   8.023 -0.5690 -0.1294  1.6981
   29SAPC  C313 3930   3.163   6.084   8.181  0.7830  0.1600 -0.0427
   29SAPC  H13X 3931   3.132   5.980   8.205  0.0325  0.4686  0.3389
   29SAPC  H13Y 3932   3.076   6.150   8.199  0.5791 -0.2484  0.4773
   29SAPC  C314 3933   3.290   6.108   8.261 -0.3291 -0.3672  0.1859
   29SAPC  H14X 3934   3.318   6.215   8.248 -3.4987  0.1588 -2.8173
   29SAPC  H14Y 3935   3.371   6.044   8.219  0.1031 -0.5184  1.2397
   29SAPC  C315 3936   3.275   6.072   8.412  0.3119 -1.1213 -0.0162
   29SAPC  H15X 3937   3.172   6.091   8.448  0.4707  1.1418 -0.6389
   29SAPC  H15Y 3938   3.336   6.143   8.472  0.2821  1.1414 -2.5725
   29SAPC  C316 3939   3.312   5.923   8.434 -0.4270  0.5150  0.4757
   29SAPC  H16X 3940   3.416   5.901   8.401 -0.9653 -0.3058 -0.7053
   29SAPC  H16Y 3941   3.234   5.862   8.383  0.6775 -0.6199  0.1189
   29SAPC  C317 3942   3.319   5.903   8.587 -0.3247 -0.5335  0.2173
   29SAPC  H17X 3943   3.220   5.930   8.630 -0.0046 -0.3258  0.8306
   29SAPC  H17Y 3944   3.391   5.977   8.626  1.1163 -0.8801 -1.7293
   29SAPC  C318 3945   3.360   5.767   8.635 -0.0599  0.0350  0.2758
   29SAPC  H18X 3946   3.371   5.764   8.746  2.7797  1.9137  0.0767
   29SAPC  H18Y 3947   3.463   5.751   8.599 -0.1102 -0.0768  0.1821
   29SAPC  H18Z 3948   3.299   5.679   8.605  1.3089 -1.0780  0.7013
   30SAPC     N 3949   4.435   5.689   5.954  0.6402  0.2651 -0.3153
   30SAPC   C12 3950   4.506   5.744   6.075 -0.6277 -0.0908  0.7807
   30SAPC  H12A 3951   4.513   5.662   6.145  2.2628 -0.1001  0.5282
   30SAPC  H12B 3952   4.449   5.825   6.119 -4.0190 -1.0339 -1.6806
   30SAPC   C13 3953   4.296   5.643   5.991 -0.5362  0.2315  0.5240
   30SAPC  H13A 3954   4.240   5.719   6.044 -0.1816 -0.0101  1.2611
   30SAPC  H13B 3955   4.239   5.612   5.905 -2.5319  0.6385  1.6642
   30SAPC  H13C 3956   4.294   5.572   6.072  1.8065  1.1151  1.4186
   30SAPC   C14 3957   4.413   5.805   5.852 -0.0857  0.6873  0.5564
   30SAPC  H14A 3958   4.366   5.886   5.905 -1.7362 -0.6398  1.1623
   30SAPC  H14B 3959   4.505   5.853   5.821  0.1024  0.0823  0.1591
   30SAPC  H14C 3960   4.366   5.786   5.757 -1.0841 -0.0584  1.1964
   30SAPC   C15 3961   4.508   5.577   5.889 -0.4138  0.3611 -0.3258
   30SAPC  H15A 3962   4.506   5.489   5.951  0.5602  0.2599 -0.4278
   30SAPC  H15B 3963   4.472   5.539   5.794 -0.3303 -1.4034  0.3342
   30SAPC  H15C 3964   4.614   5.595   5.880 -0.5610  1.9531  0.8494
   30SAPC   C11 3965   4.659   5.783   6.063 -0.5783 -0.0995 -0.4527
   30SAPC  H11A 3966   4.683   5.819   6.165  0.2369 -1.8554  0.0110
   30SAPC  H11B 3967   4.679   5.868   5.995  0.6608 -0.9671 -1.1982
   30SAPC     P 3968   4.879   5.636   6.102  0.1951  0.4751 -0.0017
   30SAPC   O13 3969   4.911   5.492   6.111 -0.3805 -0.0355  0.0496
   30SAPC   O14 3970   4.984   5.717   6.034 -0.0511 -0.0766  0.2995
   30SAPC   O12 3971   4.738   5.664   6.030  0.0905  0.3354  0.2501
   30SAPC   O11 3972   4.855   5.690   6.252 -0.5011  0.3283  0.4932
   30SAPC    C1 3973   4.958   5.769   6.312 -0.2942 -0.3068  0.0816
   30SAPC    HA 3974   5.052   5.710   6.303 -0.4073 -0.2733 -1.5398
   30SAPC    HB 3975   4.995   5.859   6.260 -0.3297  0.4377  1.3273
   30SAPC    C2 3976   4.916   5.801   6.461  0.1177  0.1726  0.7634
   30SAPC    HS 3977   4.991   5.860   6.518 -1.0478  2.2523  0.1933
   30SAPC   O21 3978   4.884   5.675   6.529 -0.0783 -0.2462 -0.9254
   30SAPC   C21 3979   4.981   5.606   6.579  0.7032 -0.7587  0.7208
   30SAPC   O22 3980   5.100   5.635   6.583 -0.0452  0.6689 -0.7264
   30SAPC   C22 3981   4.917   5.483   6.644  0.1473  0.0072 -0.1575
   30SAPC   H2R 3982   4.820   5.515   6.688  0.0607 -0.3716 -0.0747
   30SAPC   H2S 3983   4.898   5.413   6.560  1.7181 -0.0759 -0.4673
   30SAPC    C3 3984   4.784   5.894   6.455  0.2644  0.2566 -0.0499
   30SAPC    HX 3985   4.725   5.861   6.543  0.3988  0.9305  0.2944
   30SAPC    HY 3986   4.718   5.870   6.369  2.6522  2.4698 -2.5713
   30SAPC   O31 3987   4.827   6.030   6.448  0.4741 -0.1176 -0.1241
   30SAPC   C31 3988   4.777   6.116   6.539  0.7185 -0.1828 -0.2420
   30SAPC   O32 3989   4.678   6.102   6.608  0.0351  0.2959  0.6680
   30SAPC   C32 3990   4.865   6.242   6.525 -0.6959 -0.1634  0.2503
   30SAPC   H2X 3991   4.813   6.284   6.437 -0.9999 -0.2409  0.3942
   30SAPC   H2Y 3992   4.971   6.217   6.503 -1.0026  0.1243 -1.5931
   30SAPC   C23 3993   5.001   5.424   6.759 -0.3369  0.1451 -0.4112
   30SAPC   H3R 3994   5.098   5.393   6.715  0.0444  1.3934 -0.4698
   30SAPC   H3S 3995   4.947   5.338   6.804 -1.4656  0.8017 -0.4988
   30SAPC   C24 3996   5.033   5.513   6.881 -0.2012 -0.4403 -0.6239
   30SAPC   H4R 3997   5.104   5.592   6.849 -1.5846  1.3404  0.5589
   30SAPC   H4S 3998   5.082   5.451   6.959 -0.9320  0.1642  0.3264
   30SAPC   C25 3999   4.908   5.589   6.928 -0.3810  1.0148  0.0758
   30SAPC   H5R 4000   4.819   5.529   6.948 -0.2220  0.3143 -1.2245
   30SAPC   C26 4001   4.891   5.723   6.945  0.5768  0.2871  0.5041
   30SAPC   H6R 4002   4.791   5.759   6.974  0.1361  0.6838 -1.4181
   30SAPC   C27 4003   5.005   5.823   6.923  0.5270 -0.5370 -1.4527
   30SAPC   H7R 4004   4.998   5.854   6.817 -0.0764  0.6410 -1.0716
   30SAPC   H7S 4005   5.108   5.783   6.934  0.1982 -1.0178 -0.0421
   30SAPC   C28 4006   4.996   5.952   7.016 -0.0013 -0.1457 -0.4100
   30SAPC   H8R 4007   4.989   6.047   6.961  0.3525  0.4547  0.5674
   30SAPC   C29 4008   5.001   5.963   7.148  0.1424 -0.1717  0.1880
   30SAPC   H9R 4009   4.995   6.060   7.200 -1.5310 -0.4667  0.5601
   30SAPC  C210 4010   5.008   5.838   7.232  0.0528 -0.4335 -0.4526
   30SAPC  H10R 4011   5.115   5.817   7.251 -0.1633  1.3061  3.2014
   30SAPC  H10S 4012   4.975   5.749   7.175 -0.2220  0.8705 -2.3859
   30SAPC  C211 4013   4.926   5.847   7.360  0.0511 -0.7445  0.0107
   30SAPC  H11R 4014   4.818   5.853   7.341  0.0126 -0.5763  0.2637
   30SAPC  C212 4015   4.964   5.858   7.490  0.1790  0.2281 -0.4947
   30SAPC  H12R 4016   4.887   5.870   7.568  0.7699  1.8168 -0.1411
   30SAPC  C213 4017   5.106   5.856   7.532 -0.2309  0.1035 -1.3674
   30SAPC  H13R 4018   5.174   5.824   7.450  0.4900 -0.9090 -0.3866
   30SAPC  H13S 4019   5.118   5.771   7.602 -0.8989  0.9928 -0.1387
   30SAPC  C214 4020   5.142   5.994   7.577 -1.0914 -0.3280  0.5633
   30SAPC  H14R 4021   5.143   6.073   7.500  2.3080  0.8723  1.7304
   30SAPC  C215 4022   5.164   6.034   7.705  0.7383  0.1898 -0.7630
   30SAPC  H15R 4023   5.165   6.143   7.722  5.1096 -0.0307  1.1100
   30SAPC  C216 4024   5.163   5.949   7.826  0.0511  0.2552  0.6309
   30SAPC  H16R 4025   5.237   5.995   7.895 -1.1279  2.5248  0.4376
   30SAPC  H16S 4026   5.195   5.847   7.796 -1.4021 -0.0372  0.0108
   30SAPC  C217 4027   5.028   5.930   7.894 -0.2622  0.3012  0.0703
   30SAPC  H17R 4028   4.969   5.878   7.815 -0.6813  0.6483  0.1586
   30SAPC  H17S 4029   4.977   6.025   7.921 -1.0339  0.2806 -1.2533
   30SAPC  C218 4030   5.041   5.824   8.002 -0.0262  0.4462 -0.4568
   30SAPC  H18R 4031   5.124   5.840   8.075  0.9330 -2.6089 -0.8335
   30SAPC  H18S 4032   5.067   5.729   7.950 -0.1458 -0.1701  0.6108
   30SAPC  C219 4033   4.900   5.811   8.077 -0.4913 -0.2491  0.4758
   30SAPC  H19R 4034   4.827   5.861   8.009  1.6518  0.7351 -1.1403
   30SAPC  H19S 4035   4.908   5.876   8.167 -1.2375  0.0561  0.3231
   30SAPC  C220 4036   4.868   5.668   8.113 -0.4695  0.5608 -0.0029
   30SAPC  H20R 4037   4.836   5.613   8.022  0.7182 -0.4902  0.1851
   30SAPC  H20S 4038   4.777   5.652   8.174  0.0704  2.6124  1.3676
   30SAPC  H20T 4039   4.952   5.611   8.159 -2.0913 -2.6684 -0.9156
   30SAPC   C33 4040   4.858   6.333   6.651  0.7769  0.7506 -0.2926
   30SAPC   H3X 4041   4.756   6.347   6.692  1.2997  2.6210  0.4266
   30SAPC   H3Y 4042   4.889   6.434   6.615  0.5720  1.0266  0.2955
   30SAPC   C34 4043   4.944   6.289   6.772  0.0115  0.1995 -0.1251
   30SAPC   H4X 4044   5.049   6.285   6.735  0.5532 -1.5397  1.4939
   30SAPC   H4Y 4045   4.911   6.190   6.811  0.1158  0.1501 -0.1618
   30SAPC   C35 4046   4.939   6.382   6.901 -0.0943  0.3124 -0.0952
   30SAPC   H5X 4047   4.837   6.365   6.943  1.0216 -0.2568  2.4489
   30SAPC   H5Y 4048   4.941   6.492   6.884  4.0522  0.0052 -1.9957
   30SAPC   C36 4049   5.053   6.353   7.002 -0.8828  0.1862 -0.1592
   30SAPC   H6X 4050   5.149   6.375   6.950  0.2968  2.6362  2.8759
   30SAPC   H6Y 4051   5.045   6.245   7.030 -0.6500 -0.0941 -1.1663
   30SAPC   C37 4052   5.041   6.433   7.129 -0.1618 -0.9034 -0.1268
   30SAPC   H7X 4053   4.934   6.426   7.156  0.3362 -0.6916  2.0573
   30SAPC   H7Y 4054   5.054   6.541   7.106  1.0394 -1.3200 -1.4696
   30SAPC   C38 4055   5.127   6.374   7.241  0.6389 -0.4752 -0.0372
   30SAPC   H8X 4056   5.231   6.370   7.201  0.2359 -2.7458 -0.9445
   30SAPC   H8Y 4057   5.101   6.270   7.269 -1.6387  0.1801  0.3517
   30SAPC   C39 4058   5.136   6.457   7.368 -0.0526 -0.0840 -0.0074
   30SAPC   H9X 4059   5.032   6.471   7.405 -0.8633  0.4524 -2.3905
   30SAPC   H9Y 4060   5.176   6.557   7.340 -3.3679  0.9382 -1.2915
   30SAPC  C310 4061   5.221   6.385   7.482  1.9280  0.3403  0.3998
   30SAPC  H10X 4062   5.327   6.416   7.471  1.9524  1.8325  3.8377
   30SAPC  H10Y 4063   5.217   6.274   7.479  1.3046  0.3372  1.1873
   30SAPC  C311 4064   5.176   6.427   7.624  0.5226  0.5544 -0.3773
   30SAPC  H11X 4065   5.257   6.388   7.690 -0.6255 -1.7668 -0.2961
   30SAPC  H11Y 4066   5.088   6.367   7.655  0.1601  2.6367  2.8990
   30SAPC  C312 4067   5.152   6.569   7.644 -0.3862  0.0904  0.1203
   30SAPC  H12X 4068   5.076   6.606   7.572  2.0187 -0.9664 -3.0500
   30SAPC  H12Y 4069   5.241   6.628   7.612  0.4065 -0.8421  0.5890
   30SAPC  C313 4070   5.088   6.603   7.782 -0.1591  0.1742  0.3284
   30SAPC  H13X 4071   4.990   6.550   7.786  1.1794 -2.2469  1.9368
   30SAPC  H13Y 4072   5.064   6.710   7.794 -0.7895  0.0684  0.0578
   30SAPC  C314 4073   5.175   6.564   7.902  0.1361 -0.1591 -0.1212
   30SAPC  H14X 4074   5.279   6.597   7.884 -0.1622  2.3369  2.4633
   30SAPC  H14Y 4075   5.179   6.455   7.924 -2.6654 -0.4725 -1.0186
   30SAPC  C315 4076   5.135   6.614   8.050 -0.4015 -0.1866 -0.1527
   30SAPC  H15X 4077   5.027   6.590   8.059 -0.4892 -0.0990 -0.9755
   30SAPC  H15Y 4078   5.142   6.725   8.058 -1.9789 -0.1993  1.9172
   30SAPC  C316 4079   5.224   6.555   8.160 -0.3007 -0.0323  0.3989
   30SAPC  H16X 4080   5.314   6.498   8.129  1.5130  2.6126  0.6512
   30SAPC  H16Y 4081   5.162   6.498   8.232  1.7665  0.1915  2.3884
   30SAPC  C317 4082   5.287   6.671   8.248  0.6187  0.0249  0.0665
   30SAPC  H17X 4083   5.329   6.747   8.179  2.2200  0.1725  1.1668
   30SAPC  H17Y 4084   5.372   6.629   8.307  1.3570  0.3144 -0.7772
   30SAPC  C318 4085   5.189   6.746   8.346  0.4004 -0.2825 -0.4932
   30SAPC  H18X 4086   5.243   6.820   8.408  0.9336  0.5080 -1.9000
   30SAPC  H18Y 4087   5.149   6.671   8.418 -1.9803  1.7706  0.3961
   30SAPC  H18Z 4088   5.114   6.803   8.287  2.4857  1.8660 -1.1277
   31SAPC     N 4089   4.929   0.971   6.313 -0.3674  0.2401  0.2521
   31SAPC   C12 4090   4.979   0.980   6.451  0.9140  0.1971  0.2019
   31SAPC  H12A 4091   4.915   0.921   6.515 -1.4311  3.2684  0.8251
   31SAPC  H12B 4092   4.962   1.080   6.489  0.8392  0.1921  0.1821
   31SAPC   C13 4093   4.786   1.010   6.305  0.1553  0.9456 -0.5372
   31SAPC  H13A 4094   4.759   1.040   6.205 -1.5477 -0.4457 -0.5134
   31SAPC  H13B 4095   4.729   0.929   6.348  0.7221  1.5972  1.5128
   31SAPC  H13C 4096   4.775   1.101   6.363  0.8006  0.7147 -0.0313
   31SAPC   C14 4097   5.001   1.065   6.225  0.7046 -0.1983  0.1836
   31SAPC  H14A 4098   4.991   1.168   6.257  0.4651  0.0482 -0.6894
   31SAPC  H14B 4099   5.104   1.033   6.216  0.7779 -0.5039  1.8736
   31SAPC  H14C 4100   4.965   1.057   6.124  1.0006  1.3684 -0.0620
   31SAPC   C15 4101   4.943   0.837   6.266 -0.7254  0.2181  0.3262
   31SAPC  H15A 4102   5.050   0.818   6.262 -0.1755  3.3312 -1.3013
   31SAPC  H15B 4103   4.894   0.773   6.338 -0.8368  1.9562  1.8152
   31SAPC  H15C 4104   4.906   0.811   6.168 -0.8942  0.3414  0.3582
   31SAPC   C11 4105   5.129   0.938   6.490 -0.0391  0.2563  0.0053
   31SAPC  H11A 4106   5.140   0.977   6.593 -1.9823  0.7347  0.0576
   31SAPC  H11B 4107   5.198   0.991   6.420  0.1508 -0.5619 -0.4312
   31SAPC     P 4108   5.269   0.713   6.490 -0.3829  0.4709  0.1635
   31SAPC   O13 4109   5.228   0.572   6.452 -0.2835  0.0018 -0.3035
   31SAPC   O14 4110   5.370   0.789   6.409  0.3006  0.3838  0.0660
   31SAPC   O12 4111   5.133   0.799   6.487  0.8814  0.5427  0.0598
   31SAPC   O11 4112   5.322   0.700   6.636 -0.0404  0.1546  0.2165
   31SAPC    C1 4113   5.372   0.805   6.716  0.0338 -0.2211 -0.6939
   31SAPC    HA 4114   5.334   0.905   6.685 -0.6677 -0.0587  0.6503
   31SAPC    HB 4115   5.351   0.801   6.825 -1.2743 -0.8554 -0.9610
   31SAPC    C2 4116   5.525   0.815   6.705 -0.6663 -0.7154  0.2614
   31SAPC    HS 4117   5.555   0.811   6.599 -2.1378  0.6822 -0.2277
   31SAPC   O21 4118   5.591   0.711   6.784  0.7724  0.0068  0.1783
   31SAPC   C21 4119   5.723   0.709   6.768  0.1390 -0.9854  0.8300
   31SAPC   O22 4120   5.785   0.776   6.682 -0.4898  0.3695  0.2099
   31SAPC   C22 4121   5.780   0.590   6.854  0.5446 -0.1331 -1.0116
   31SAPC   H2R 4122   5.745   0.625   6.954 -1.0713  0.1178 -1.6443
   31SAPC   H2S 4123   5.736   0.492   6.827  0.1788 -0.1109 -0.5190
   31SAPC    C3 4124   5.565   0.962   6.755  0.1646  0.3106  0.0583
   31SAPC    HX 4125   5.497   1.031   6.702  0.3629  1.1915  0.9452
   31SAPC    HY 4126   5.674   0.980   6.742  0.3071 -0.0225  0.7295
   31SAPC   O31 4127   5.538   0.975   6.895  0.2215  0.0449  0.7769
   31SAPC   C31 4128   5.438   1.045   6.939  0.6983  0.0939 -0.1572
   31SAPC   O32 4129   5.349   1.099   6.875 -0.4189 -0.0967 -0.2603
   31SAPC   C32 4130   5.457   1.075   7.087  0.2585 -0.1749 -0.1966
   31SAPC   H2X 4131   5.368   1.135   7.113  1.2600  1.0202  0.5192
   31SAPC   H2Y 4132   5.550   1.132   7.109  0.5480 -1.4244  2.0190
   31SAPC   C23 4133   5.938   0.598   6.857 -0.0229 -0.1396  1.0534
   31SAPC   H3R 4134   5.968   0.704   6.845  1.4986 -0.7338 -0.5205
   31SAPC   H3S 4135   5.967   0.544   6.765  0.9283  0.5225  0.9534
   31SAPC   C24 4136   5.995   0.520   6.982 -0.1579 -0.3530 -0.4931
   31SAPC   H4R 4137   6.084   0.472   6.935  0.8629  1.7806 -0.7948
   31SAPC   H4S 4138   5.923   0.439   7.007  1.4672 -2.0139 -1.0532
   31SAPC   C25 4139   6.033   0.618   7.098  0.4122  0.4985  0.4626
   31SAPC   H5R 4140   6.112   0.687   7.063  0.4250  1.2618  1.9599
   31SAPC   C26 4141   5.985   0.625   7.224  0.4131 -0.0164  0.2217
   31SAPC   H6R 4142   6.032   0.693   7.296  1.3909  0.0212 -0.4303
   31SAPC   C27 4143   5.867   0.547   7.283 -0.0236 -0.0965  0.2969
   31SAPC   H7R 4144   5.900   0.485   7.369  1.1813  0.1443  0.0154
   31SAPC   H7S 4145   5.821   0.475   7.212  2.0837 -0.7584 -0.4301
   31SAPC   C28 4146   5.757   0.638   7.308 -0.5550  0.4702 -0.1676
   31SAPC   H8R 4147   5.704   0.660   7.214  1.6935 -0.7539 -1.7630
   31SAPC   C29 4148   5.725   0.689   7.428  0.0653 -0.0832  0.0189
   31SAPC   H9R 4149   5.645   0.761   7.448  0.4224  0.3276 -0.0252
   31SAPC  C210 4150   5.810   0.656   7.552  0.3216 -0.2647 -0.3104
   31SAPC  H10R 4151   5.916   0.646   7.523  0.1470  2.5006 -2.0385
   31SAPC  H10S 4152   5.779   0.557   7.593 -1.8833  1.3778  2.1905
   31SAPC  C211 4153   5.800   0.753   7.668  0.5365  0.1145  0.7307
   31SAPC  H11R 4154   5.821   0.857   7.638 -0.6692  0.9390  2.6351
   31SAPC  C212 4155   5.749   0.734   7.790 -0.2776  0.7482 -0.1724
   31SAPC  H12R 4156   5.742   0.814   7.865 -0.4127 -1.2907  2.0431
   31SAPC  C213 4157   5.676   0.614   7.838  0.2418  0.7865 -0.5608
   31SAPC  H13R 4158   5.669   0.532   7.762 -1.3028  0.2569  0.1244
   31SAPC  H13S 4159   5.573   0.642   7.868  0.2298  0.3354 -0.1783
   31SAPC  C214 4160   5.756   0.550   7.952 -0.5013 -0.4022 -0.6260
   31SAPC  H14R 4161   5.829   0.477   7.914  3.3159  3.1053 -0.3647
   31SAPC  C215 4162   5.741   0.575   8.085 -0.0231 -0.2229 -0.3821
   31SAPC  H15R 4163   5.811   0.522   8.150  0.6270  0.0615 -0.8403
   31SAPC  C216 4164   5.648   0.673   8.148 -0.4043  0.2432 -0.5532
   31SAPC  H16R 4165   5.581   0.712   8.069  1.8530  1.4993 -1.8648
   31SAPC  H16S 4166   5.713   0.747   8.200 -0.9390 -0.0757  0.5995
   31SAPC  C217 4167   5.551   0.622   8.266  0.4446 -0.0916  0.1327
   31SAPC  H17R 4168   5.485   0.548   8.216 -0.9228  0.2398  1.4092
   31SAPC  H17S 4169   5.484   0.702   8.305  0.5072  0.3774 -0.7108
   31SAPC  C218 4170   5.628   0.545   8.379 -0.0191 -0.6920  0.5570
   31SAPC  H18R 4171   5.712   0.600   8.428 -0.7522  0.5506  0.4198
   31SAPC  H18S 4172   5.678   0.452   8.343  0.7440 -0.4451  0.9767
   31SAPC  C219 4173   5.537   0.524   8.501 -0.4562  0.2089  0.3979
   31SAPC  H19R 4174   5.602   0.468   8.572 -0.7070 -1.4508 -0.6709
   31SAPC  H19S 4175   5.455   0.461   8.461 -1.1483  2.8620 -2.6251
   31SAPC  C220 4176   5.475   0.648   8.576  0.4677  0.2486 -0.8725
   31SAPC  H20R 4177   5.556   0.717   8.608 -1.6358  1.6944  1.4722
   31SAPC  H20S 4178   5.414   0.613   8.662 -2.8527 -0.3362 -3.3632
   31SAPC  H20T 4179   5.405   0.701   8.508  0.2649  0.4576 -0.4972
   31SAPC   C33 4180   5.458   0.934   7.162 -0.2469 -0.5807  0.5251
   31SAPC   H3X 4181   5.562   0.896   7.158 -0.8487 -2.1538 -1.0111
   31SAPC   H3Y 4182   5.394   0.861   7.107 -0.1349 -2.8882  3.3421
   31SAPC   C34 4183   5.423   0.953   7.315 -0.5706  0.1126 -0.4121
   31SAPC   H4X 4184   5.406   0.857   7.367 -0.9979  0.1186 -0.5350
   31SAPC   H4Y 4185   5.325   1.003   7.331 -0.9862 -1.1147  0.9532
   31SAPC   C35 4186   5.526   1.031   7.394 -0.6915  0.5966  0.0908
   31SAPC   H5X 4187   5.531   1.136   7.359 -0.3382  0.0903 -1.3956
   31SAPC   H5Y 4188   5.623   0.981   7.375 -2.3982 -2.3980 -1.0526
   31SAPC   C36 4189   5.487   1.022   7.546 -0.5804 -0.1247 -0.8566
   31SAPC   H6X 4190   5.562   1.085   7.599  0.4802 -0.2202 -2.2131
   31SAPC   H6Y 4191   5.497   0.920   7.588  0.2183  0.1857 -0.2841
   31SAPC   C37 4192   5.341   1.054   7.582 -0.5979 -0.5085  0.4926
   31SAPC   H7X 4193   5.270   0.987   7.529  1.8243 -0.6611 -2.6944
   31SAPC   H7Y 4194   5.321   1.161   7.561  0.0912 -0.5546 -0.4443
   31SAPC   C38 4195   5.320   1.032   7.738  0.1280 -0.5190  0.0139
   31SAPC   H8X 4196   5.346   0.925   7.751 -0.3698 -0.6262  0.1335
   31SAPC   H8Y 4197   5.211   1.038   7.760 -0.0837 -1.2367 -0.8405
   31SAPC   C39 4198   5.410   1.121   7.823 -0.0734 -0.1176  0.2323
   31SAPC   H9X 4199   5.408   1.223   7.778 -2.3960  0.0610  0.6723
   31SAPC   H9Y 4200   5.520   1.107   7.819 -0.1738 -1.0407  0.5767
   31SAPC  C310 4201   5.363   1.126   7.970  0.1695  0.4213  0.1421
   31SAPC  H10X 4202   5.252   1.126   7.979  0.1571 -1.3802  0.2306
   31SAPC  H10Y 4203   5.390   1.227   8.007 -1.1226  1.1465 -0.8386
   31SAPC  C311 4204   5.421   1.020   8.058  0.0151  0.9396  0.0181
   31SAPC  H11X 4205   5.532   1.033   8.057  0.4702 -2.3767 -0.0898
   31SAPC  H11Y 4206   5.400   0.919   8.017  1.0516  0.9556 -0.5841
   31SAPC  C312 4207   5.364   1.007   8.198 -0.8451  0.3011  0.1819
   31SAPC  H12X 4208   5.410   0.915   8.242 -1.5276  0.0431  0.3552
   31SAPC  H12Y 4209   5.255   0.988   8.187 -0.6468 -1.2824  0.8309
   31SAPC  C313 4210   5.389   1.138   8.278 -0.1347 -0.0487  1.1923
   31SAPC  H13X 4211   5.337   1.232   8.252 -1.9011 -1.3932 -0.2968
   31SAPC  H13Y 4212   5.499   1.155   8.279 -0.0044 -0.3257 -1.6939
   31SAPC  C314 4213   5.364   1.117   8.426  0.4860  0.3868 -0.1067
   31SAPC  H14X 4214   5.427   1.036   8.469  2.9961  2.4225  0.1143
   31SAPC  H14Y 4215   5.261   1.086   8.456  1.1740  1.4934  3.5372
   31SAPC  C315 4216   5.394   1.249   8.505  0.2233 -0.9710  0.0597
   31SAPC  H15X 4217   5.372   1.221   8.610  0.3806  2.4227  1.0534
   31SAPC  H15Y 4218   5.327   1.330   8.468 -1.8424 -2.5090  0.3708
   31SAPC  C316 4219   5.544   1.295   8.495  0.2272  0.1841 -0.9610
   31SAPC  H16X 4220   5.579   1.321   8.393  1.4063  0.2132 -0.5476
   31SAPC  H16Y 4221   5.602   1.211   8.539  2.6189  1.6268 -1.2613
   31SAPC  C317 4222   5.580   1.426   8.571  0.2539  0.4438  0.8710
   31SAPC  H17X 4223   5.567   1.408   8.680 -3.4504  1.1391  0.6038
   31SAPC  H17Y 4224   5.522   1.507   8.523 -0.2531 -0.4086  0.0437
   31SAPC  C318 4225   5.736   1.451   8.537 -0.1488 -0.1410 -0.0244
   31SAPC  H18X 4226   5.799   1.362   8.559  1.5052  1.1078  0.4283
   31SAPC  H18Y 4227   5.763   1.540   8.599 -2.0955  0.0814  0.5490
   31SAPC  H18Z 4228   5.742   1.498   8.436 -0.3896 -1.5644 -0.7075
   32SAPC     N 4229   0.430   1.343   6.017  0.9857 -0.5632 -0.0718
   32SAPC   C12 4230   0.558   1.313   6.093 -0.1292 -0.2497  0.3261
   32SAPC  H12A 4231   0.546   1.339   6.197 -2.2587  1.2359 -0.2816
   32SAPC  H12B 4232   0.645   1.371   6.065 -1.2452  0.6587 -1.3658
   32SAPC   C13 4233   0.396   1.492   6.012 -0.7288  0.0998  1.0948
   32SAPC  H13A 4234   0.483   1.548   5.981 -0.7588  0.0765  0.9696
   32SAPC  H13B 4235   0.308   1.518   5.954  1.0052  2.0600 -0.7656
   32SAPC  H13C 4236   0.375   1.530   6.111 -0.5117  0.9649  0.8110
   32SAPC   C14 4237   0.451   1.294   5.880 -0.1244 -0.3023  0.6250
   32SAPC  H14A 4238   0.365   1.327   5.824  0.5663 -1.6812 -1.3096
   32SAPC  H14B 4239   0.528   1.350   5.830  0.2032 -1.3521 -0.0712
   32SAPC  H14C 4240   0.477   1.190   5.869 -0.2955 -0.2128 -0.6813
   32SAPC   C15 4241   0.305   1.285   6.083 -0.3993  0.8827  0.6313
   32SAPC  H15A 4242   0.323   1.180   6.101  0.0911  0.9176  0.3315
   32SAPC  H15B 4243   0.275   1.334   6.175 -2.9130  2.7364 -1.1074
   32SAPC  H15C 4244   0.221   1.279   6.015  0.6492 -2.4082 -0.4706
   32SAPC   C11 4245   0.603   1.166   6.116  0.2538  0.4482 -0.3841
   32SAPC  H11A 4246   0.701   1.174   6.168 -0.7021  1.1483  1.3497
   32SAPC  H11B 4247   0.622   1.115   6.019 -2.0566  1.2374 -1.2902
   32SAPC     P 4248   0.449   0.950   6.181  0.5003  0.1304  0.2063
   32SAPC   O13 4249   0.329   0.979   6.104 -0.2823  0.0081  0.1915
   32SAPC   O14 4250   0.551   0.860   6.120  0.4136 -0.3593  0.5446
   32SAPC   O12 4251   0.518   1.088   6.203 -0.4593  0.3517  0.1610
   32SAPC   O11 4252   0.408   0.892   6.323  0.1733 -0.3145 -0.2038
   32SAPC    C1 4253   0.343   0.973   6.419 -0.4866 -0.7547 -0.7219
   32SAPC    HA 4254   0.246   1.013   6.382 -0.8615 -2.3007 -1.4534
   32SAPC    HB 4255   0.308   0.903   6.498  0.2033 -3.1370 -2.4599
   32SAPC    C2 4256   0.423   1.088   6.489 -0.5761 -0.5735 -0.9155
   32SAPC    HS 4257   0.448   1.167   6.415 -1.4336  0.2534 -0.3247
   32SAPC   O21 4258   0.544   1.033   6.537  0.2969  0.2977  0.0580
   32SAPC   C21 4259   0.651   1.116   6.539  0.0904 -0.6209 -0.0093
   32SAPC   O22 4260   0.653   1.233   6.503  0.5248  0.5679  0.1090
   32SAPC   C22 4261   0.755   1.048   6.621  0.3724  0.8459  0.1389
   32SAPC   H2R 4262   0.706   1.000   6.708 -0.4521  1.4396  0.0169
   32SAPC   H2S 4263   0.808   0.967   6.566  0.3360  0.4058  0.7543
   32SAPC    C3 4264   0.353   1.167   6.600  0.6410  0.2075 -0.2658
   32SAPC    HX 4265   0.265   1.220   6.556  0.9846 -0.5576 -1.9096
   32SAPC    HY 4266   0.411   1.255   6.634  0.5064 -0.3197  1.4114
   32SAPC   O31 4267   0.315   1.088   6.717  0.2326 -0.4286  0.6637
   32SAPC   C31 4268   0.249   1.163   6.809 -0.2650 -0.0199  0.2222
   32SAPC   O32 4269   0.223   1.283   6.799  0.3137  0.1713 -0.2543
   32SAPC   C32 4270   0.232   1.072   6.928 -0.3594 -0.7643  0.2304
   32SAPC   H2X 4271   0.331   1.051   6.975 -0.2165  0.1364  0.3479
   32SAPC   H2Y 4272   0.173   0.980   6.911  1.9214 -2.2439  0.0659
   32SAPC   C23 4273   0.865   1.138   6.664  0.5899 -0.1705 -0.5686
   32SAPC   H3R 4274   0.832   1.236   6.705  1.9349  0.4994 -1.0385
   32SAPC   H3S 4275   0.926   1.185   6.584  0.7481  0.8546  0.1398
   32SAPC   C24 4276   0.966   1.075   6.762 -0.4418 -0.4738 -0.2430
   32SAPC   H4R 4277   1.032   1.159   6.794  0.8086 -0.4173 -2.8214
   32SAPC   H4S 4278   1.031   0.999   6.714 -0.6142 -0.2054 -0.9026
   32SAPC   C25 4279   0.907   1.011   6.885  0.1862 -1.2111 -0.0741
   32SAPC   H5R 4280   0.926   0.903   6.892 -0.7267 -1.5305 -2.3185
   32SAPC   C26 4281   0.820   1.076   6.974 -0.4264  0.1495 -0.4257
   32SAPC   H6R 4282   0.784   1.013   7.057  2.1453 -0.4337  0.3041
   32SAPC   C27 4283   0.774   1.221   6.984 -0.1863 -0.6136 -0.2301
   32SAPC   H7R 4284   0.817   1.296   6.915 -1.9134  0.5848 -0.0171
   32SAPC   H7S 4285   0.813   1.239   7.087  1.1799  1.2487 -1.0419
   32SAPC   C28 4286   0.623   1.231   6.971 -0.3079  0.1875  0.8097
   32SAPC   H8R 4287   0.581   1.247   6.871  1.1284 -1.6849 -0.1240
   32SAPC   C29 4288   0.539   1.232   7.081 -0.1419  0.1512  0.9173
   32SAPC   H9R 4289   0.432   1.213   7.066  0.0987  0.7784 -1.8237
   32SAPC  C210 4290   0.585   1.229   7.224  0.2220  0.0843 -0.2818
   32SAPC  H10R 4291   0.693   1.237   7.247 -0.1772 -0.6977  1.9554
   32SAPC  H10S 4292   0.555   1.125   7.251 -2.0781  0.9946  0.8229
   32SAPC  C211 4293   0.498   1.311   7.317 -0.7045 -0.9011 -0.6822
   32SAPC  H11R 4294   0.406   1.355   7.275 -0.8975 -0.1170  0.5356
   32SAPC  C212 4295   0.535   1.344   7.444  0.0653 -0.0510  0.3480
   32SAPC  H12R 4296   0.463   1.406   7.499 -2.1690 -0.8589 -1.5935
   32SAPC  C213 4297   0.663   1.324   7.519  0.5999 -0.4066  0.3246
   32SAPC  H13R 4298   0.708   1.425   7.515 -2.0249  0.8034 -0.1983
   32SAPC  H13S 4299   0.735   1.252   7.474  0.8359 -0.0712  0.1635
   32SAPC  C214 4300   0.645   1.279   7.664  0.1663 -0.3575  0.4828
   32SAPC  H14R 4301   0.627   1.172   7.676 -2.0192 -0.2295 -1.2223
   32SAPC  C215 4302   0.650   1.349   7.777  0.6444  1.6887  0.0139
   32SAPC  H15R 4303   0.640   1.294   7.872  1.5957  0.1814 -0.7582
   32SAPC  C216 4304   0.666   1.493   7.772  0.1040  0.1871  0.3484
   32SAPC  H16R 4305   0.624   1.526   7.674  1.3474  1.8526  0.3511
   32SAPC  H16S 4306   0.775   1.506   7.759  0.2716  1.8905  3.1235
   32SAPC  C217 4307   0.595   1.580   7.876 -0.4352  0.2996  0.2792
   32SAPC  H17R 4308   0.486   1.578   7.853 -1.0098  0.5300  2.8103
   32SAPC  H17S 4309   0.639   1.682   7.872  1.3767 -0.4921 -0.3746
   32SAPC  C218 4310   0.625   1.527   8.025 -0.3337  0.0151  0.1651
   32SAPC  H18R 4311   0.735   1.535   8.038 -0.1918 -0.8533 -0.5050
   32SAPC  H18S 4312   0.582   1.425   8.035  0.4469 -0.1936  1.5921
   32SAPC  C219 4313   0.573   1.620   8.139  0.1165 -0.7105 -0.0798
   32SAPC  H19R 4314   0.600   1.565   8.231  0.6401  0.1650  0.2956
   32SAPC  H19S 4315   0.466   1.645   8.119 -0.2636 -3.3523 -1.5946
   32SAPC  C220 4316   0.658   1.755   8.143 -0.0992  0.1601  0.2666
   32SAPC  H20R 4317   0.633   1.827   8.224  2.6235  0.4233  0.8935
   32SAPC  H20S 4318   0.631   1.812   8.052  1.7902 -0.4875 -0.7017
   32SAPC  H20T 4319   0.767   1.736   8.142 -0.1661 -0.2271  0.0123
   32SAPC   C33 4320   0.153   1.149   7.038 -0.1353  0.0883  0.1429
   32SAPC   H3X 4321   0.045   1.149   7.015  0.3452  0.3028 -2.1909
   32SAPC   H3Y 4322   0.190   1.252   7.057  3.3600 -1.0490 -0.0831
   32SAPC   C34 4323   0.170   1.081   7.179  0.8898  0.0660 -0.0689
   32SAPC   H4X 4324   0.270   1.099   7.223  0.7995  0.7582 -0.1395
   32SAPC   H4Y 4325   0.149   0.973   7.163 -0.4343  0.7374 -3.3452
   32SAPC   C35 4326   0.076   1.132   7.298 -0.4299  0.5556 -0.2063
   32SAPC   H5X 4327   0.044   1.049   7.364 -0.8810 -0.4281 -1.6406
   32SAPC   H5Y 4328  -0.015   1.178   7.254 -1.1429  1.2629  1.9650
   32SAPC   C36 4329   0.127   1.241   7.388  0.7217  0.2786 -0.0453
   32SAPC   H6X 4330   0.226   1.209   7.428  1.5849  0.1888 -2.1835
   32SAPC   H6Y 4331   0.070   1.235   7.484  0.0215 -2.9417 -0.5796
   32SAPC   C37 4332   0.120   1.383   7.329  0.3839 -0.1154  0.2840
   32SAPC   H7X 4333   0.016   1.420   7.316  1.3216  2.4017 -0.2205
   32SAPC   H7Y 4334   0.163   1.379   7.227 -0.0374  0.3507  0.0866
   32SAPC   C38 4335   0.198   1.487   7.408  0.2392 -0.5005  0.2171
   32SAPC   H8X 4336   0.191   1.583   7.352 -1.3563  0.0532  1.3346
   32SAPC   H8Y 4337   0.302   1.449   7.407 -0.7060 -3.1326  0.2005
   32SAPC   C39 4338   0.151   1.511   7.547  0.0203  0.2746 -0.2963
   32SAPC   H9X 4339   0.173   1.426   7.615 -0.5276  1.0859  0.9179
   32SAPC   H9Y 4340   0.040   1.520   7.549 -0.0942 -0.7429 -1.6679
   32SAPC  C310 4341   0.222   1.629   7.603 -0.8085  0.1039  0.7676
   32SAPC  H10X 4342   0.203   1.708   7.526  2.7726 -2.4634 -2.9379
   32SAPC  H10Y 4343   0.330   1.606   7.599 -0.3811  2.2237 -2.4314
   32SAPC  C311 4344   0.177   1.685   7.743 -0.0744  0.0559  0.1008
   32SAPC  H11X 4345   0.190   1.601   7.815  0.7675 -1.1977 -1.4874
   32SAPC  H11Y 4346   0.070   1.715   7.742 -0.5749 -1.5103  2.2753
   32SAPC  C312 4347   0.268   1.797   7.790 -0.5565 -1.2378  0.1440
   32SAPC  H12X 4348   0.251   1.890   7.732 -1.1180 -0.3919  1.6196
   32SAPC  H12Y 4349   0.374   1.766   7.782 -1.0299 -3.1712  0.9495
   32SAPC  C313 4350   0.247   1.812   7.939  0.1262 -1.0740 -0.2223
   32SAPC  H13X 4351   0.256   1.715   7.993 -1.3528 -0.6835  0.7536
   32SAPC  H13Y 4352   0.142   1.844   7.954  0.8398  0.9409  0.6339
   32SAPC  C314 4353   0.346   1.920   7.998  0.5137 -0.4064  0.2744
   32SAPC  H14X 4354   0.319   2.017   7.950  4.2205  0.2991 -0.5411
   32SAPC  H14Y 4355   0.450   1.886   7.979 -0.1198 -1.2987 -1.7461
   32SAPC  C315 4356   0.333   1.935   8.153  0.3890 -0.2736 -0.4601
   32SAPC  H15X 4357   0.413   1.881   8.208  1.2832  0.2211 -1.2393
   32SAPC  H15Y 4358   0.240   1.887   8.189  2.0848 -2.1396  1.5546
   32SAPC  C316 4359   0.339   2.083   8.196 -0.3843 -0.3743 -0.6146
   32SAPC  H16X 4360   0.245   2.136   8.168  0.7803  2.4133  0.6582
   32SAPC  H16Y 4361   0.424   2.137   8.151  1.4997 -1.1271  1.9738
   32SAPC  C317 4362   0.361   2.099   8.346 -0.1949  0.1536  0.3423
   32SAPC  H17X 4363   0.454   2.045   8.374 -0.8370 -1.2107 -0.1048
   32SAPC  H17Y 4364   0.277   2.051   8.401  1.4432  0.3208  3.0437
   32SAPC  C318 4365   0.358   2.246   8.391  0.6931 -0.2499 -0.6766
   32SAPC  H18X 4366   0.261   2.278   8.349  0.5961 -1.9911 -1.8287
   32SAPC  H18Y 4367   0.441   2.298   8.338  2.0487  0.1030  1.7319
   32SAPC  H18Z 4368   0.354   2.263   8.501  1.8200 -0.1753 -0.6395
   33POPC     N 4369   4.016   2.081  10.956 -0.2076  0.2975  0.0419
   33POPC   C12 4370   4.029   2.088  10.808 -0.3771  0.9371 -0.2937
   33POPC  H12A 4371   4.093   2.004  10.783 -0.3875  0.1752  2.1310
   33POPC  H12B 4372   4.089   2.172  10.776  1.5051 -0.6669 -1.0715
   33POPC   C13 4373   3.950   2.198  11.018 -0.6098  0.7137 -0.1064
   33POPC  H13A 4374   3.932   2.173  11.121  2.1295  0.0329  0.2474
   33POPC  H13B 4375   4.007   2.290  11.013 -0.2802  0.5675  0.8268
   33POPC  H13C 4376   3.856   2.213  10.966 -0.1581  1.0958 -0.8285
   33POPC   C14 4377   3.950   1.960  11.008  0.0796 -0.2876 -0.8275
   33POPC  H14A 4378   3.969   1.963  11.114 -0.9486 -2.9350 -0.5292
   33POPC  H14B 4379   3.848   1.949  10.974 -0.2262 -0.3290  0.0994
   33POPC  H14C 4380   3.996   1.868  10.976  1.0915 -0.0133 -0.1740
   33POPC   C15 4381   4.156   2.073  11.016 -0.0091 -0.3841 -0.4799
   33POPC  H15A 4382   4.159   2.094  11.122  0.2335 -1.7858 -0.1977
   33POPC  H15B 4383   4.225   2.146  10.977  0.0042 -0.5474 -0.7619
   33POPC  H15C 4384   4.193   1.972  11.009  0.6373 -0.3560  2.0106
   33POPC   C11 4385   3.901   2.068  10.718 -0.2827  0.4110 -0.3499
   33POPC  H11A 4386   3.843   1.979  10.752 -1.5022  1.5415  0.5843
   33POPC  H11B 4387   3.942   2.048  10.617  2.8051  0.0837  0.9157
   33POPC     P 4388   3.854   2.313  10.639  0.0105  0.0429 -0.1447
   33POPC   O13 4389   3.996   2.342  10.665  0.5881 -0.5105 -0.4717
   33POPC   O14 4390   3.758   2.428  10.667 -0.2331  0.0306 -0.4062
   33POPC   O12 4391   3.820   2.183  10.729  0.1734  0.3088 -0.1205
   33POPC   O11 4392   3.824   2.265  10.493 -0.5497  0.5062 -0.2880
   33POPC    C1 4393   3.695   2.257  10.440  0.1208 -0.0167 -0.6094
   33POPC    HA 4394   3.620   2.320  10.493 -1.3217 -3.1282  1.2385
   33POPC    HB 4395   3.711   2.288  10.335  0.1007  0.0209 -0.6018
   33POPC    C2 4396   3.650   2.114  10.417  0.0420  0.0932 -0.4175
   33POPC    HS 4397   3.624   2.072  10.516  0.2964 -1.3758 -0.9622
   33POPC   O21 4398   3.762   2.051  10.360 -0.3055  0.0867  0.3371
   33POPC   C21 4399   3.749   1.922  10.351  0.0570  0.6596 -0.5624
   33POPC   O22 4400   3.661   1.857  10.395 -0.0850  0.5459 -0.0421
   33POPC   C22 4401   3.870   1.860  10.279  0.5526  0.3105  0.8913
   33POPC   H2R 4402   3.927   1.793  10.346 -1.3327 -0.8388  1.3901
   33POPC   H2S 4403   3.943   1.940  10.255  0.1518  0.4104 -0.0503
   33POPC    C3 4404   3.521   2.097  10.327  0.0202  0.3544 -0.3829
   33POPC    HX 4405   3.430   2.151  10.363  0.1546 -0.4385  1.1936
   33POPC    HY 4406   3.489   1.991  10.328  1.3593 -0.1965 -4.6581
   33POPC   O31 4407   3.550   2.134  10.190 -0.0061 -0.2369  0.0900
   33POPC   C31 4408   3.460   2.102  10.096 -0.9162  0.1150  0.8225
   33POPC   O32 4409   3.354   2.048  10.107 -0.5795  0.7093 -0.0291
   33POPC   C32 4410   3.515   2.148   9.968  1.2861 -0.6500 -0.1557
   33POPC   H2X 4411   3.606   2.088   9.947  1.1251 -0.8181 -0.3768
   33POPC   H2Y 4412   3.530   2.258   9.976 -0.4065 -0.4173  0.0156
   33POPC   C23 4413   3.842   1.776  10.152 -0.0747 -0.9147 -0.8419
   33POPC   H3R 4414   3.804   1.673  10.167 -2.3001 -0.5401 -3.3647
   33POPC   H3S 4415   3.947   1.767  10.118  0.3333 -0.2406  0.2171
   33POPC   C24 4416   3.765   1.844  10.041  0.3166  0.0563  1.4946
   33POPC   H4R 4417   3.817   1.942  10.026  1.2929 -0.6126  0.4188
   33POPC   H4S 4418   3.665   1.864  10.085 -0.7471 -1.5998 -0.1135
   33POPC   C25 4419   3.752   1.768   9.907  0.1182 -0.0961 -0.1442
   33POPC   H5R 4420   3.698   1.671   9.912  1.4556 -0.8069  0.7413
   33POPC   H5S 4421   3.859   1.751   9.885  0.6674  0.8204  1.7388
   33POPC   C26 4422   3.695   1.857   9.798  0.5012 -0.0268  0.0361
   33POPC   H6R 4423   3.758   1.948   9.793 -0.7284  0.7907 -0.8215
   33POPC   H6S 4424   3.591   1.876   9.831  0.8812 -1.6141  2.2963
   33POPC   C27 4425   3.710   1.784   9.665  0.0127  0.4203 -0.2805
   33POPC   H7R 4426   3.648   1.693   9.679 -0.8153  0.8360 -1.1861
   33POPC   H7S 4427   3.819   1.767   9.652 -0.1599 -0.4861 -0.6205
   33POPC   C28 4428   3.654   1.862   9.549  0.4629 -0.0138  0.8413
   33POPC   H8R 4429   3.695   1.965   9.549 -2.1237  1.0643  0.7651
   33POPC   H8S 4430   3.548   1.892   9.566  0.2913 -1.5111  2.5761
   33POPC   C29 4431   3.663   1.784   9.418 -0.1753  0.1529  0.0060
   33POPC   H91 4432   3.766   1.786   9.381 -0.4351 -0.9858 -0.8213
   33POPC  C210 4433   3.555   1.728   9.357  0.3378  0.3748 -0.0875
   33POPC  H101 4434   3.583   1.691   9.258  2.5995 -0.0352  0.6661
   33POPC  C211 4435   3.405   1.727   9.372  0.4129  0.1622 -0.6539
   33POPC  H11R 4436   3.382   1.784   9.465  1.6282 -0.6157  0.1321
   33POPC  H11S 4437   3.375   1.620   9.378  1.0076  0.0597  0.7638
   33POPC  C212 4438   3.331   1.794   9.252 -0.2411  0.3274  0.2802
   33POPC  H12R 4439   3.346   1.903   9.241 -0.8018  0.2838 -1.0295
   33POPC  H12S 4440   3.222   1.788   9.276 -0.2510 -0.9958 -0.0413
   33POPC  C213 4441   3.347   1.725   9.119  0.1239 -0.0380  0.4711
   33POPC  H13R 4442   3.323   1.617   9.132  0.1873 -0.1111 -0.0031
   33POPC  H13S 4443   3.451   1.740   9.083 -0.4881  4.1127  0.2276
   33POPC  C214 4444   3.250   1.795   9.014 -0.0386 -0.2907 -0.4751
   33POPC  H14R 4445   3.261   1.905   9.004  0.9950 -0.2865  0.5306
   33POPC  H14S 4446   3.153   1.772   9.063  1.6587 -2.3074  2.0857
   33POPC  C215 4447   3.243   1.748   8.861 -0.5827  0.0543  0.0557
   33POPC  H15R 4448   3.173   1.818   8.811 -0.6203 -0.2858 -0.3738
   33POPC  H15S 4449   3.194   1.648   8.859  0.3511 -0.5290  2.9470
   33POPC  C216 4450   3.375   1.741   8.793 -0.5137 -0.1418 -0.1196
   33POPC  H16R 4451   3.437   1.665   8.844  1.6584  0.7776 -1.3329
   33POPC  H16S 4452   3.423   1.840   8.809 -1.4464  0.4332 -0.8139
   33POPC  C217 4453   3.354   1.728   8.640 -0.3548  0.0653 -0.5699
   33POPC  H17R 4454   3.294   1.810   8.594  0.6541  1.2808  0.2407
   33POPC  H17S 4455   3.304   1.630   8.624 -1.8027  0.6976 -0.0429
   33POPC  C218 4456   3.480   1.714   8.555  0.1967  0.7352  0.7524
   33POPC  H18R 4457   3.536   1.620   8.574  0.1300  0.4142 -0.6044
   33POPC  H18S 4458   3.533   1.812   8.551  0.9866  0.2478 -1.1042
   33POPC  H18T 4459   3.436   1.697   8.455  0.4271 -1.9598  1.0722
   33POPC   C33 4460   3.415   2.114   9.853  0.3802 -0.4792  0.6628
   33POPC   H3X 4461   3.314   2.155   9.877  1.1594  1.7322  0.3015
   33POPC   H3Y 4462   3.404   2.005   9.838 -0.9528 -0.2460 -0.1708
   33POPC   C34 4463   3.456   2.172   9.718 -0.2161 -0.1248  0.4448
   33POPC   H4X 4464   3.554   2.130   9.687  0.1898  1.2992 -0.2598
   33POPC   H4Y 4465   3.467   2.282   9.732  1.0860  0.2185 -2.8404
   33POPC   C35 4466   3.354   2.149   9.606 -0.3440  0.0511  0.2192
   33POPC   H5X 4467   3.260   2.205   9.622 -1.1948 -1.0926 -0.6763
   33POPC   H5Y 4468   3.341   2.039   9.598  2.8132 -0.2768 -1.2593
   33POPC   C36 4469   3.416   2.179   9.469 -0.3613 -0.1698 -0.1263
   33POPC   H6X 4470   3.483   2.097   9.436 -0.4150 -0.0571 -0.5167
   33POPC   H6Y 4471   3.465   2.278   9.463 -0.4459 -0.0056  1.5333
   33POPC   C37 4472   3.307   2.173   9.357 -0.2210  0.4909  0.5272
   33POPC   H7X 4473   3.226   2.245   9.383 -2.2606 -1.4713 -0.2195
   33POPC   H7Y 4474   3.252   2.077   9.346  2.4249 -0.8745 -1.6778
   33POPC   C38 4475   3.373   2.220   9.224 -0.7151  0.0165 -1.1899
   33POPC   H8X 4476   3.456   2.151   9.198 -1.6216 -1.8263  0.6246
   33POPC   H8Y 4477   3.414   2.322   9.239 -1.1208 -0.1473  1.1951
   33POPC   C39 4478   3.272   2.224   9.104  0.3788 -0.4093 -0.1853
   33POPC   H9X 4479   3.182   2.282   9.133  1.9637  1.8731  0.3446
   33POPC   H9Y 4480   3.239   2.121   9.082  2.1022 -1.1536  0.6088
   33POPC  C310 4481   3.327   2.276   8.976  0.5665 -0.5050 -0.1842
   33POPC  H10X 4482   3.411   2.207   8.956 -0.0753 -1.5307  0.6304
   33POPC  H10Y 4483   3.357   2.381   8.998  2.4887 -1.1065  0.2011
   33POPC  C311 4484   3.218   2.272   8.869  0.3132 -0.1830 -0.3306
   33POPC  H11X 4485   3.172   2.170   8.873 -1.2424  0.4871 -0.5310
   33POPC  H11Y 4486   3.263   2.280   8.768  1.6441  1.9377  0.4113
   33POPC  C312 4487   3.128   2.395   8.881  0.1808 -0.0969  0.2196
   33POPC  H12X 4488   3.189   2.488   8.878 -0.1992  0.0951 -2.6568
   33POPC  H12Y 4489   3.072   2.389   8.976  0.2880  2.7256  0.4956
   33POPC  C313 4490   3.028   2.416   8.764 -0.1911  0.0344 -1.1027
   33POPC  H13X 4491   2.962   2.503   8.783  0.1516 -0.1433  1.0824
   33POPC  H13Y 4492   2.963   2.328   8.744  1.3628 -1.3409 -0.1802
   33POPC  C314 4493   3.101   2.467   8.640 -0.1146  0.2026  1.0479
   33POPC  H14X 4494   3.179   2.399   8.598 -0.5500  0.9347 -1.0303
   33POPC  H14Y 4495   3.159   2.559   8.662  2.4080 -1.2506  0.6790
   33POPC  C315 4496   2.996   2.518   8.534 -0.2294 -0.3124 -0.0670
   33POPC  H15X 4497   2.927   2.432   8.516  0.2752 -1.1956  2.0681
   33POPC  H15Y 4498   3.050   2.532   8.439  0.6554 -0.8701  0.3492
   33POPC  C316 4499   2.915   2.641   8.567  0.0410 -0.5658  0.4091
   33POPC  H16X 4500   2.829   2.625   8.637 -0.8694 -0.1244 -0.5909
   33POPC  H16Y 4501   2.867   2.682   8.476  0.8534 -2.5356 -0.9426
   33POPC  H16Z 4502   2.972   2.727   8.608 -2.0886  1.3032 -0.4691
   34POPC     N 4503   2.937   2.944  10.437  0.3079 -0.2688  0.4079
   34POPC   C12 4504   3.078   2.952  10.501 -0.2799  0.2253 -0.5254
   34POPC  H12A 4505   3.057   3.009  10.590 -1.2414 -2.7181  1.2057
   34POPC  H12B 4506   3.141   3.003  10.429  0.8277 -0.3509  0.0285
   34POPC   C13 4507   2.871   3.078  10.391  1.1186 -0.3565 -0.6924
   34POPC  H13A 4508   2.768   3.064  10.361  0.9676 -2.5896  0.7911
   34POPC  H13B 4509   2.862   3.153  10.469  2.8382 -1.7511  0.8815
   34POPC  H13C 4510   2.916   3.125  10.304  0.0713 -0.9614 -1.5689
   34POPC   C14 4511   2.939   2.848  10.322  0.2454 -0.5492  0.1758
   34POPC  H14A 4512   2.848   2.854  10.263 -1.1562  2.6593  2.5220
   34POPC  H14B 4513   3.017   2.885  10.258 -0.0680  1.8834  1.1486
   34POPC  H14C 4514   2.951   2.744  10.346  0.1313 -0.5950  0.0435
   34POPC   C15 4515   2.841   2.888  10.534  0.2821  0.6384  0.4044
   34POPC  H15A 4516   2.865   2.784  10.551 -1.1077  0.3704  0.8050
   34POPC  H15B 4517   2.737   2.882  10.505  0.1175  0.3925  1.0236
   34POPC  H15C 4518   2.838   2.949  10.624  2.9160  1.5968 -0.1396
   34POPC   C11 4519   3.142   2.823  10.556 -0.2243 -0.1315 -0.3298
   34POPC  H11A 4520   3.133   2.739  10.484  2.2293 -1.3911  0.7568
   34POPC  H11B 4521   3.075   2.787  10.637  0.5614 -0.1702  0.3048
   34POPC     P 4522   3.376   2.726  10.615  0.2618  0.2634 -0.0608
   34POPC   O13 4523   3.319   2.612  10.692 -0.1006  0.3835 -0.4560
   34POPC   O14 4524   3.506   2.774  10.657 -1.1891 -0.4486  0.1083
   34POPC   O12 4525   3.271   2.851  10.617 -0.4452 -0.2410  0.0028
   34POPC   O11 4526   3.381   2.687  10.459  0.0097 -0.2832  0.0721
   34POPC    C1 4527   3.471   2.582  10.419 -0.1233 -0.9334 -0.5865
   34POPC    HA 4528   3.539   2.530  10.490 -0.1050  0.1640  0.2061
   34POPC    HB 4529   3.546   2.626  10.350  1.0462  0.4679  1.5181
   34POPC    C2 4530   3.381   2.474  10.348  0.1865 -0.6916  0.5941
   34POPC    HS 4531   3.436   2.381  10.324  0.4139 -0.2006 -0.8174
   34POPC   O21 4532   3.344   2.530  10.220  0.0413 -0.5162 -0.5548
   34POPC   C21 4533   3.429   2.522  10.124  0.1619 -0.0440 -0.2399
   34POPC   O22 4534   3.547   2.484  10.135 -0.4256  0.0027  0.1296
   34POPC   C22 4535   3.366   2.556   9.983 -0.5170  0.0407 -1.1091
   34POPC   H2R 4536   3.299   2.644   9.992  3.4814  3.1374 -0.1413
   34POPC   H2S 4537   3.293   2.474   9.964  1.2541 -1.5996 -0.9663
   34POPC    C3 4538   3.261   2.439  10.437 -0.6659 -0.3381  0.0058
   34POPC    HX 4539   3.188   2.520  10.455 -0.1445  0.7234 -2.5035
   34POPC    HY 4540   3.302   2.411  10.536  0.2604  0.1591 -0.2367
   34POPC   O31 4541   3.194   2.324  10.383 -0.3556 -0.3075 -0.4911
   34POPC   C31 4542   3.085   2.348  10.307 -0.1009  0.1483  0.0134
   34POPC   O32 4543   3.028   2.454  10.299 -0.1360  0.2666  0.3574
   34POPC   C32 4544   3.062   2.221  10.219  0.2018 -0.4494 -0.0080
   34POPC   H2X 4545   3.027   2.146  10.293  1.3827 -1.5995 -0.5970
   34POPC   H2Y 4546   3.161   2.185  10.184  1.3090  1.3391  1.1675
   34POPC   C23 4547   3.464   2.566   9.864  0.9045 -0.4387 -0.7052
   34POPC   H3R 4548   3.521   2.471   9.862  1.7025 -0.0344  1.5439
   34POPC   H3S 4549   3.531   2.652   9.885 -0.2257  0.5271 -0.9709
   34POPC   C24 4550   3.394   2.605   9.727  0.6556  0.9145  0.2329
   34POPC   H4R 4551   3.332   2.697   9.732 -1.2806 -0.3746  0.3581
   34POPC   H4S 4552   3.333   2.515   9.701 -0.6199  1.9581 -0.4735
   34POPC   C25 4553   3.482   2.632   9.608 -0.1561  0.5517  0.6674
   34POPC   H5R 4554   3.547   2.543   9.592 -1.4082 -0.5073  1.3239
   34POPC   H5S 4555   3.549   2.716   9.635 -0.8213  1.2427  0.1966
   34POPC   C26 4556   3.408   2.670   9.479 -0.4724  0.1383  0.0640
   34POPC   H6R 4557   3.351   2.759   9.511  0.9145  0.0711  2.8493
   34POPC   H6S 4558   3.330   2.593   9.460 -1.2959 -0.0503  3.8465
   34POPC   C27 4559   3.507   2.677   9.357  0.8974 -0.2704  0.2039
   34POPC   H7R 4560   3.567   2.584   9.360 -1.0375 -1.5034  3.3896
   34POPC   H7S 4561   3.574   2.765   9.369  0.2036  0.1401  1.2443
   34POPC   C28 4562   3.436   2.679   9.219 -0.1664 -0.4589 -0.1448
   34POPC   H8R 4563   3.370   2.766   9.201 -0.3389 -0.6451 -0.4258
   34POPC   H8S 4564   3.366   2.593   9.221  0.2224 -0.8179 -1.2834
   34POPC   C29 4565   3.541   2.667   9.116  0.4092  0.8184  0.3039
   34POPC   H91 4566   3.639   2.630   9.151  0.5343 -0.6194 -1.4943
   34POPC  C210 4567   3.522   2.681   8.980  0.4049  0.6307 -0.1812
   34POPC  H101 4568   3.602   2.655   8.909 -1.6589 -0.7688 -2.0579
   34POPC  C211 4569   3.386   2.709   8.923 -0.4477 -0.1317  0.4541
   34POPC  H11R 4570   3.301   2.705   8.994 -1.1768  1.8051 -0.2888
   34POPC  H11S 4571   3.360   2.638   8.842  0.4273  1.4512 -1.2654
   34POPC  C212 4572   3.374   2.847   8.856 -0.3372 -0.9905  0.0937
   34POPC  H12R 4573   3.413   2.929   8.921  1.6277 -0.1531 -2.0817
   34POPC  H12S 4574   3.265   2.867   8.856  0.0173  1.2826  2.8244
   34POPC  C213 4575   3.433   2.866   8.713  1.0250  0.3665 -0.0981
   34POPC  H13R 4576   3.541   2.840   8.713  0.4305 -2.4569  2.8071
   34POPC  H13S 4577   3.427   2.975   8.693  0.8974  0.2601 -0.6295
   34POPC  C214 4578   3.370   2.786   8.596  0.0449 -0.3690 -0.5156
   34POPC  H14R 4579   3.261   2.772   8.612 -0.0530  1.6789  0.8155
   34POPC  H14S 4580   3.430   2.693   8.596  0.1852 -0.2767  0.5277
   34POPC  C215 4581   3.392   2.853   8.462  0.2269 -0.6741  0.0620
   34POPC  H15R 4582   3.495   2.893   8.450  0.3083 -1.1515 -0.9450
   34POPC  H15S 4583   3.324   2.940   8.449 -0.7492 -1.3317  0.7250
   34POPC  C216 4584   3.367   2.751   8.345 -0.2479  0.2780 -0.2000
   34POPC  H16R 4585   3.265   2.709   8.356 -0.2200  0.0011 -0.9518
   34POPC  H16S 4586   3.444   2.671   8.337  1.0161  1.6191 -1.9259
   34POPC  C217 4587   3.364   2.820   8.205  0.3609  0.1737  0.0954
   34POPC  H17R 4588   3.467   2.832   8.167  0.1152 -0.4662 -0.7968
   34POPC  H17S 4589   3.318   2.920   8.215  0.3740  0.4024 -1.8958
   34POPC  C218 4590   3.278   2.738   8.106  0.4158 -0.6218 -0.5027
   34POPC  H18R 4591   3.269   2.789   8.007  0.8883  0.3648 -0.0498
   34POPC  H18S 4592   3.173   2.731   8.140 -0.1259  0.7828 -1.7903
   34POPC  H18T 4593   3.317   2.636   8.085 -0.9780 -1.0844 -0.9181
   34POPC   C33 4594   2.977   2.247  10.089 -0.4764  0.0003  0.3779
   34POPC   H3X 4595   2.877   2.286  10.115  0.0874  1.1514  0.8452
   34POPC   H3Y 4596   2.970   2.148  10.039 -0.2257 -0.0686  0.4766
   34POPC   C34 4597   3.053   2.348   9.989 -0.3302  0.3218 -0.6461
   34POPC   H4X 4598   3.146   2.302   9.948 -0.2412  1.3953 -1.6754
   34POPC   H4Y 4599   3.085   2.436  10.048  1.0502  0.0054 -0.8998
   34POPC   C35 4600   2.961   2.397   9.871 -0.1130 -0.1285  0.6086
   34POPC   H5X 4601   2.883   2.469   9.904  0.5015  0.5196  0.6700
   34POPC   H5Y 4602   2.915   2.307   9.825  1.3014  0.1475 -1.4127
   34POPC   C36 4603   3.056   2.461   9.764 -0.4696  0.2407  0.1962
   34POPC   H6X 4604   3.134   2.385   9.742  0.5178  1.3752 -0.2979
   34POPC   H6Y 4605   3.115   2.540   9.815  2.1882 -3.1111  2.5158
   34POPC   C37 4606   2.975   2.490   9.634  0.2200  0.0202  0.1357
   34POPC   H7X 4607   2.899   2.567   9.654  1.9300  1.9525 -0.6383
   34POPC   H7Y 4608   2.927   2.400   9.588  0.3914 -0.8480  1.6274
   34POPC   C38 4609   3.070   2.557   9.533 -0.6367 -0.0651  0.0235
   34POPC   H8X 4610   3.135   2.477   9.491 -1.0772 -0.5779  0.3112
   34POPC   H8Y 4611   3.113   2.648   9.581 -2.0819  0.3726  0.5128
   34POPC   C39 4612   2.987   2.603   9.405  0.9705  0.5853 -0.2168
   34POPC   H9X 4613   2.912   2.675   9.443  0.7237 -1.1534  2.6748
   34POPC   H9Y 4614   2.932   2.523   9.349 -0.3574  1.5918 -0.3815
   34POPC  C310 4615   3.086   2.673   9.306  0.2225  0.3358  0.2440
   34POPC  H10X 4616   3.159   2.600   9.264  0.0439  1.2196 -1.6339
   34POPC  H10Y 4617   3.160   2.727   9.369  0.7065 -0.1344  0.0846
   34POPC  C311 4618   3.020   2.764   9.206 -0.9998  0.0136  0.2897
   34POPC  H11X 4619   3.096   2.817   9.146 -0.8095 -0.7909 -0.1796
   34POPC  H11Y 4620   2.946   2.826   9.262  1.1682  1.3998  1.7026
   34POPC  C312 4621   2.940   2.677   9.108  0.8452  0.0054 -0.3608
   34POPC  H12X 4622   2.875   2.602   9.156  1.7727  0.1692  1.1752
   34POPC  H12Y 4623   3.003   2.628   9.031  0.9635  0.7095 -0.7198
   34POPC  C313 4624   2.853   2.766   9.019  0.0411 -0.3826  0.6271
   34POPC  H13X 4625   2.775   2.809   9.086 -0.4683 -1.9535  1.0520
   34POPC  H13Y 4626   2.798   2.694   8.955  1.4090 -1.3137  0.4797
   34POPC  C314 4627   2.934   2.874   8.943  0.2865  0.2382  0.9565
   34POPC  H14X 4628   3.030   2.829   8.912  0.0444  0.4117 -0.0612
   34POPC  H14Y 4629   2.959   2.948   9.022  2.0699 -0.8746  1.4466
   34POPC  C315 4630   2.867   2.945   8.826 -1.1012 -0.0621  0.2429
   34POPC  H15X 4631   2.764   2.972   8.856 -1.0130 -0.4960  0.9339
   34POPC  H15Y 4632   2.854   2.877   8.739  2.8065  1.5188 -1.6947
   34POPC  C316 4633   2.938   3.069   8.769  0.2530 -0.8323  0.6341
   34POPC  H16X 4634   3.028   3.024   8.723 -0.0813 -0.4463 -0.4131
   34POPC  H16Y 4635   2.950   3.144   8.850 -1.2131 -0.6539  0.6973
   34POPC  H16Z 4636   2.875   3.124   8.696 -0.4135 -0.5828  1.3891
   35POPC     N 4637   2.906   0.457  11.026 -0.2815  0.3037  0.5953
   35POPC   C12 4638   2.796   0.555  11.005  0.6346 -0.3702 -0.2874
   35POPC  H12A 4639   2.719   0.515  10.940  1.1268  0.7244 -1.5858
   35POPC  H12B 4640   2.830   0.638  10.944  0.1500  0.9068  1.1519
   35POPC   C13 4641   2.856   0.341  11.102  0.1282  0.5365 -0.5198
   35POPC  H13A 4642   2.926   0.259  11.104 -1.9724 -1.2599  1.1807
   35POPC  H13B 4643   2.837   0.370  11.204 -0.7851 -3.1896  0.4472
   35POPC  H13C 4644   2.759   0.311  11.064  0.0638 -3.7032  2.6450
   35POPC   C14 4645   2.961   0.395  10.899  0.2832 -0.1613  0.5522
   35POPC  H14A 4646   3.020   0.471  10.851  0.8195 -0.7272  0.3156
   35POPC  H14B 4647   3.015   0.302  10.901  0.8144  0.1745  2.0765
   35POPC  H14C 4648   2.881   0.386  10.826  0.0834 -0.5604  0.8206
   35POPC   C15 4649   3.022   0.512  11.105  0.1018  0.0155  0.2040
   35POPC  H15A 4650   3.104   0.442  11.111 -1.0808 -1.3151  1.3519
   35POPC  H15B 4651   2.990   0.530  11.207  0.8462 -1.6212  0.7434
   35POPC  H15C 4652   3.062   0.604  11.065 -2.0923  0.8158 -0.1942
   35POPC   C11 4653   2.718   0.626  11.119  0.0961 -0.7119 -0.2361
   35POPC  H11A 4654   2.624   0.672  11.081 -0.6915 -2.3126 -0.2836
   35POPC  H11B 4655   2.770   0.710  11.170 -2.9392  0.7562  0.5898
   35POPC     P 4656   2.536   0.490  11.256  0.4879  0.1896  0.0519
   35POPC   O13 4657   2.532   0.472  11.406  0.4971  0.4003  0.2935
   35POPC   O14 4658   2.496   0.377  11.165  0.6490  0.0219 -0.1292
   35POPC   O12 4659   2.682   0.536  11.222  0.0172  0.1420  0.1250
   35POPC   O11 4660   2.452   0.619  11.217 -0.1583 -0.0673  0.1679
   35POPC    C1 4661   2.313   0.622  11.177  0.2202  0.3323  0.2748
   35POPC    HA 4662   2.269   0.721  11.201 -1.3270 -0.7776  2.1829
   35POPC    HB 4663   2.251   0.545  11.228  1.4577  0.0361  1.3573
   35POPC    C2 4664   2.300   0.589  11.023  0.1845  0.5716 -0.1323
   35POPC    HS 4665   2.333   0.485  10.999 -2.0468 -0.0488 -0.6464
   35POPC   O21 4666   2.369   0.684  10.941 -0.1432 -0.2701  0.4428
   35POPC   C21 4667   2.477   0.642  10.865 -0.1505 -0.4969  0.3361
   35POPC   O22 4668   2.516   0.529  10.857 -0.2661 -0.6923 -0.1584
   35POPC   C22 4669   2.545   0.757  10.797 -0.3054  0.6797  0.3579
   35POPC   H2R 4670   2.580   0.826  10.876  1.1219 -0.1366  0.4664
   35POPC   H2S 4671   2.468   0.806  10.733 -1.5195 -0.1212  1.1838
   35POPC    C3 4672   2.155   0.595  10.965  0.4419 -0.1825 -1.2774
   35POPC    HX 4673   2.112   0.697  10.963 -2.0148 -1.1576 -0.5485
   35POPC    HY 4674   2.101   0.538  11.045  3.0824  1.7628  2.0256
   35POPC   O31 4675   2.127   0.534  10.841 -0.6692 -0.3576  0.3769
   35POPC   C31 4676   2.139   0.592  10.728  0.1583  1.1633 -0.0597
   35POPC   O32 4677   2.159   0.708  10.706 -0.0175 -0.2728 -0.2316
   35POPC   C32 4678   2.145   0.486  10.615  0.4026  0.1478 -0.0760
   35POPC   H2X 4679   2.122   0.388  10.663  0.5894 -0.3118 -0.9240
   35POPC   H2Y 4680   2.249   0.482  10.577 -0.9603  2.2363 -4.3933
   35POPC   C23 4681   2.662   0.718  10.698  0.3211 -0.3514 -0.4509
   35POPC   H3R 4682   2.727   0.632  10.723  0.6111 -0.0488 -0.1585
   35POPC   H3S 4683   2.720   0.813  10.694 -1.3661  0.8163  1.5920
   35POPC   C24 4684   2.622   0.713  10.553 -0.4285  0.0612  0.0621
   35POPC   H4R 4685   2.716   0.713  10.494 -0.0248 -1.1565  0.7028
   35POPC   H4S 4686   2.571   0.810  10.531  1.2646  1.2338  1.2070
   35POPC   C25 4687   2.524   0.601  10.526  0.1132  1.2017 -0.6360
   35POPC   H5R 4688   2.432   0.616  10.587  0.2307 -1.9685  0.4127
   35POPC   H5S 4689   2.560   0.503  10.562 -2.8474 -0.3906 -1.8223
   35POPC   C26 4690   2.482   0.595  10.379 -0.5853 -0.6845 -0.0091
   35POPC   H6R 4691   2.429   0.498  10.378  0.6617 -1.3761 -0.2691
   35POPC   H6S 4692   2.562   0.591  10.302  0.9403 -0.2737  1.5064
   35POPC   C27 4693   2.387   0.702  10.341 -0.3116 -0.0543  0.2126
   35POPC   H7R 4694   2.441   0.793  10.374 -0.4930 -0.2753  1.1440
   35POPC   H7S 4695   2.295   0.691  10.403  0.3528  4.0368  2.1246
   35POPC   C28 4696   2.341   0.718  10.198  0.3991 -0.2795  0.2683
   35POPC   H8R 4697   2.430   0.760  10.147  0.6565 -0.8165  0.2697
   35POPC   H8S 4698   2.253   0.785  10.193  1.1040  0.8418  2.3605
   35POPC   C29 4699   2.309   0.584  10.142  0.1777 -0.4835  0.4040
   35POPC   H91 4700   2.231   0.530  10.197 -0.3685  0.9988  1.0867
   35POPC  C210 4701   2.378   0.517  10.044 -0.0606 -0.2873 -0.7670
   35POPC  H101 4702   2.343   0.418  10.012 -0.6235 -0.3001 -0.1192
   35POPC  C211 4703   2.508   0.557   9.972 -0.1014  0.1551 -0.2869
   35POPC  H11R 4704   2.575   0.471   9.950  0.8759  0.9402 -0.4019
   35POPC  H11S 4705   2.571   0.630  10.026 -0.9425  0.1163  0.7565
   35POPC  C212 4706   2.482   0.617   9.827 -0.3307 -0.7924 -1.3492
   35POPC  H12R 4707   2.563   0.688   9.801 -0.3698  0.6411  2.1899
   35POPC  H12S 4708   2.389   0.678   9.827  1.2517  1.7211  0.9030
   35POPC  C213 4709   2.467   0.505   9.727 -0.1494  0.6255 -0.2629
   35POPC  H13R 4710   2.367   0.458   9.741  0.0110 -0.0233 -1.2355
   35POPC  H13S 4711   2.551   0.432   9.728 -0.4636  0.2638 -0.1971
   35POPC  C214 4712   2.458   0.563   9.584  0.4884 -0.0502 -0.3815
   35POPC  H14R 4713   2.556   0.615   9.577  0.2378  0.5435  0.4529
   35POPC  H14S 4714   2.369   0.629   9.572  0.4583 -0.0943 -0.3991
   35POPC  C215 4715   2.458   0.466   9.463  1.5567  0.2270 -0.4819
   35POPC  H15R 4716   2.369   0.399   9.462  1.8592 -0.1914  0.3737
   35POPC  H15S 4717   2.550   0.408   9.486  0.9192 -0.0879  1.3949
   35POPC  C216 4718   2.477   0.531   9.323 -0.4260 -0.6034  0.0720
   35POPC  H16R 4719   2.560   0.604   9.335  0.2884 -1.0751 -1.7106
   35POPC  H16S 4720   2.396   0.602   9.298  0.5661  0.2855 -0.6740
   35POPC  C217 4721   2.494   0.438   9.208 -0.5985  0.1546  0.0557
   35POPC  H17R 4722   2.436   0.344   9.221  1.0277 -0.5372  2.6860
   35POPC  H17S 4723   2.600   0.415   9.185 -0.6882  2.2875 -2.8187
   35POPC  C218 4724   2.439   0.485   9.070 -0.0154  0.2503 -0.7640
   35POPC  H18R 4725   2.329   0.499   9.073  0.0032  0.7601 -2.0349
   35POPC  H18S 4726   2.447   0.400   8.998 -1.5875 -0.7968  0.2745
   35POPC  H18T 4727   2.482   0.581   9.034  0.7274  0.2040 -0.0242
   35POPC   C33 4728   2.045   0.525  10.500 -0.0694  0.0645 -0.3605
   35POPC   H3X 4729   2.084   0.619  10.455 -1.2062 -0.0544 -1.6288
   35POPC   H3Y 4730   1.948   0.566  10.534 -0.6263  0.7354 -2.6663
   35POPC   C34 4731   2.033   0.415  10.390 -0.1310 -0.2573 -0.5825
   35POPC   H4X 4732   2.130   0.411  10.337 -0.2836 -1.1474 -0.8023
   35POPC   H4Y 4733   1.964   0.457  10.313  0.6297  0.6984 -0.7595
   35POPC   C35 4734   1.980   0.285  10.433 -0.6225 -0.4757 -0.1176
   35POPC   H5X 4735   1.876   0.290  10.471 -0.7031  2.0842 -0.5468
   35POPC   H5Y 4736   2.038   0.258  10.524 -0.5057 -0.8831 -0.3119
   35POPC   C36 4737   2.004   0.178  10.323  0.3755 -0.6125  0.1059
   35POPC   H6X 4738   1.977   0.086  10.379 -0.8927 -0.2728  0.0801
   35POPC   H6Y 4739   2.114   0.174  10.310  0.7305  3.1238  1.4391
   35POPC   C37 4740   1.915   0.192  10.201  0.2520  0.2044 -0.1173
   35POPC   H7X 4741   1.864   0.291  10.197  0.1637  0.0662 -4.4229
   35POPC   H7Y 4742   1.833   0.117  10.207 -0.9898  1.7008  3.1159
   35POPC   C38 4743   1.997   0.181  10.066  0.3892  0.0139  0.0137
   35POPC   H8X 4744   2.016   0.073  10.049 -1.2938 -0.5259  1.4229
   35POPC   H8Y 4745   2.084   0.247  10.086  0.1563  0.1845  0.4638
   35POPC   C39 4746   1.924   0.244   9.945  0.8735 -0.2612  0.5473
   35POPC   H9X 4747   1.899   0.351   9.962  2.2354  0.0462  0.6671
   35POPC   H9Y 4748   1.831   0.186   9.931 -0.0110  1.4816 -0.9025
   35POPC  C310 4749   2.019   0.235   9.828 -0.0724  0.4615  0.6397
   35POPC  H10X 4750   2.072   0.138   9.824 -0.0460  0.5329 -3.5483
   35POPC  H10Y 4751   2.102   0.308   9.845 -1.0134  1.4371  1.0883
   35POPC  C311 4752   1.941   0.268   9.693  0.3082 -0.3589 -0.5144
   35POPC  H11X 4753   1.896   0.368   9.710  1.3191 -0.0966  0.7143
   35POPC  H11Y 4754   1.868   0.186   9.680 -0.3031 -0.3826  2.6997
   35POPC  C312 4755   2.042   0.267   9.587 -0.2756 -0.5411 -0.0700
   35POPC  H12X 4756   2.074   0.163   9.565 -0.7266 -0.9854  1.3312
   35POPC  H12Y 4757   2.128   0.330   9.620 -1.5426  0.8456  0.6408
   35POPC  C313 4758   1.993   0.315   9.450 -0.0978  0.0302 -0.6100
   35POPC  H13X 4759   1.984   0.426   9.449  3.4282  0.3749 -0.1482
   35POPC  H13Y 4760   1.889   0.279   9.433  0.5075 -1.6801 -0.7991
   35POPC  C314 4761   2.083   0.271   9.324  0.3735  0.9361 -0.5496
   35POPC  H14X 4762   2.059   0.163   9.311 -0.3413  1.2367 -1.8703
   35POPC  H14Y 4763   2.188   0.289   9.356 -0.2218  2.7662  0.4323
   35POPC  C315 4764   2.056   0.358   9.202  0.0865  0.0511  0.1080
   35POPC  H15X 4765   2.128   0.337   9.120 -0.9998  0.5812 -0.9949
   35POPC  H15Y 4766   2.077   0.459   9.242 -1.4581  1.2367 -2.0008
   35POPC  C316 4767   1.910   0.350   9.152 -0.2385  0.6691  0.1393
   35POPC  H16X 4768   1.898   0.393   9.050 -1.1958  1.3728  0.5468
   35POPC  H16Y 4769   1.849   0.394   9.234 -0.4217 -0.5125  0.6384
   35POPC  H16Z 4770   1.881   0.245   9.130  2.3880 -0.4142  1.5980
   36POPC     N 4771   2.490   6.510  10.951  0.1265 -0.0878  0.3062
   36POPC   C12 4772   2.351   6.456  10.937  0.1090  0.0371  0.6858
   36POPC  H12A 4773   2.292   6.540  10.905 -0.0962  0.5190  2.2964
   36POPC  H12B 4774   2.321   6.418  11.033 -0.4048 -0.7579  0.2194
   36POPC   C13 4775   2.598   6.415  10.968 -0.7704  0.1501  0.2201
   36POPC  H13A 4776   2.593   6.345  11.049  1.0912 -1.5200 -1.0519
   36POPC  H13B 4777   2.613   6.363  10.874 -0.8640 -0.7398  0.6916
   36POPC  H13C 4778   2.685   6.473  10.995 -2.4320  2.0905  1.4681
   36POPC   C14 4779   2.530   6.590  10.827  0.9838 -0.2245 -0.0092
   36POPC  H14A 4780   2.525   6.534  10.735  2.3582 -2.7404  1.4119
   36POPC  H14B 4781   2.468   6.677  10.806  2.3320  0.6279 -0.5438
   36POPC  H14C 4782   2.626   6.637  10.845 -0.4495  2.3347  1.2497
   36POPC   C15 4783   2.498   6.601  11.078 -0.7776 -0.0239 -0.0511
   36POPC  H15A 4784   2.423   6.679  11.080  1.7898  2.5640 -0.8318
   36POPC  H15B 4785   2.590   6.656  11.082 -1.6720  1.4015  1.6427
   36POPC  H15C 4786   2.490   6.537  11.164  0.4542 -0.7555 -0.4690
   36POPC   C11 4787   2.330   6.353  10.825 -0.0905  0.0580  0.1483
   36POPC  H11A 4788   2.379   6.401  10.737 -1.1669 -0.7816 -0.9340
   36POPC  H11B 4789   2.221   6.351  10.801 -0.1623 -0.5833  0.5338
   36POPC     P 4790   2.289   6.116  10.922 -0.3231 -0.1046  0.1493
   36POPC   O13 4791   2.182   6.191  10.996 -0.2193 -0.2068 -0.9988
   36POPC   O14 4792   2.372   6.026  11.001 -0.1068  0.5859 -0.0734
   36POPC   O12 4793   2.384   6.225  10.853 -0.4142  0.3571  1.0093
   36POPC   O11 4794   2.219   6.035  10.799  0.0334  0.4866  0.2455
   36POPC    C1 4795   2.289   6.007  10.682 -0.0229  0.1148  0.5935
   36POPC    HA 4796   2.324   5.902  10.674  1.8054  0.7415 -0.0548
   36POPC    HB 4797   2.375   6.075  10.662  1.6358 -2.0228  0.2221
   36POPC    C2 4798   2.203   6.034  10.554 -0.5306 -0.1634  0.3343
   36POPC    HS 4799   2.112   5.970  10.559  0.5153 -1.5505  1.9748
   36POPC   O21 4800   2.280   6.017  10.434  0.3597 -0.3195 -0.1688
   36POPC   C21 4801   2.319   5.895  10.408  0.6318  0.1623  0.5678
   36POPC   O22 4802   2.279   5.794  10.465  0.1909  0.1320 -0.7217
   36POPC   C22 4803   2.414   5.893  10.294 -0.0732  0.2556  0.1894
   36POPC   H2R 4804   2.474   5.986  10.294  0.0893  0.1684 -0.9915
   36POPC   H2S 4805   2.356   5.867  10.202  1.2917 -0.0353 -0.6171
   36POPC    C3 4806   2.147   6.174  10.550 -0.4186  0.4821 -0.1337
   36POPC    HX 4807   2.236   6.239  10.555  0.1785 -0.2543 -1.0348
   36POPC    HY 4808   2.093   6.201  10.644 -1.4041 -0.5438 -0.4011
   36POPC   O31 4809   2.077   6.213  10.427  0.3763 -0.0800  0.8357
   36POPC   C31 4810   1.947   6.179  10.439  0.8240 -0.5580 -0.0602
   36POPC   O32 4811   1.900   6.112  10.530  0.0931 -0.1697 -0.3019
   36POPC   C32 4812   1.857   6.247  10.338  0.2110  0.5475 -0.0858
   36POPC   H2X 4813   1.828   6.348  10.375  2.0025  1.1854 -0.3342
   36POPC   H2Y 4814   1.766   6.185  10.342  0.9555 -0.6501 -1.2369
   36POPC   C23 4815   2.517   5.779  10.313 -0.0031 -0.2281 -0.0455
   36POPC   H3R 4816   2.455   5.691  10.339 -1.4530  0.9399  0.4741
   36POPC   H3S 4817   2.588   5.788  10.398  0.8066 -0.0795 -0.7308
   36POPC   C24 4818   2.589   5.743  10.183  0.0623  0.3135 -0.2846
   36POPC   H4R 4819   2.666   5.665  10.202 -1.1556 -0.5598  1.1217
   36POPC   H4S 4820   2.645   5.832  10.145 -0.3559  0.8588  0.3537
   36POPC   C25 4821   2.497   5.699  10.068 -0.2520  0.7627 -0.3702
   36POPC   H5R 4822   2.446   5.792  10.033 -1.7607  0.2616  0.4808
   36POPC   H5S 4823   2.420   5.623  10.090 -2.5275  2.8134 -1.0184
   36POPC   C26 4824   2.581   5.651   9.943 -0.0109  0.4157  0.0218
   36POPC   H6R 4825   2.625   5.553   9.973 -0.9983 -1.1355 -3.3861
   36POPC   H6S 4826   2.653   5.733   9.920 -0.4130  0.7676  0.0194
   36POPC   C27 4827   2.499   5.620   9.824 -0.2660  0.5034  0.3097
   36POPC   H7R 4828   2.409   5.560   9.852  1.2885 -0.5020  3.4676
   36POPC   H7S 4829   2.556   5.555   9.754 -1.5196 -1.3363  0.9552
   36POPC   C28 4830   2.466   5.747   9.749  0.3356 -0.3145 -0.8410
   36POPC   H8R 4831   2.562   5.797   9.723  0.6615  0.1033  1.0818
   36POPC   H8S 4832   2.412   5.819   9.814 -1.4994 -0.3226 -2.2995
   36POPC   C29 4833   2.381   5.718   9.629  0.4686  0.1940  0.2805
   36POPC   H91 4834   2.275   5.698   9.649  0.8155 -3.0261 -0.8490
   36POPC  C210 4835   2.419   5.693   9.505 -0.5546 -0.1345  0.2121
   36POPC  H101 4836   2.344   5.688   9.424  0.4177 -1.2564 -0.6512
   36POPC  C211 4837   2.558   5.694   9.449  0.3195  0.6840 -0.4526
   36POPC  H11R 4838   2.579   5.619   9.371 -1.6148 -3.5481  2.9015
   36POPC  H11S 4839   2.631   5.669   9.529 -0.1500  1.8318  0.3509
   36POPC  C212 4840   2.608   5.823   9.396  0.1598 -0.0393  0.0476
   36POPC  H12R 4841   2.712   5.802   9.362 -0.0538 -2.1448  0.5988
   36POPC  H12S 4842   2.611   5.908   9.468 -0.5512  0.9230 -1.0451
   36POPC  C213 4843   2.545   5.872   9.259  0.5026 -1.1466  0.0382
   36POPC  H13R 4844   2.576   5.978   9.249  1.6626 -1.2407  2.3009
   36POPC  H13S 4845   2.435   5.854   9.259  0.4686 -1.0060 -1.2599
   36POPC  C214 4846   2.604   5.808   9.132 -0.1036  0.9259  0.8456
   36POPC  H14R 4847   2.552   5.712   9.111 -1.5541  2.0215 -0.6784
   36POPC  H14S 4848   2.713   5.793   9.144 -0.4010 -1.2304  1.0781
   36POPC  C215 4849   2.585   5.899   9.006 -0.2132 -0.9200 -0.2347
   36POPC  H15R 4850   2.656   5.984   9.004  1.4177 -2.2594  0.3166
   36POPC  H15S 4851   2.481   5.937   9.016 -0.1275 -0.7903  0.1799
   36POPC  C216 4852   2.589   5.802   8.884  0.2088  0.2560 -0.2036
   36POPC  H16R 4853   2.506   5.732   8.908  0.9598  0.5054  3.5948
   36POPC  H16S 4854   2.691   5.759   8.870  0.0924  0.1896 -0.8587
   36POPC  C217 4855   2.548   5.878   8.763  0.5266 -0.0581 -0.7944
   36POPC  H17R 4856   2.642   5.926   8.728  0.6866  0.5542  0.4289
   36POPC  H17S 4857   2.476   5.958   8.792 -1.1136 -1.2057 -1.6102
   36POPC  C218 4858   2.484   5.789   8.661  0.3607  0.6026  0.3484
   36POPC  H18R 4859   2.408   5.727   8.713  0.6925  2.3523  3.0348
   36POPC  H18S 4860   2.562   5.719   8.626 -0.5360  0.4453 -1.3742
   36POPC  H18T 4861   2.418   5.835   8.585 -1.4522  1.4415  2.3476
   36POPC   C33 4862   1.925   6.252  10.192  0.4086  0.2180  0.0276
   36POPC   H3X 4863   1.973   6.152  10.180  1.2296  0.7745 -1.4367
   36POPC   H3Y 4864   2.017   6.312  10.202  2.0071 -2.0247 -0.7805
   36POPC   C34 4865   1.833   6.270  10.071 -0.3341 -0.1531 -0.4352
   36POPC   H4X 4866   1.761   6.353  10.086  0.7817  0.6070  0.9175
   36POPC   H4Y 4867   1.763   6.184  10.080 -0.8369  0.1434 -1.5313
   36POPC   C35 4868   1.907   6.268   9.938  0.8254  0.0689  0.2836
   36POPC   H5X 4869   1.978   6.182   9.933  0.5570 -0.2556  1.8980
   36POPC   H5Y 4870   1.970   6.358   9.947  0.9143 -0.1177  1.6007
   36POPC   C36 4871   1.803   6.275   9.821  0.1187  0.0979  0.9246
   36POPC   H6X 4872   1.750   6.371   9.835 -0.4418  0.4509 -3.0041
   36POPC   H6Y 4873   1.730   6.191   9.826  0.3401 -0.1181  0.5384
   36POPC   C37 4874   1.868   6.264   9.681  0.7253  0.2819  0.6796
   36POPC   H7X 4875   1.912   6.162   9.677  1.3653  0.4464  2.8206
   36POPC   H7Y 4876   1.955   6.333   9.674 -0.8890  2.1749 -1.1115
   36POPC   C38 4877   1.775   6.302   9.567  0.0458 -0.2611 -0.2286
   36POPC   H8X 4878   1.743   6.403   9.600 -1.7075 -1.0804  0.6705
   36POPC   H8Y 4879   1.684   6.238   9.572  0.0044 -0.0409  2.5020
   36POPC   C39 4880   1.837   6.301   9.423 -0.1320  0.6689 -0.3495
   36POPC   H9X 4881   1.897   6.208   9.417 -1.9498 -0.4905 -0.8259
   36POPC   H9Y 4882   1.903   6.388   9.401  0.2718  0.5414  0.3317
   36POPC  C310 4883   1.731   6.301   9.308  0.2577  0.0441 -0.0979
   36POPC  H10X 4884   1.689   6.404   9.307  0.9386  0.3210 -1.5844
   36POPC  H10Y 4885   1.657   6.227   9.344  0.2129  0.0846 -0.1061
   36POPC  C311 4886   1.788   6.261   9.176 -0.4062  0.2232 -0.1321
   36POPC  H11X 4887   1.838   6.162   9.181  1.0781  0.9729 -0.0846
   36POPC  H11Y 4888   1.858   6.339   9.141 -0.1435  1.2138  2.4807
   36POPC  C312 4889   1.679   6.255   9.070  0.2709  0.8571  0.1889
   36POPC  H12X 4890   1.598   6.181   9.085 -1.5489  2.9845  1.0832
   36POPC  H12Y 4891   1.736   6.231   8.977  0.0905  1.5339 -0.0992
   36POPC  C313 4892   1.626   6.396   9.031 -0.1666  0.5940 -0.5534
   36POPC  H13X 4893   1.718   6.441   8.987  1.0203  0.6634  1.9445
   36POPC  H13Y 4894   1.602   6.460   9.119  0.8655  2.3854 -1.5387
   36POPC  C314 4895   1.496   6.400   8.943  0.4182 -0.1641 -0.8713
   36POPC  H14X 4896   1.421   6.329   8.984  1.5266 -0.0698  1.3897
   36POPC  H14Y 4897   1.523   6.354   8.846  0.0842 -0.4353 -0.8371
   36POPC  C315 4898   1.444   6.542   8.919  0.0667 -0.4941 -0.0424
   36POPC  H15X 4899   1.514   6.619   8.880  0.5937 -0.7632  0.3662
   36POPC  H15Y 4900   1.411   6.579   9.018  1.7880 -0.8175  0.6815
   36POPC  C316 4901   1.322   6.551   8.822 -0.5112  0.8534 -0.2258
   36POPC  H16X 4902   1.276   6.652   8.818 -1.5275  0.4468  0.7438
   36POPC  H16Y 4903   1.240   6.482   8.854  2.3498 -1.3866  2.6063
   36POPC  H16Z 4904   1.354   6.520   8.720  1.5831 -0.1390  0.7016
   37POPC     N 4905   1.597   1.541   6.261  0.1260 -0.5406 -0.8054
   37POPC   C12 4906   1.688   1.661   6.291  0.1424  0.6267 -0.4389
   37POPC  H12A 4907   1.769   1.647   6.221 -0.3944  0.8527 -1.1199
   37POPC  H12B 4908   1.731   1.647   6.388  2.9632 -0.6578 -1.8226
   37POPC   C13 4909   1.566   1.529   6.115  0.8497  0.2886 -0.4672
   37POPC  H13A 4910   1.494   1.608   6.098 -1.8599 -1.6195  1.6080
   37POPC  H13B 4911   1.655   1.546   6.057  1.2843  1.4371  0.5145
   37POPC  H13C 4912   1.513   1.439   6.087 -0.3179  0.4340  1.1776
   37POPC   C14 4913   1.678   1.419   6.305 -0.0285  0.1346  0.4283
   37POPC  H14A 4914   1.693   1.404   6.411 -2.2672  1.2381  0.9130
   37POPC  H14B 4915   1.626   1.332   6.269  0.1731  0.8589 -1.6762
   37POPC  H14C 4916   1.767   1.407   6.244 -0.0871 -0.6306  0.4813
   37POPC   C15 4917   1.466   1.542   6.341 -0.1879 -0.1214 -0.4367
   37POPC  H15A 4918   1.404   1.629   6.331  0.3348  0.2852 -0.2074
   37POPC  H15B 4919   1.497   1.531   6.444  2.7953 -2.5088 -1.5083
   37POPC  H15C 4920   1.407   1.456   6.315 -1.4239  0.1703  1.3583
   37POPC   C11 4921   1.640   1.808   6.286  0.6138  0.0977 -0.7094
   37POPC  H11A 4922   1.573   1.816   6.198  0.5878  1.4104 -0.5771
   37POPC  H11B 4923   1.716   1.885   6.264  0.9254  0.2209  0.7810
   37POPC     P 4924   1.663   1.897   6.542  0.0595 -0.0073 -0.3520
   37POPC   O13 4925   1.591   2.016   6.592 -0.3059 -0.3592  0.4061
   37POPC   O14 4926   1.804   1.913   6.498  0.0929  0.1040  1.1044
   37POPC   O12 4927   1.580   1.835   6.417  0.3637 -0.0213  0.3979
   37POPC   O11 4928   1.663   1.777   6.641 -0.6324 -0.0078 -0.5699
   37POPC    C1 4929   1.534   1.735   6.681  0.4397  0.6924  0.3096
   37POPC    HA 4930   1.549   1.626   6.694 -2.7673  0.4535  2.4811
   37POPC    HB 4931   1.457   1.744   6.602  0.4432  0.8489  0.3226
   37POPC    C2 4932   1.477   1.815   6.803 -0.0333  0.4788  0.1647
   37POPC    HS 4933   1.468   1.924   6.786  0.4736  0.2361 -1.8867
   37POPC   O21 4934   1.563   1.794   6.914 -0.0683  0.2522 -0.7168
   37POPC   C21 4935   1.545   1.862   7.031  0.0970  0.0678 -0.0562
   37POPC   O22 4936   1.468   1.956   7.043 -0.1645 -0.5598  0.2509
   37POPC   C22 4937   1.649   1.821   7.130 -0.6446 -0.1494  0.0393
   37POPC   H2R 4938   1.732   1.776   7.071 -0.1274  0.1394  0.5469
   37POPC   H2S 4939   1.611   1.736   7.190  0.6012 -0.0904  0.9262
   37POPC    C3 4940   1.329   1.779   6.826 -0.2574 -0.5298  0.8048
   37POPC    HX 4941   1.281   1.781   6.726  1.1819  0.7931  0.1114
   37POPC    HY 4942   1.285   1.854   6.895  2.3250  0.4832  1.4336
   37POPC   O31 4943   1.303   1.641   6.872  0.0216 -0.3580 -0.3146
   37POPC   C31 4944   1.184   1.624   6.919  0.9938 -0.5781 -0.1785
   37POPC   O32 4945   1.105   1.715   6.952 -0.6475  0.7328  0.1933
   37POPC   C32 4946   1.157   1.473   6.933  0.4475  0.0130  0.8060
   37POPC   H2X 4947   1.245   1.407   6.945 -1.2154 -2.5988 -0.9602
   37POPC   H2Y 4948   1.118   1.457   6.830  2.3361  1.9766 -0.2708
   37POPC   C23 4949   1.701   1.934   7.224  0.4901  0.6412  0.5514
   37POPC   H3R 4950   1.704   2.029   7.167 -1.8350  0.7673  0.5770
   37POPC   H3S 4951   1.797   1.895   7.262 -0.6179 -1.4991  1.2682
   37POPC   C24 4952   1.609   1.943   7.350 -0.4634  0.3981  0.0380
   37POPC   H4R 4953   1.502   1.955   7.322 -0.3837  1.0450  0.0000
   37POPC   H4S 4954   1.641   2.027   7.415  3.8686  0.7722 -2.3477
   37POPC   C25 4955   1.637   1.831   7.452 -0.8052 -0.1283  0.1654
   37POPC   H5R 4956   1.745   1.807   7.454 -0.0670  3.0590  2.3399
   37POPC   H5S 4957   1.600   1.733   7.417  2.4733 -1.8448  1.2978
   37POPC   C26 4958   1.588   1.852   7.601 -0.4102 -0.0544 -0.3449
   37POPC   H6R 4959   1.477   1.862   7.599 -0.5895 -1.0402  2.2774
   37POPC   H6S 4960   1.632   1.945   7.644 -1.2249  0.4604 -0.6127
   37POPC   C27 4961   1.625   1.726   7.682 -0.1369  0.5373 -0.2162
   37POPC   H7R 4962   1.733   1.713   7.701 -0.1851  0.6325  0.1232
   37POPC   H7S 4963   1.590   1.638   7.624  0.4108 -1.0371  1.7942
   37POPC   C28 4964   1.543   1.723   7.818 -0.2149  0.5257  0.0737
   37POPC   H8R 4965   1.546   1.620   7.859 -4.5985  0.6332  0.8266
   37POPC   H8S 4966   1.440   1.753   7.788  0.7916  0.4632 -3.8156
   37POPC   C29 4967   1.583   1.815   7.932 -0.0279  0.0341 -0.1861
   37POPC   H91 4968   1.628   1.911   7.903 -0.4324  0.0599 -0.7387
   37POPC  C210 4969   1.562   1.790   8.060  0.7613  0.0672  0.8975
   37POPC  H101 4970   1.597   1.862   8.136 -0.6829  1.1407  0.5709
   37POPC  C211 4971   1.489   1.676   8.121  0.1866 -0.0102  0.1301
   37POPC  H11R 4972   1.539   1.579   8.099 -1.2987 -0.7901  0.1629
   37POPC  H11S 4973   1.392   1.675   8.068 -1.3199 -1.1079  2.7994
   37POPC  C212 4974   1.465   1.683   8.269  0.4083 -0.9805 -0.6116
   37POPC  H12R 4975   1.426   1.785   8.291  1.3501 -1.1217  1.7970
   37POPC  H12S 4976   1.560   1.675   8.326  0.0881  0.4283  0.1264
   37POPC  C213 4977   1.369   1.569   8.298 -0.0267 -0.0055 -0.7355
   37POPC  H13R 4978   1.277   1.564   8.236  0.3596 -2.0351 -1.1770
   37POPC  H13S 4979   1.341   1.577   8.405  0.4639  0.3152 -0.6276
   37POPC  C214 4980   1.436   1.436   8.284 -0.2073 -0.5597  0.5043
   37POPC  H14R 4981   1.538   1.443   8.329 -0.0903  0.1333  0.1294
   37POPC  H14S 4982   1.458   1.408   8.179 -1.0379  0.6719 -0.0133
   37POPC  C215 4983   1.363   1.320   8.353  0.1956  0.2170  0.0133
   37POPC  H15R 4984   1.255   1.327   8.327  0.2036 -0.8252 -0.3038
   37POPC  H15S 4985   1.357   1.333   8.463  1.8402 -1.3239  0.3076
   37POPC  C216 4986   1.422   1.186   8.315  0.4831 -0.1715 -0.3863
   37POPC  H16R 4987   1.414   1.166   8.206 -1.3739  1.4518 -0.5952
   37POPC  H16S 4988   1.364   1.103   8.360 -0.1803  0.8416  0.6845
   37POPC  C217 4989   1.568   1.171   8.344 -0.6238  0.2290  0.6828
   37POPC  H17R 4990   1.623   1.265   8.321 -2.1576  1.4259  1.7968
   37POPC  H17S 4991   1.608   1.089   8.281 -0.0006  0.6952  0.4693
   37POPC  C218 4992   1.591   1.138   8.493 -0.4427 -0.1581 -0.7888
   37POPC  H18R 4993   1.500   1.107   8.548 -0.8646  0.9953 -0.8461
   37POPC  H18S 4994   1.615   1.237   8.536  1.2279 -0.0360 -1.9175
   37POPC  H18T 4995   1.670   1.060   8.505  0.1712  0.2501 -2.1068
   37POPC   C33 4996   1.063   1.424   7.041 -0.2248  0.6913  0.7703
   37POPC   H3X 4997   1.029   1.323   7.010  2.0025  0.7194 -2.0566
   37POPC   H3Y 4998   0.973   1.487   7.055  1.4132  2.8385  2.0358
   37POPC   C34 4999   1.131   1.422   7.174 -0.2394 -0.1720 -0.3008
   37POPC   H4X 5000   1.239   1.449   7.163 -0.1721  0.0839  0.9810
   37POPC   H4Y 5001   1.130   1.320   7.217  0.0737  1.0397  2.6462
   37POPC   C35 5002   1.065   1.520   7.274  0.2309  0.3823  0.2963
   37POPC   H5X 5003   0.965   1.485   7.308 -0.9190  1.8589 -1.4949
   37POPC   H5Y 5004   1.050   1.613   7.217 -0.4871  0.2546  0.2748
   37POPC   C36 5005   1.151   1.543   7.406  0.2865 -0.3613 -0.1356
   37POPC   H6X 5006   1.254   1.575   7.378 -0.2009  1.4772  0.0927
   37POPC   H6Y 5007   1.150   1.453   7.471  1.2225 -0.1361  0.2081
   37POPC   C37 5008   1.100   1.653   7.508 -0.1958 -0.0942 -0.4123
   37POPC   H7X 5009   0.999   1.626   7.547 -0.7873  2.2011 -0.2415
   37POPC   H7Y 5010   1.073   1.740   7.444 -0.3479  0.8843  0.9548
   37POPC   C38 5011   1.195   1.696   7.618  0.2273 -0.2193 -0.4421
   37POPC   H8X 5012   1.186   1.803   7.646 -0.1373 -0.5063  0.5762
   37POPC   H8Y 5013   1.297   1.678   7.577  0.2102  0.5749 -0.8309
   37POPC   C39 5014   1.177   1.618   7.750 -0.1435 -0.6916  0.1177
   37POPC   H9X 5015   1.278   1.605   7.795 -0.5771  1.5455  1.7936
   37POPC   H9Y 5016   1.137   1.518   7.721 -3.2829  0.7232 -0.6786
   37POPC  C310 5017   1.092   1.693   7.854 -0.0079  0.0957 -0.0270
   37POPC  H10X 5018   1.003   1.708   7.789  0.4075 -0.1646 -0.6563
   37POPC  H10Y 5019   1.143   1.790   7.873 -1.8179  1.4435 -1.7956
   37POPC  C311 5020   1.062   1.628   7.990 -0.4360  0.6361 -0.5925
   37POPC  H11X 5021   0.978   1.685   8.035 -2.2027 -3.1648  1.2109
   37POPC  H11Y 5022   1.147   1.621   8.062  0.3442 -2.5444 -1.7205
   37POPC  C312 5023   1.022   1.481   7.978  0.2561 -0.2034 -0.0832
   37POPC  H12X 5024   1.097   1.424   7.920 -0.0900 -0.0961 -0.6308
   37POPC  H12Y 5025   0.932   1.465   7.915 -1.0238 -0.3881  1.7290
   37POPC  C313 5026   0.979   1.412   8.110  0.0522 -0.2389 -0.0002
   37POPC  H13X 5027   0.898   1.478   8.149  1.1735  0.6419  0.8979
   37POPC  H13Y 5028   1.066   1.406   8.179  0.2813  1.2460 -0.1465
   37POPC  C314 5029   0.905   1.280   8.101  0.2242  0.4336  0.4121
   37POPC  H14X 5030   0.972   1.197   8.071  0.3271 -0.0993  2.0561
   37POPC  H14Y 5031   0.836   1.281   8.015  1.0909 -0.8723 -0.3032
   37POPC  C315 5032   0.813   1.238   8.215 -0.2066 -0.3802  0.0445
   37POPC  H15X 5033   0.783   1.132   8.202  1.8473 -0.8885 -0.6851
   37POPC  H15Y 5034   0.715   1.291   8.213  0.2766  0.5797 -3.7569
   37POPC  C316 5035   0.884   1.254   8.352  0.1676 -0.1183  0.0231
   37POPC  H16X 5036   0.867   1.358   8.388  0.9921 -0.7775  2.3639
   37POPC  H16Y 5037   0.994   1.241   8.352  0.2094  0.1521 -0.9358
   37POPC  H16Z 5038   0.848   1.174   8.420 -1.1320  0.7511  0.3675
   38POPC     N 5039   3.386   4.634   6.337  0.1287 -0.0043 -0.2775
   38POPC   C12 5040   3.358   4.763   6.413  1.4918  0.1867 -0.4032
   38POPC  H12A 5041   3.435   4.770   6.488 -0.7370 -2.6545  2.3100
   38POPC  H12B 5042   3.262   4.757   6.462  1.3202  1.8488 -0.4970
   38POPC   C13 5043   3.515   4.636   6.264 -0.3455 -0.0915 -0.4737
   38POPC  H13A 5044   3.541   4.541   6.221  0.4777 -0.4542  0.8013
   38POPC  H13B 5045   3.504   4.701   6.178  1.5646  0.2518 -0.4768
   38POPC  H13C 5046   3.599   4.678   6.318 -0.1896 -0.0067 -0.7835
   38POPC   C14 5047   3.395   4.525   6.439  0.2709  0.4319  0.8046
   38POPC  H14A 5048   3.296   4.528   6.483 -0.0659  0.4946  0.0494
   38POPC  H14B 5049   3.407   4.436   6.380  1.0403  1.4292 -0.5793
   38POPC  H14C 5050   3.476   4.540   6.509  1.0618 -1.5360  0.3385
   38POPC   C15 5051   3.278   4.603   6.236 -0.5980 -0.2847  0.2948
   38POPC  H15A 5052   3.307   4.511   6.187  0.5075  0.7641 -1.0476
   38POPC  H15B 5053   3.278   4.676   6.157 -1.9737  1.3618  1.7772
   38POPC  H15C 5054   3.180   4.587   6.280 -1.2117 -2.5600 -1.8128
   38POPC   C11 5055   3.346   4.881   6.327 -0.2468 -0.3215 -0.4265
   38POPC  H11A 5056   3.263   4.869   6.254 -0.9564 -2.7246  0.7176
   38POPC  H11B 5057   3.440   4.896   6.270 -0.5131  1.0904 -0.5267
   38POPC     P 5058   3.189   5.045   6.448  0.1479  0.1424  0.0352
   38POPC   O13 5059   3.094   5.018   6.335  0.1871 -0.3319  0.1519
   38POPC   O14 5060   3.197   5.180   6.507 -0.5080  0.4763 -0.7746
   38POPC   O12 5061   3.334   5.004   6.406 -0.5662 -0.8198  0.7980
   38POPC   O11 5062   3.163   4.940   6.564  0.2478 -0.4124  0.2667
   38POPC    C1 5063   3.032   4.882   6.593  0.6897  0.2311 -0.0392
   38POPC    HA 5064   3.024   4.778   6.555 -1.1126  1.1727 -2.3445
   38POPC    HB 5065   2.946   4.935   6.548  0.5825 -1.0319 -1.3472
   38POPC    C2 5066   3.001   4.879   6.747 -0.7465  0.6132 -0.6753
   38POPC    HS 5067   2.893   4.858   6.766 -0.3040 -0.6839  0.4615
   38POPC   O21 5068   3.036   4.995   6.817 -0.4200 -0.3723  0.2052
   38POPC   C21 5069   2.950   5.092   6.827 -0.4073  0.6759 -0.7454
   38POPC   O22 5070   2.834   5.098   6.792  0.2408  0.4264  0.0735
   38POPC   C22 5071   3.016   5.197   6.916 -0.4963  0.3710 -0.6068
   38POPC   H2R 5072   3.024   5.295   6.865  0.9439 -0.0171 -1.1355
   38POPC   H2S 5073   3.124   5.178   6.932 -0.2266 -1.6425 -4.3216
   38POPC    C3 5074   3.078   4.768   6.812 -0.1768 -0.5699 -0.5409
   38POPC    HX 5075   3.184   4.803   6.813 -1.1701  2.5342  0.2110
   38POPC    HY 5076   3.073   4.674   6.752  2.2543 -1.2432  0.2613
   38POPC   O31 5077   3.052   4.740   6.947 -0.3854 -0.7194 -0.8448
   38POPC   C31 5078   2.984   4.622   6.971  0.4870 -0.0525 -0.6045
   38POPC   O32 5079   2.955   4.536   6.889 -0.3394  0.1647 -1.1425
   38POPC   C32 5080   2.977   4.612   7.127  0.2344 -0.1076  0.7122
   38POPC   H2X 5081   2.898   4.539   7.152 -0.9298  1.6848  2.3666
   38POPC   H2Y 5082   2.947   4.712   7.164  1.5492  0.6247 -0.1480
   38POPC   C23 5083   2.941   5.209   7.055  0.3827  0.2753  0.1047
   38POPC   H3R 5084   2.834   5.233   7.038  0.3468  0.2891  0.3525
   38POPC   H3S 5085   2.995   5.292   7.104 -1.7511  2.0544 -0.4679
   38POPC   C24 5086   2.944   5.070   7.135  0.1818 -0.2910  0.4722
   38POPC   H4R 5087   3.043   5.021   7.122  0.4179  0.9268 -2.7368
   38POPC   H4S 5088   2.872   5.001   7.087 -1.1146  0.1417  1.7614
   38POPC   C25 5089   2.913   5.088   7.281 -0.7679  0.5607 -0.1347
   38POPC   H5R 5090   2.814   5.134   7.296 -0.2566  1.4793  0.4628
   38POPC   H5S 5091   2.981   5.159   7.332 -0.1420 -1.0801  1.3624
   38POPC   C26 5092   2.943   4.959   7.353 -0.2252 -0.1662  0.4055
   38POPC   H6R 5093   3.054   4.964   7.364  0.1001 -3.7064 -0.6370
   38POPC   H6S 5094   2.909   4.873   7.292 -1.0593  0.8768 -0.6069
   38POPC   C27 5095   2.897   4.946   7.502 -0.0012  0.3297  0.0063
   38POPC   H7R 5096   2.960   5.020   7.556  0.7681 -2.1728  2.6189
   38POPC   H7S 5097   2.923   4.845   7.540 -0.1765  1.2127  2.5710
   38POPC   C28 5098   2.746   4.962   7.523  0.1763 -0.5224 -0.2346
   38POPC   H8R 5099   2.726   5.061   7.477  0.9808 -0.0518  0.4071
   38POPC   H8S 5100   2.718   4.967   7.631  0.6136  0.5870 -0.1608
   38POPC   C29 5101   2.668   4.862   7.437  0.9444 -0.1847  0.3988
   38POPC   H91 5102   2.652   4.893   7.333 -0.9701  1.5243  1.1697
   38POPC  C210 5103   2.624   4.739   7.476 -0.4906 -0.3880 -0.1649
   38POPC  H101 5104   2.579   4.676   7.398 -0.6697 -0.0791 -0.3132
   38POPC  C211 5105   2.653   4.678   7.615 -0.3950  0.3975  0.8139
   38POPC  H11R 5106   2.738   4.727   7.668 -1.4039  0.6698  2.1938
   38POPC  H11S 5107   2.663   4.569   7.600 -0.4992  0.9178 -3.7609
   38POPC  C212 5108   2.537   4.700   7.702 -0.4382 -0.5220 -0.2948
   38POPC  H12R 5109   2.440   4.664   7.661 -1.4556  1.8894 -0.1372
   38POPC  H12S 5110   2.521   4.808   7.726 -0.8398 -0.8075  0.7809
   38POPC  C213 5111   2.553   4.621   7.834  0.3520 -0.3607  0.0973
   38POPC  H13R 5112   2.618   4.533   7.811  1.6672  0.3251  1.1079
   38POPC  H13S 5113   2.456   4.577   7.865  0.8192 -3.0884 -2.1297
   38POPC  C214 5114   2.606   4.700   7.951  0.2645 -0.7787  0.6850
   38POPC  H14R 5115   2.644   4.620   8.018 -0.6619  0.0749  2.2734
   38POPC  H14S 5116   2.519   4.745   8.004 -0.2513  0.5369 -1.2369
   38POPC  C215 5117   2.726   4.797   7.922  0.1731  0.1008  0.3859
   38POPC  H15R 5118   2.694   4.870   7.844  0.8396  0.1383  0.1493
   38POPC  H15S 5119   2.801   4.725   7.883 -1.7590 -0.7166 -1.9372
   38POPC  C216 5120   2.779   4.870   8.050 -0.2289  0.0189 -0.0884
   38POPC  H16R 5121   2.847   4.804   8.107 -0.7713  0.9184  1.6109
   38POPC  H16S 5122   2.694   4.888   8.118 -0.8611 -1.1773 -0.5500
   38POPC  C217 5123   2.861   4.995   8.016  0.0883 -0.3778  0.1013
   38POPC  H17R 5124   2.903   5.040   8.108 -1.3501  2.3013 -0.5135
   38POPC  H17S 5125   2.786   5.063   7.970  2.9675  1.0106 -2.7899
   38POPC  C218 5126   2.976   4.969   7.924 -0.3394  0.1098 -0.0901
   38POPC  H18R 5127   3.061   4.912   7.967 -0.4211  0.8959  1.1246
   38POPC  H18S 5128   3.015   5.072   7.906  0.1908 -0.0341  0.2239
   38POPC  H18T 5129   2.937   4.930   7.828  0.4660  0.9044 -0.7600
   38POPC   C33 5130   3.108   4.577   7.200  0.1790 -0.3965 -0.1608
   38POPC   H3X 5131   3.179   4.660   7.180 -0.5694  0.0168 -1.1180
   38POPC   H3Y 5132   3.163   4.490   7.158  0.7707 -1.4637  2.7038
   38POPC   C34 5133   3.089   4.567   7.357  0.1665 -0.5637  0.0553
   38POPC   H4X 5134   3.012   4.489   7.379  1.6539 -2.3214 -0.7850
   38POPC   H4Y 5135   3.060   4.671   7.380 -0.2077 -0.3909 -1.1892
   38POPC   C35 5136   3.239   4.539   7.423  0.3481  0.6383 -0.2651
   38POPC   H5X 5137   3.299   4.628   7.393  0.3573 -0.0271 -2.2517
   38POPC   H5Y 5138   3.293   4.448   7.389  0.9981  0.6020  0.8195
   38POPC   C36 5139   3.233   4.530   7.576  0.1749 -0.2860  0.2321
   38POPC   H6X 5140   3.330   4.563   7.619  0.6867  1.0991 -1.9147
   38POPC   H6Y 5141   3.221   4.425   7.610 -0.5621 -0.9413 -1.9330
   38POPC   C37 5142   3.118   4.622   7.636  0.2592 -0.5178 -0.2757
   38POPC   H7X 5143   3.016   4.593   7.603  0.2925 -1.6602  0.6204
   38POPC   H7Y 5144   3.143   4.723   7.597  1.0763 -0.4448  0.4171
   38POPC   C38 5145   3.130   4.628   7.795 -0.3832 -0.2944 -0.5769
   38POPC   H8X 5146   3.053   4.700   7.832 -1.2643 -0.4055 -2.1477
   38POPC   H8Y 5147   3.227   4.665   7.834 -0.2950 -2.0212  0.9408
   38POPC   C39 5148   3.101   4.491   7.863 -0.0261  1.3031 -0.2229
   38POPC   H9X 5149   3.187   4.421   7.862 -2.7979 -2.2252 -0.4473
   38POPC   H9Y 5150   3.023   4.450   7.796  0.0410  1.4492 -0.3904
   38POPC  C310 5151   3.055   4.514   8.013  0.4564 -0.1998  0.2149
   38POPC  H10X 5152   2.994   4.606   8.028 -0.1658 -0.7072  0.8120
   38POPC  H10Y 5153   3.149   4.535   8.069  1.8187 -2.8358 -0.9893
   38POPC  C311 5154   2.981   4.396   8.084 -0.1120 -0.2244 -0.3668
   38POPC  H11X 5155   3.057   4.315   8.074  1.1542  1.2401 -3.0719
   38POPC  H11Y 5156   2.894   4.357   8.028  1.6997 -3.4688 -1.0476
   38POPC  C312 5157   2.939   4.425   8.233  0.0474  0.3655  0.3711
   38POPC  H12X 5158   3.014   4.474   8.299  1.3058 -0.2261 -0.6084
   38POPC  H12Y 5159   2.916   4.330   8.285 -1.8607  0.0258 -1.0455
   38POPC  C313 5160   2.816   4.517   8.235 -0.6146  0.8014  0.3670
   38POPC  H13X 5161   2.744   4.482   8.158  0.3685  0.7898 -0.5607
   38POPC  H13Y 5162   2.859   4.616   8.207  1.2567 -0.2118 -0.4317
   38POPC  C314 5163   2.735   4.522   8.365  0.2680 -0.1093 -0.2609
   38POPC  H14X 5164   2.798   4.549   8.452  0.5456 -1.1057 -0.1381
   38POPC  H14Y 5165   2.703   4.418   8.387  0.6522  0.3156  2.4972
   38POPC  C315 5166   2.614   4.612   8.349 -0.8357 -0.3867 -0.0786
   38POPC  H15X 5167   2.534   4.567   8.412  1.0938 -1.0670  1.9636
   38POPC  H15Y 5168   2.571   4.617   8.247  0.8196  1.0665 -0.7449
   38POPC  C316 5169   2.640   4.754   8.400 -0.5880  0.2436  0.1190
   38POPC  H16X 5170   2.664   4.752   8.509 -1.0434 -0.6119  0.2013
   38POPC  H16Y 5171   2.559   4.828   8.384  0.5048  1.1626 -1.3204
   38POPC  H16Z 5172   2.739   4.784   8.358 -0.2938 -0.2298  0.4714
   39POPC     N 5173   0.065   1.956   6.215 -0.2641  0.4152 -0.6018
   39POPC   C12 5174   0.100   2.102   6.201 -0.1492 -0.3848  0.5643
   39POPC  H12A 5175   0.174   2.138   6.271 -0.2813  3.1312 -0.9636
   39POPC  H12B 5176   0.008   2.143   6.242 -0.4537  0.1610 -0.6529
   39POPC   C13 5177   0.180   1.877   6.167 -0.6340 -0.4715  0.1693
   39POPC  H13A 5178   0.242   1.930   6.097  0.8727 -3.4086 -0.7980
   39POPC  H13B 5179   0.250   1.851   6.245 -1.6361 -0.8793  0.9429
   39POPC  H13C 5180   0.140   1.779   6.144  0.4304 -0.5289 -1.4661
   39POPC   C14 5181   0.048   1.925   6.356 -0.1484  0.0600 -0.2596
   39POPC  H14A 5182  -0.056   1.937   6.382 -0.5327  4.6538 -3.1585
   39POPC  H14B 5183   0.066   1.820   6.370  0.2524  0.0713 -0.6633
   39POPC  H14C 5184   0.117   1.983   6.416 -1.0595  1.0116 -0.1210
   39POPC   C15 5185  -0.064   1.917   6.148  0.3630  0.0675  0.3103
   39POPC  H15A 5186  -0.146   1.980   6.177 -0.2019  0.5974 -2.3151
   39POPC  H15B 5187  -0.106   1.820   6.170  0.2009  0.5749  2.3014
   39POPC  H15C 5188  -0.055   1.924   6.040  1.5337 -0.0767  0.3924
   39POPC   C11 5189   0.128   2.164   6.065 -0.5675 -0.4398  0.1611
   39POPC  H11A 5190   0.120   2.275   6.070  1.6622 -0.3002  1.1216
   39POPC  H11B 5191   0.043   2.127   6.004  0.7087  0.2305 -2.0503
   39POPC     P 5192   0.386   2.211   6.034 -0.2417  0.0479 -0.2310
   39POPC   O13 5193   0.360   2.340   5.967  0.4258  0.1796 -0.8387
   39POPC   O14 5194   0.509   2.141   5.990  0.1458  0.0699 -0.1007
   39POPC   O12 5195   0.255   2.120   6.010 -0.1977 -0.0291  0.0267
   39POPC   O11 5196   0.382   2.230   6.192  0.3672  0.2500  0.1828
   39POPC    C1 5197   0.489   2.174   6.269  0.2023 -1.0203  0.0964
   39POPC    HA 5198   0.576   2.242   6.267  0.3345 -1.1754  0.4911
   39POPC    HB 5199   0.524   2.077   6.229 -2.5604 -1.9975 -0.0763
   39POPC    C2 5200   0.442   2.130   6.410  0.6568 -0.4291 -0.0246
   39POPC    HS 5201   0.355   2.062   6.403  1.0020 -0.7598 -1.1964
   39POPC   O21 5202   0.418   2.250   6.485  0.2408  0.0394 -0.1996
   39POPC   C21 5203   0.292   2.279   6.492 -0.1059 -0.3412 -0.2439
   39POPC   O22 5204   0.198   2.209   6.459  0.0940 -0.1583  0.4577
   39POPC   C22 5205   0.273   2.412   6.553 -0.6591  0.0210  0.1383
   39POPC   H2R 5206   0.200   2.458   6.482 -0.2230 -1.5605 -1.3623
   39POPC   H2S 5207   0.371   2.464   6.546  0.1260 -1.4224  0.4016
   39POPC    C3 5208   0.553   2.051   6.491 -0.4441 -0.3953 -0.5376
   39POPC    HX 5209   0.655   2.086   6.465 -1.1747  0.7992 -1.8707
   39POPC    HY 5210   0.552   1.949   6.447  0.0257 -0.4021 -0.5349
   39POPC   O31 5211   0.534   2.048   6.636  0.4517  0.5160 -0.2439
   39POPC   C31 5212   0.435   1.970   6.672 -0.5880 -0.3870  0.8871
   39POPC   O32 5213   0.364   1.904   6.596  0.0747  0.1857 -0.3269
   39POPC   C32 5214   0.449   1.960   6.822 -0.0437 -0.0798 -0.3875
   39POPC   H2X 5215   0.361   1.904   6.860 -0.2899  0.8570  0.4395
   39POPC   H2Y 5216   0.543   1.905   6.844 -0.9758 -1.2020  0.9015
   39POPC   C23 5217   0.219   2.425   6.697 -0.7703 -0.2765  0.7355
   39POPC   H3R 5218   0.212   2.534   6.718 -3.6999  0.3088 -2.7172
   39POPC   H3S 5219   0.294   2.385   6.768  1.9488 -1.2844 -2.5972
   39POPC   C24 5220   0.081   2.365   6.715 -0.1125 -0.3267 -0.1176
   39POPC   H4R 5221   0.072   2.261   6.676 -4.1202  0.1639 -0.7377
   39POPC   H4S 5222   0.019   2.424   6.644  0.2739 -0.4522 -0.5637
   39POPC   C25 5223   0.021   2.381   6.861 -0.7433 -0.3072 -0.4359
   39POPC   H5R 5224   0.015   2.488   6.890  1.5347 -0.1107 -0.6037
   39POPC   H5S 5225   0.088   2.330   6.934 -2.5111  1.4775  2.5483
   39POPC   C26 5226  -0.118   2.318   6.871 -0.2368 -0.0420  1.0451
   39POPC   H6R 5227  -0.122   2.208   6.886  2.0530 -0.2496  0.4056
   39POPC   H6S 5228  -0.171   2.346   6.778  0.4412  0.7074  0.8755
   39POPC   C27 5229  -0.186   2.365   7.005  0.4656 -0.0072  0.5914
   39POPC   H7R 5230  -0.185   2.476   7.006 -2.1755  0.0974 -2.0043
   39POPC   H7S 5231  -0.127   2.331   7.093 -0.5424 -2.3548  0.3976
   39POPC   C28 5232  -0.331   2.321   7.019 -0.3595 -0.4690 -0.5064
   39POPC   H8R 5233  -0.361   2.307   7.125  1.5925 -0.8179  0.0265
   39POPC   H8S 5234  -0.361   2.226   6.972 -0.6765 -0.3755 -0.4929
   39POPC   C29 5235  -0.443   2.400   6.943 -0.6836  0.0962 -0.2690
   39POPC   H91 5236  -0.429   2.400   6.834 -1.0384 -1.7078 -0.3320
   39POPC  C210 5237  -0.556   2.449   6.995  0.3500  1.0473 -0.9172
   39POPC  H101 5238  -0.634   2.497   6.934 -0.1977 -0.4279 -1.4055
   39POPC  C211 5239  -0.596   2.437   7.139 -0.1841 -1.0529 -0.5728
   39POPC  H11R 5240  -0.642   2.533   7.170 -0.7391 -0.9975 -1.5369
   39POPC  H11S 5241  -0.512   2.421   7.210  0.1589 -0.3033 -0.8050
   39POPC  C212 5242  -0.693   2.324   7.158  0.5323  0.0855 -0.3452
   39POPC  H12R 5243  -0.645   2.227   7.131  0.1523 -0.2619  0.2270
   39POPC  H12S 5244  -0.777   2.351   7.090 -0.0496 -0.1808  0.2651
   39POPC  C213 5245  -0.749   2.315   7.303 -0.1580  0.0719 -0.3875
   39POPC  H13R 5246  -0.828   2.237   7.295 -0.4608  0.5899 -2.9591
   39POPC  H13S 5247  -0.799   2.408   7.337  0.9259  0.0738  1.2716
   39POPC  C214 5248  -0.646   2.265   7.410 -0.5347 -0.3832  0.5281
   39POPC  H14R 5249  -0.582   2.350   7.444 -0.4254 -0.0364 -0.5518
   39POPC  H14S 5250  -0.573   2.191   7.371 -2.6655 -0.8812 -2.6312
   39POPC  C215 5251  -0.703   2.216   7.543 -0.2541  0.6751  0.2935
   39POPC  H15R 5252  -0.632   2.148   7.594  0.5612  2.5191  1.6953
   39POPC  H15S 5253  -0.793   2.154   7.522  0.0429  0.4115 -0.1973
   39POPC  C216 5254  -0.731   2.327   7.646  0.3160 -0.0184  0.2778
   39POPC  H16R 5255  -0.817   2.387   7.609 -0.5665 -2.1890 -1.2910
   39POPC  H16S 5256  -0.649   2.402   7.651 -0.6666  1.1677 -1.0143
   39POPC  C217 5257  -0.763   2.294   7.792  0.7827 -0.0967 -0.4836
   39POPC  H17R 5258  -0.680   2.256   7.856  0.1991  0.7584  0.7950
   39POPC  H17S 5259  -0.844   2.219   7.785  0.3672 -0.1596  3.8204
   39POPC  C218 5260  -0.813   2.415   7.879  0.0910 -0.0258  0.1034
   39POPC  H18R 5261  -0.909   2.457   7.842  0.4528  0.5296 -0.2124
   39POPC  H18S 5262  -0.744   2.502   7.876 -0.4242  0.3932  0.4355
   39POPC  H18T 5263  -0.840   2.385   7.983  1.3263 -1.0965  0.1274
   39POPC   C33 5264   0.451   2.089   6.895  0.2763 -0.3336 -0.3042
   39POPC   H3X 5265   0.357   2.146   6.879  0.7875  0.7833  0.5918
   39POPC   H3Y 5266   0.534   2.153   6.856  0.4762 -0.0577  0.5527
   39POPC   C34 5267   0.463   2.064   7.050  0.0473  0.8752  0.0083
   39POPC   H4X 5268   0.571   2.038   7.059 -0.2329  0.2306  1.4904
   39POPC   H4Y 5269   0.410   1.972   7.081 -1.4412  2.3894  2.0475
   39POPC   C35 5270   0.437   2.183   7.142  0.0952  0.2786  0.3004
   39POPC   H5X 5271   0.336   2.225   7.122 -0.6513 -1.8674 -0.6395
   39POPC   H5Y 5272   0.505   2.266   7.112  0.5427 -0.1701  0.0703
   39POPC   C36 5273   0.464   2.146   7.285 -1.4531 -0.8517  0.6396
   39POPC   H6X 5274   0.571   2.118   7.289 -1.2327 -0.3509 -1.1447
   39POPC   H6Y 5275   0.401   2.060   7.314 -0.4818 -1.0645  2.1810
   39POPC   C37 5276   0.442   2.273   7.370 -0.1976 -0.5343 -0.6142
   39POPC   H7X 5277   0.332   2.288   7.382  0.0122  0.5815 -0.0539
   39POPC   H7Y 5278   0.469   2.370   7.324  0.5333  0.0328  0.9784
   39POPC   C38 5279   0.489   2.282   7.523 -0.2958  0.1603 -0.1171
   39POPC   H8X 5280   0.599   2.268   7.534 -0.4764 -0.4173  1.0530
   39POPC   H8Y 5281   0.430   2.208   7.581 -0.2445 -0.2996 -0.6423
   39POPC   C39 5282   0.467   2.416   7.591  0.1992  0.7197 -0.1435
   39POPC   H9X 5283   0.358   2.440   7.589 -0.3320 -1.6183 -1.4758
   39POPC   H9Y 5284   0.526   2.497   7.543 -0.4804  0.5462 -1.3154
   39POPC  C310 5285   0.491   2.407   7.744  0.0804 -0.6070 -0.6979
   39POPC  H10X 5286   0.599   2.406   7.767  0.4372  0.7492 -2.2133
   39POPC  H10Y 5287   0.439   2.315   7.779 -0.6045 -1.3023 -3.4351
   39POPC  C311 5288   0.417   2.516   7.828 -0.4009 -0.5600  0.0204
   39POPC  H11X 5289   0.309   2.490   7.829 -0.5042 -0.2943 -1.9538
   39POPC  H11Y 5290   0.438   2.613   7.778  0.8431 -1.6052 -1.5151
   39POPC  C312 5291   0.467   2.511   7.971 -0.2154 -0.3141 -0.8016
   39POPC  H12X 5292   0.574   2.490   7.990  0.0617  1.8886  0.2285
   39POPC  H12Y 5293   0.425   2.424   8.026 -0.1864 -0.0380 -0.3324
   39POPC  C313 5294   0.435   2.640   8.049 -0.0696 -0.5925  0.3847
   39POPC  H13X 5295   0.331   2.633   8.088 -0.5836  0.8559 -0.6916
   39POPC  H13Y 5296   0.441   2.727   7.980  3.1021 -1.4145 -0.4525
   39POPC  C314 5297   0.531   2.676   8.164 -0.2487 -0.2948  0.8204
   39POPC  H14X 5298   0.630   2.691   8.117 -0.4518 -0.0629  0.4718
   39POPC  H14Y 5299   0.540   2.596   8.242 -2.0052  0.6046  1.9810
   39POPC  C315 5300   0.485   2.804   8.246  0.6578 -0.4178 -0.1658
   39POPC  H15X 5301   0.401   2.771   8.312  1.6515 -1.5819  0.5299
   39POPC  H15Y 5302   0.441   2.883   8.181 -0.4739  1.4842  2.7762
   39POPC  C316 5303   0.598   2.875   8.322  0.5281  0.4443  0.5645
   39POPC  H16X 5304   0.671   2.916   8.249  1.1821  0.6009  1.3008
   39POPC  H16Y 5305   0.651   2.801   8.386  1.6720  0.4194 -0.3940
   39POPC  H16Z 5306   0.556   2.957   8.384  2.2724  1.3690  0.5315
   40POPC     N 5307   5.459   0.352   6.255 -0.2139  0.5338  0.0722
   40POPC   C12 5308   5.537   0.367   6.377 -0.4566  0.0269 -0.4155
   40POPC  H12A 5309   5.598   0.279   6.392  1.5872  0.5487 -4.6728
   40POPC  H12B 5310   5.471   0.378   6.461  0.4435 -1.1978  0.4699
   40POPC   C13 5311   5.336   0.263   6.269 -0.9039  0.0751  0.0857
   40POPC  H13A 5312   5.274   0.277   6.182  0.9034 -0.2074 -1.2799
   40POPC  H13B 5313   5.362   0.159   6.279  0.7063  0.2343 -2.0448
   40POPC  H13C 5314   5.277   0.293   6.355 -1.1960 -1.1857  0.3376
   40POPC   C14 5315   5.403   0.484   6.209  0.0439  0.0552 -0.4447
   40POPC  H14A 5316   5.344   0.530   6.287  0.9571 -2.5150  1.8053
   40POPC  H14B 5317   5.473   0.559   6.174  0.6064 -0.9510 -1.4867
   40POPC  H14C 5318   5.337   0.468   6.125 -0.1335 -2.0175  0.0735
   40POPC   C15 5319   5.537   0.308   6.141 -0.3355  0.3794  0.4155
   40POPC  H15A 5320   5.471   0.308   6.056 -0.8516  0.2098  0.8087
   40POPC  H15B 5321   5.581   0.209   6.143  0.4644  0.7357  0.8764
   40POPC  H15C 5322   5.618   0.379   6.132 -1.9603  2.1935 -0.0619
   40POPC   C11 5323   5.640   0.480   6.387 -0.1424  0.6422  0.4686
   40POPC  H11A 5324   5.679   0.495   6.490  0.5922  0.6186  0.1997
   40POPC  H11B 5325   5.592   0.578   6.365 -0.3162  0.9364  2.1604
   40POPC     P 5326   5.884   0.421   6.335  0.5045 -0.2603 -0.2818
   40POPC   O13 5327   5.947   0.506   6.433 -0.4486  0.2247 -0.3048
   40POPC   O14 5328   5.964   0.394   6.216 -0.1390  0.0577 -0.0868
   40POPC   O12 5329   5.740   0.475   6.291  0.2826 -0.1112 -0.1099
   40POPC   O11 5330   5.837   0.290   6.405  0.5742 -0.2570  0.4143
   40POPC    C1 5331   5.930   0.195   6.456 -0.2638  0.5254 -0.0645
   40POPC    HA 5332   6.030   0.234   6.488  0.0744 -1.3995  1.2958
   40POPC    HB 5333   5.948   0.115   6.382 -0.8628 -0.0607  0.4231
   40POPC    C2 5334   5.884   0.145   6.594  1.2737  0.9287 -0.1320
   40POPC    HS 5335   5.961   0.072   6.625 -0.6427 -0.3975  1.6590
   40POPC   O21 5336   5.754   0.085   6.580 -0.0002  0.0521  0.5794
   40POPC   C21 5337   5.750  -0.034   6.530  0.4466  0.4536  0.5861
   40POPC   O22 5338   5.846  -0.106   6.508  0.1639  0.1771 -0.5495
   40POPC   C22 5339   5.608  -0.077   6.514  0.0143 -0.3248 -0.2455
   40POPC   H2R 5340   5.606  -0.121   6.412 -1.0190 -0.5179 -0.1490
   40POPC   H2S 5341   5.535   0.005   6.527  0.4017 -0.3413  2.2324
   40POPC    C3 5342   5.877   0.254   6.696  0.4941 -0.9755  0.2729
   40POPC    HX 5343   5.796   0.322   6.662  0.5421 -1.2029 -0.3075
   40POPC    HY 5344   5.973   0.310   6.692 -0.0053 -0.1716 -0.5047
   40POPC   O31 5345   5.846   0.211   6.824  0.2515  0.1501  0.0867
   40POPC   C31 5346   5.945   0.160   6.891  0.0100 -0.4434 -0.2915
   40POPC   O32 5347   6.060   0.142   6.851 -0.6158  0.4679  0.0530
   40POPC   C32 5348   5.884   0.101   7.027  0.5226  0.3375 -1.2944
   40POPC   H2X 5349   5.874  -0.007   7.007 -1.5772  0.1145  0.7447
   40POPC   H2Y 5350   5.781   0.137   7.048  0.7052  0.3906 -0.4624
   40POPC   C23 5351   5.542  -0.186   6.603 -0.7919 -0.2317 -0.6971
   40POPC   H3R 5352   5.598  -0.282   6.609 -1.5512 -0.6035  0.5186
   40POPC   H3S 5353   5.447  -0.219   6.556 -0.7709 -0.5133 -0.5424
   40POPC   C24 5354   5.507  -0.137   6.741  0.5879 -0.5429 -0.5413
   40POPC   H4R 5355   5.489  -0.028   6.729  0.8426 -0.2173  1.7428
   40POPC   H4S 5356   5.599  -0.153   6.802  0.4614  0.8520  0.0438
   40POPC   C25 5357   5.382  -0.205   6.811  0.7527 -0.4538  0.0152
   40POPC   H5R 5358   5.379  -0.316   6.801 -0.7391 -0.3494 -0.8863
   40POPC   H5S 5359   5.298  -0.169   6.749  2.1602 -2.3425 -3.0725
   40POPC   C26 5360   5.365  -0.158   6.957 -0.6271  0.3571  0.2008
   40POPC   H6R 5361   5.262  -0.155   6.997  0.0858 -1.9122  2.3834
   40POPC   H6S 5362   5.407  -0.056   6.961 -0.1296  0.1403  0.6215
   40POPC   C27 5363   5.446  -0.255   7.047  1.0214  0.3224  0.2732
   40POPC   H7R 5364   5.551  -0.251   7.012  0.9300  0.6393  0.0280
   40POPC   H7S 5365   5.406  -0.356   7.028 -0.6816  0.5521  2.4253
   40POPC   C28 5366   5.445  -0.207   7.192 -0.5232  0.3625 -0.1871
   40POPC   H8R 5367   5.448  -0.294   7.262  0.6888  1.0743  0.6476
   40POPC   H8S 5368   5.344  -0.164   7.209 -1.3324  0.0249 -3.6602
   40POPC   C29 5369   5.542  -0.100   7.233  0.3682 -0.5867  0.0656
   40POPC   H91 5370   5.573  -0.016   7.169 -0.4796 -0.0140  0.3982
   40POPC  C210 5371   5.584  -0.093   7.360  0.6609  0.3536 -0.1875
   40POPC  H101 5372   5.654  -0.018   7.400 -1.4690  1.5458  1.4168
   40POPC  C211 5373   5.550  -0.194   7.467 -0.4030 -0.4221 -0.4833
   40POPC  H11R 5374   5.622  -0.275   7.440  0.4653  0.9955 -2.4896
   40POPC  H11S 5375   5.443  -0.221   7.455 -0.3678 -1.2288  0.9092
   40POPC  C212 5376   5.579  -0.155   7.611 -0.4634  0.5262  1.1758
   40POPC  H12R 5377   5.504  -0.085   7.653  0.4544  3.7783 -2.3333
   40POPC  H12S 5378   5.679  -0.107   7.615  0.0267 -0.1503 -1.6525
   40POPC  C213 5379   5.596  -0.282   7.698 -0.3090  0.2783  0.7590
   40POPC  H13R 5380   5.689  -0.336   7.669 -1.5862 -2.0368  0.9454
   40POPC  H13S 5381   5.502  -0.329   7.664  0.5068 -1.2336  0.5365
   40POPC  C214 5382   5.601  -0.247   7.847  0.0356 -0.0290 -0.2747
   40POPC  H14R 5383   5.511  -0.193   7.883  0.8138  1.3323 -0.3216
   40POPC  H14S 5384   5.677  -0.166   7.850  0.3643 -0.3352 -0.2857
   40POPC  C215 5385   5.653  -0.357   7.942 -0.4384  0.1163  0.7660
   40POPC  H15R 5386   5.758  -0.369   7.909 -0.2421 -0.0813  1.4612
   40POPC  H15S 5387   5.593  -0.450   7.937 -0.7899  0.3646  0.2890
   40POPC  C216 5388   5.648  -0.301   8.087  0.6219 -0.1126  0.0809
   40POPC  H16R 5389   5.545  -0.287   8.126  0.4298 -1.5491  0.1296
   40POPC  H16S 5390   5.687  -0.200   8.064 -0.6859  0.8350  1.9554
   40POPC  C217 5391   5.734  -0.384   8.177 -0.3160 -0.5202  0.3686
   40POPC  H17R 5392   5.837  -0.393   8.136 -0.6893 -1.9200 -0.2792
   40POPC  H17S 5393   5.710  -0.488   8.206  0.0791 -0.2397  1.7295
   40POPC  C218 5394   5.727  -0.298   8.315 -0.1281  0.2161  0.0224
   40POPC  H18R 5395   5.785  -0.203   8.314 -1.2285  0.9074  0.3018
   40POPC  H18S 5396   5.778  -0.364   8.387 -0.4256 -2.0649 -1.7940
   40POPC  H18T 5397   5.625  -0.271   8.350 -0.5927 -0.1209 -1.0348
   40POPC   C33 5398   5.981   0.133   7.146  0.3618 -0.1746  0.3779
   40POPC   H3X 5399   5.971   0.234   7.192  3.7525  0.9406 -1.1231
   40POPC   H3Y 5400   6.089   0.141   7.122  0.1930 -2.1176 -1.0945
   40POPC   C34 5401   5.948   0.043   7.268 -0.2486 -0.2599  0.1133
   40POPC   H4X 5402   5.960  -0.063   7.236 -1.7841 -0.1298 -0.9508
   40POPC   H4Y 5403   5.841   0.054   7.297 -0.2366 -1.6127  0.7038
   40POPC   C35 5404   6.022   0.068   7.398  0.3280  0.1117 -0.5472
   40POPC   H5X 5405   6.018   0.177   7.419 -0.4022  0.0640 -0.4469
   40POPC   H5Y 5406   6.128   0.033   7.394 -0.4073 -2.1439 -0.8357
   40POPC   C36 5407   5.965  -0.019   7.504  0.3236  0.4017  0.0943
   40POPC   H6X 5408   5.979  -0.122   7.466  0.4300 -0.3806  2.2019
   40POPC   H6Y 5409   5.856  -0.002   7.496  0.1696 -0.4743  0.2829
   40POPC   C37 5410   6.017   0.026   7.643 -0.1241  0.1037 -0.0729
   40POPC   H7X 5411   5.953   0.110   7.678 -0.4255  0.4063 -1.3115
   40POPC   H7Y 5412   6.125   0.051   7.641  0.3855 -1.9359  0.0872
   40POPC   C38 5413   5.989  -0.073   7.760 -0.1601  1.2335 -0.6056
   40POPC   H8X 5414   6.039  -0.168   7.732  0.0149  1.7999 -2.2673
   40POPC   H8Y 5415   5.881  -0.096   7.772  0.8235 -2.5906  1.8103
   40POPC   C39 5416   6.061  -0.024   7.879 -0.9511 -0.4858  0.2472
   40POPC   H9X 5417   6.017   0.075   7.903 -1.1051 -0.3262 -0.6832
   40POPC   H9Y 5418   6.168  -0.006   7.856 -0.3130 -1.6403  2.2022
   40POPC  C310 5419   6.062  -0.127   7.997 -0.1089 -0.2320  0.5935
   40POPC  H10X 5420   6.125  -0.214   7.967 -0.0476  0.2896 -0.8015
   40POPC  H10Y 5421   5.957  -0.156   8.019  0.0906  1.5745  4.2020
   40POPC  C311 5422   6.118  -0.071   8.126 -0.4360  0.4652 -0.4820
   40POPC  H11X 5423   6.039  -0.017   8.184  0.0719  0.5688  0.1154
   40POPC  H11Y 5424   6.210  -0.010   8.111  0.4987 -0.4085  1.4652
   40POPC  C312 5425   6.143  -0.193   8.210 -0.7884  0.6923 -0.1297
   40POPC  H12X 5426   6.215  -0.248   8.146 -1.5262 -1.0047  0.4866
   40POPC  H12Y 5427   6.045  -0.245   8.222 -0.4064 -0.4345 -1.8112
   40POPC  C313 5428   6.197  -0.152   8.347 -0.0240  0.0396  0.2477
   40POPC  H13X 5429   6.147  -0.064   8.394  0.7362  0.0853  0.9889
   40POPC  H13Y 5430   6.302  -0.121   8.327  0.4269 -2.1680 -0.9168
   40POPC  C314 5431   6.208  -0.275   8.442 -0.1668  0.4441  0.5057
   40POPC  H14X 5432   6.239  -0.360   8.378  0.6163  0.0267  1.4232
   40POPC  H14Y 5433   6.110  -0.301   8.489 -0.7302 -1.4952 -1.6674
   40POPC  C315 5434   6.315  -0.247   8.546 -0.1317  0.5710  0.4218
   40POPC  H15X 5435   6.404  -0.199   8.498  0.2360  1.0210  1.5289
   40POPC  H15Y 5436   6.361  -0.340   8.585  0.2551  0.6272  0.1122
   40POPC  C316 5437   6.265  -0.160   8.662 -0.2850  0.5315 -0.2520
   40POPC  H16X 5438   6.205  -0.217   8.736 -0.2702 -0.5295 -1.0487
   40POPC  H16Y 5439   6.224  -0.067   8.620  0.6050  0.4962 -1.2025
   40POPC  H16Z 5440   6.350  -0.137   8.730  0.2335  0.0876 -0.7430
   41CHL1    C3 5441   4.605   2.841  10.171 -0.0118 -0.2771  1.0959
   41CHL1    H3 5442   4.713   2.822  10.151 -0.0122  0.5920  0.2454
   41CHL1    O3 5443   4.608   2.838  10.311  0.2345 -0.1225 -0.0046
   41CHL1   H3' 5444   4.522   2.865  10.344  0.8335 -0.5932  2.0380
   41CHL1    C4 5445   4.573   2.981  10.115 -0.3417  0.4395  0.1364
   41CHL1   H4A 5446   4.476   3.015  10.156 -0.2830  1.4676 -0.5544
   41CHL1   H4B 5447   4.655   3.048  10.150  0.1909  1.2114 -2.5326
   41CHL1    C5 5448   4.557   2.990   9.962 -0.0170  0.7965  0.8907
   41CHL1    C6 5449   4.638   3.069   9.891  0.0152 -0.1684 -0.5537
   41CHL1    H6 5450   4.722   3.124   9.937 -0.5633 -1.0357  1.6386
   41CHL1    C7 5451   4.621   3.078   9.743 -0.7531  0.1048 -0.4347
   41CHL1   H7A 5452   4.627   3.182   9.702  3.1651 -0.7072 -2.1148
   41CHL1   H7B 5453   4.693   3.019   9.683  2.7482  2.2043  1.5570
   41CHL1    C8 5454   4.483   3.033   9.691  0.4071 -0.5223 -0.2360
   41CHL1    H8 5455   4.409   3.106   9.730  0.4861 -0.8283  0.5007
   41CHL1   C14 5456   4.488   3.019   9.536  0.6824 -0.0977 -0.3820
   41CHL1   H14 5457   4.572   2.950   9.516  0.2229 -1.1693  1.2967
   41CHL1   C15 5458   4.531   3.150   9.451 -0.2987  0.1008  0.3821
   41CHL1  H15A 5459   4.474   3.235   9.495  3.7237  2.5404  1.1471
   41CHL1  H15B 5460   4.640   3.170   9.453  0.2818 -2.7047 -1.0238
   41CHL1   C16 5461   4.469   3.124   9.314 -0.3227 -0.3222  0.1979
   41CHL1  H16A 5462   4.391   3.197   9.284 -0.3106 -1.1904 -2.0842
   41CHL1  H16B 5463   4.554   3.122   9.241 -1.0202 -0.7100 -0.6090
   41CHL1   C17 5464   4.399   2.983   9.321  0.1190 -0.6417  0.5705
   41CHL1   H17 5465   4.469   2.899   9.300 -0.8211 -0.7032 -2.5688
   41CHL1   C13 5466   4.362   2.972   9.469 -0.3141  0.3381  0.1756
   41CHL1   C18 5467   4.236   3.062   9.490 -0.1248 -0.4586  0.1151
   41CHL1  H18A 5468   4.147   3.002   9.462 -0.2103  0.7971 -2.5067
   41CHL1  H18B 5469   4.215   3.078   9.598 -0.8320  0.9376 -0.2164
   41CHL1  H18C 5470   4.236   3.165   9.449 -0.6604 -0.2770  0.5678
   41CHL1   C12 5471   4.343   2.830   9.523 -0.3125  0.0491  0.1838
   41CHL1  H12A 5472   4.257   2.778   9.474 -0.6873 -0.2533  1.1330
   41CHL1  H12B 5473   4.424   2.760   9.494 -0.2390  0.0217  0.4535
   41CHL1   C11 5474   4.324   2.841   9.678 -0.1659 -0.2460  0.0815
   41CHL1  H11A 5475   4.239   2.912   9.689 -1.8022 -2.0812 -0.4426
   41CHL1  H11B 5476   4.282   2.749   9.723 -0.9027  1.1964  2.4361
   41CHL1    C9 5477   4.448   2.894   9.752  0.5222 -0.5905  0.8228
   41CHL1    H9 5478   4.530   2.823   9.726 -0.2199 -1.4862  0.9317
   41CHL1   C10 5479   4.448   2.892   9.905  0.2783 -0.0930 -0.2814
   41CHL1   C19 5480   4.300   2.925   9.944  0.8411  0.7175 -0.6610
   41CHL1  H19A 5481   4.275   2.941  10.051 -2.2330  0.5766 -1.3130
   41CHL1  H19B 5482   4.266   3.012   9.885  1.2272  0.5330 -1.1629
   41CHL1  H19C 5483   4.244   2.831   9.927  0.3496  0.5865  1.4613
   41CHL1    C1 5484   4.487   2.748   9.961 -0.0756  0.6037 -0.3172
   41CHL1   H1A 5485   4.413   2.671   9.932  0.3837  0.2109 -0.4653
   41CHL1   H1B 5486   4.578   2.711   9.909 -0.4992 -0.5375 -0.2569
   41CHL1    C2 5487   4.508   2.729  10.113 -0.1836 -0.0165  0.3630
   41CHL1   H2A 5488   4.531   2.623  10.136  1.8348  0.2807 -0.1739
   41CHL1   H2B 5489   4.415   2.756  10.167  0.6520  1.6994  0.9890
   41CHL1   C20 5490   4.289   2.969   9.211 -0.7380  0.1582  0.2172
   41CHL1   H20 5491   4.219   3.053   9.227 -0.6277  0.1299  0.8681
   41CHL1   C21 5492   4.205   2.837   9.237 -0.2286 -0.5210  0.3934
   41CHL1  H21A 5493   4.131   2.815   9.157  1.8409 -0.9424 -1.4564
   41CHL1  H21B 5494   4.138   2.838   9.325 -1.5147  0.2320 -0.5732
   41CHL1  H21C 5495   4.278   2.754   9.234  0.8199  0.4158 -0.8003
   41CHL1   C22 5496   4.358   2.958   9.076 -0.0044  0.7425  0.2484
   41CHL1  H22A 5497   4.420   3.049   9.063  1.0248 -0.0019 -0.0859
   41CHL1  H22B 5498   4.416   2.863   9.083  0.2314  0.8651 -0.0416
   41CHL1   C23 5499   4.249   2.966   8.966  0.5276  0.0571 -0.0648
   41CHL1  H23A 5500   4.177   2.883   8.982  2.1492 -1.1473  1.1818
   41CHL1  H23B 5501   4.200   3.065   8.979  1.7142  0.7744 -0.9219
   41CHL1   C24 5502   4.311   2.965   8.821  0.4678 -0.0987 -0.4486
   41CHL1  H24A 5503   4.351   3.066   8.802 -0.3944  0.7760  2.2158
   41CHL1  H24B 5504   4.396   2.894   8.806 -0.6894 -1.6552  0.1462
   41CHL1   C25 5505   4.209   2.951   8.700 -0.0456  0.8871 -0.6731
   41CHL1   H25 5506   4.132   3.027   8.724  1.7179  2.1799  1.1187
   41CHL1   C26 5507   4.268   2.990   8.555 -0.4702  0.2159  0.4123
   41CHL1  H26A 5508   4.304   3.095   8.548  2.8694 -0.9924 -1.5749
   41CHL1  H26B 5509   4.362   2.932   8.540  0.1726  1.6553 -1.2366
   41CHL1  H26C 5510   4.196   2.961   8.476 -1.7149  0.8030  1.3229
   41CHL1   C27 5511   4.138   2.808   8.703  0.1386 -0.1263 -0.0570
   41CHL1  H27A 5512   4.066   2.796   8.618 -0.1360 -0.4987  0.2281
   41CHL1  H27B 5513   4.223   2.737   8.691  1.5553  1.3677  1.0535
   41CHL1  H27C 5514   4.095   2.788   8.803  3.1753  0.8896  1.5047
   42CHL1    C3 5515   3.892   2.601   9.908  0.6122 -0.0288 -0.5518
   42CHL1    H3 5516   3.784   2.622   9.891  0.4238  0.6759  1.3145
   42CHL1    O3 5517   3.907   2.628  10.048 -0.4814 -0.0300  0.0577
   42CHL1   H3' 5518   4.002   2.621  10.056 -0.4892 -0.9460 -0.6067
   42CHL1    C4 5519   3.937   2.454   9.891 -0.5587  0.2607  0.3495
   42CHL1   H4A 5520   4.042   2.439   9.922 -0.7075 -0.3291  0.5697
   42CHL1   H4B 5521   3.877   2.395   9.963  3.6738 -3.9147  0.7001
   42CHL1    C5 5522   3.911   2.429   9.739  0.7611 -0.1740  0.7230
   42CHL1    C6 5523   3.823   2.337   9.707  0.1494  0.6103 -0.6428
   42CHL1    H6 5524   3.773   2.281   9.788  2.4567  0.1484  0.4850
   42CHL1    C7 5525   3.787   2.283   9.571  0.2526 -0.3016  0.2469
   42CHL1   H7A 5526   3.785   2.172   9.567 -0.6537 -0.2355 -1.0507
   42CHL1   H7B 5527   3.688   2.322   9.539  0.7476 -0.1752 -1.1414
   42CHL1    C8 5528   3.895   2.326   9.471  0.1026  0.3187 -0.1435
   42CHL1    H8 5529   3.990   2.272   9.492  1.1104  2.3602  0.5935
   42CHL1   C14 5530   3.843   2.303   9.332  0.3290 -0.3651  0.6351
   42CHL1   H14 5531   3.758   2.374   9.319  0.8433  0.1836  0.2578
   42CHL1   C15 5532   3.789   2.162   9.296  0.1514  0.0492 -0.6196
   42CHL1  H15A 5533   3.849   2.073   9.322  0.1390 -0.1248 -1.1767
   42CHL1  H15B 5534   3.688   2.145   9.339 -0.1967 -0.0917 -1.4724
   42CHL1   C16 5535   3.793   2.153   9.143  0.3151  0.1072 -0.3414
   42CHL1  H16A 5536   3.846   2.065   9.101 -0.8552 -1.5799  1.5924
   42CHL1  H16B 5537   3.692   2.156   9.096  1.5557 -1.0555 -3.1517
   42CHL1   C17 5538   3.849   2.283   9.094  0.3261 -0.4423  0.3867
   42CHL1   H17 5539   3.767   2.358   9.096  0.7728  0.1761 -2.1142
   42CHL1   C13 5540   3.934   2.340   9.219  0.9310 -0.6938 -0.2987
   42CHL1   C18 5541   4.063   2.253   9.222 -0.0530  0.6020  0.0127
   42CHL1  H18A 5542   4.053   2.142   9.232  2.2748  0.2974 -0.8149
   42CHL1  H18B 5543   4.116   2.259   9.125  0.2748 -2.0731 -0.0288
   42CHL1  H18C 5544   4.132   2.289   9.301  0.6490  0.3847 -0.5064
   42CHL1   C12 5545   3.955   2.500   9.230 -0.3341  0.9938  0.0592
   42CHL1  H12A 5546   4.029   2.535   9.154 -0.4466  0.7609 -0.1557
   42CHL1  H12B 5547   3.861   2.554   9.208 -0.0344  1.2772 -0.5501
   42CHL1   C11 5548   4.009   2.533   9.373 -0.5976  0.4072 -0.1693
   42CHL1  H11A 5549   4.110   2.487   9.382  0.5351  2.7482 -0.5195
   42CHL1  H11B 5550   4.026   2.641   9.394  0.1835  0.0388  1.1489
   42CHL1    C9 5551   3.923   2.481   9.491  0.4891 -0.2624 -0.7990
   42CHL1    H9 5552   3.821   2.522   9.476  0.1372 -0.4577  0.9027
   42CHL1   C10 5553   3.980   2.518   9.632 -0.4552 -0.1059  0.2206
   42CHL1   C19 5554   4.133   2.501   9.642 -0.2642 -0.4156 -0.2203
   42CHL1  H19A 5555   4.182   2.515   9.741  1.7626  0.5204 -1.3299
   42CHL1  H19B 5556   4.155   2.407   9.587  0.1168 -0.1155 -0.5796
   42CHL1  H19C 5557   4.172   2.583   9.579 -2.3905 -2.8278 -4.8527
   42CHL1    C1 5558   3.952   2.669   9.670 -0.4307  0.5770 -0.0128
   42CHL1   H1A 5559   4.020   2.733   9.610  1.6910 -1.3805  0.2320
   42CHL1   H1B 5560   3.844   2.683   9.649 -0.1821  1.4277 -0.7614
   42CHL1    C2 5561   3.979   2.702   9.821  0.6211 -0.4786 -0.3141
   42CHL1   H2A 5562   3.960   2.811   9.832 -1.7611 -0.7351 -1.4693
   42CHL1   H2B 5563   4.087   2.683   9.839  1.0634  1.4374 -0.8004
   42CHL1   C20 5564   3.914   2.285   8.953  0.0439 -0.3807  0.1108
   42CHL1   H20 5565   3.986   2.201   8.956 -0.0357 -0.4577 -0.0948
   42CHL1   C21 5566   3.974   2.420   8.916  0.1089 -0.7376 -1.1842
   42CHL1  H21A 5567   4.070   2.430   8.972 -0.7637  1.1335  0.0255
   42CHL1  H21B 5568   3.911   2.505   8.950  0.1421 -0.7078 -1.1984
   42CHL1  H21C 5569   3.998   2.424   8.808  3.1364 -1.0982 -0.5889
   42CHL1   C22 5570   3.802   2.247   8.855 -0.4345  1.2442  0.1307
   42CHL1  H22A 5571   3.859   2.252   8.760  0.0721 -3.8647  0.0297
   42CHL1  H22B 5572   3.759   2.147   8.876 -1.0004  1.2533 -0.9723
   42CHL1   C23 5573   3.690   2.346   8.826 -0.1014 -0.0675 -0.1490
   42CHL1  H23A 5574   3.641   2.357   8.925  0.3506  3.1788 -0.2395
   42CHL1  H23B 5575   3.722   2.447   8.791 -3.3675  2.0930  2.7852
   42CHL1   C24 5576   3.585   2.301   8.719  0.2534 -0.3093  0.1733
   42CHL1  H24A 5577   3.547   2.198   8.733 -1.6623  0.4032  0.4289
   42CHL1  H24B 5578   3.498   2.370   8.732 -1.2381 -1.9901 -0.6941
   42CHL1   C25 5579   3.641   2.311   8.574 -0.7441  0.5139 -0.0815
   42CHL1   H25 5580   3.749   2.285   8.573 -1.2678 -1.9976  1.3498
   42CHL1   C26 5581   3.572   2.219   8.473  0.4137 -0.2562  0.0836
   42CHL1  H26A 5582   3.597   2.116   8.506 -0.2191 -0.3813  0.1738
   42CHL1  H26B 5583   3.462   2.223   8.491  0.3741 -4.2101  1.3004
   42CHL1  H26C 5584   3.602   2.228   8.367  1.1523 -2.0355  0.1177
   42CHL1   C27 5585   3.596   2.447   8.513  0.3355 -0.3568 -0.1090
   42CHL1  H27A 5586   3.642   2.473   8.415 -0.3757  1.6440  0.0714
   42CHL1  H27B 5587   3.485   2.452   8.505  0.1330 -0.6619  2.2764
   42CHL1  H27C 5588   3.641   2.528   8.574  2.1983 -1.2727 -0.2320
   43CHL1    C3 5589   4.438   2.224   9.968 -0.8131 -0.2840 -0.5298
   43CHL1    H3 5590   4.338   2.194   9.931 -1.0703  2.2666 -2.0719
   43CHL1    O3 5591   4.455   2.207  10.111 -0.6033  0.3182  0.4584
   43CHL1   H3' 5592   4.550   2.215  10.125 -0.1950 -2.4143 -0.3882
   43CHL1    C4 5593   4.554   2.137   9.895  0.0189 -0.1786  0.5774
   43CHL1   H4A 5594   4.650   2.171   9.940  0.5928 -1.1531  0.1000
   43CHL1   H4B 5595   4.541   2.034   9.936 -0.6519  0.3934  1.8382
   43CHL1    C5 5596   4.556   2.152   9.748 -0.0237 -0.1601  0.3035
   43CHL1    C6 5597   4.544   2.050   9.667  0.3957 -0.3613 -0.1590
   43CHL1    H6 5598   4.540   1.948   9.708  2.1720 -0.6807 -0.7381
   43CHL1    C7 5599   4.536   2.053   9.520 -0.1692  0.6200 -0.1271
   43CHL1   H7A 5600   4.606   1.974   9.487  0.5916  0.5420  1.5842
   43CHL1   H7B 5601   4.436   2.020   9.485 -0.8235  0.2096  2.0307
   43CHL1    C8 5602   4.574   2.190   9.459 -0.3915 -0.3109 -0.5340
   43CHL1    H8 5603   4.685   2.195   9.463 -0.5147  1.1742  2.5469
   43CHL1   C14 5604   4.510   2.203   9.324 -0.3443  0.1780 -0.2803
   43CHL1   H14 5605   4.399   2.205   9.335 -0.1090  0.7151  2.3877
   43CHL1   C15 5606   4.546   2.096   9.219 -0.1991  0.3890 -0.0170
   43CHL1  H15A 5607   4.656   2.082   9.210 -0.3305  0.6308 -2.2869
   43CHL1  H15B 5608   4.505   1.994   9.238 -0.8616  1.0221  2.1206
   43CHL1   C16 5609   4.489   2.154   9.088  0.3389 -0.0691 -0.7043
   43CHL1  H16A 5610   4.569   2.144   9.011  1.7538  0.2196  0.6944
   43CHL1  H16B 5611   4.398   2.105   9.046 -0.2919  0.6589 -0.1899
   43CHL1   C17 5612   4.461   2.307   9.112 -0.5111 -0.3589 -0.4398
   43CHL1   H17 5613   4.352   2.326   9.115 -0.3835  0.4608 -0.8811
   43CHL1   C13 5614   4.535   2.338   9.248  0.0652  0.2402 -0.4458
   43CHL1   C18 5615   4.686   2.353   9.223 -0.5494  0.4117  0.0533
   43CHL1  H18A 5616   4.736   2.280   9.155 -0.4180  1.0913 -0.5795
   43CHL1  H18B 5617   4.713   2.453   9.183  1.3692 -0.8052 -1.7894
   43CHL1  H18C 5618   4.743   2.344   9.317  1.0138  1.3762 -0.7885
   43CHL1   C12 5619   4.478   2.453   9.347 -0.4456 -0.9154  0.1017
   43CHL1  H12A 5620   4.507   2.551   9.303  0.6854 -0.1333  2.4874
   43CHL1  H12B 5621   4.367   2.449   9.346 -0.4413 -0.9286 -0.5608
   43CHL1   C11 5622   4.538   2.445   9.486  0.6546  0.9175  0.3364
   43CHL1  H11A 5623   4.643   2.477   9.473  1.0065  0.4797  2.0419
   43CHL1  H11B 5624   4.493   2.523   9.550 -1.3059  0.7514 -0.7933
   43CHL1    C9 5625   4.522   2.309   9.551 -0.2050  0.4062 -0.3016
   43CHL1    H9 5626   4.412   2.294   9.541  0.1055 -2.0159 -0.4096
   43CHL1   C10 5627   4.561   2.298   9.700  0.2318 -0.6602  0.1490
   43CHL1   C19 5628   4.706   2.349   9.721  0.4029  0.5435  0.1329
   43CHL1  H19A 5629   4.718   2.370   9.830 -1.3741 -0.3107  0.5092
   43CHL1  H19B 5630   4.776   2.279   9.672 -1.0152 -1.5154  0.9700
   43CHL1  H19C 5631   4.726   2.440   9.660  0.9238  0.5561  0.3184
   43CHL1    C1 5632   4.456   2.386   9.782 -0.2769  0.4040  0.3368
   43CHL1   H1A 5633   4.472   2.491   9.752 -1.0219  0.2184 -0.7208
   43CHL1   H1B 5634   4.358   2.351   9.742  0.2216 -0.9846  0.2902
   43CHL1    C2 5635   4.471   2.373   9.933  0.0752  0.1401  0.1113
   43CHL1   H2A 5636   4.395   2.429   9.992 -0.6677 -2.1535  1.3931
   43CHL1   H2B 5637   4.571   2.406   9.967  0.5922 -0.8382 -0.4854
   43CHL1   C20 5638   4.508   2.394   8.993  0.3212  0.1816  0.1792
   43CHL1   H20 5639   4.618   2.394   8.978  0.4012 -0.3600  0.7693
   43CHL1   C21 5640   4.454   2.536   9.028 -0.5400 -0.0468 -0.9936
   43CHL1  H21A 5641   4.351   2.521   9.067 -0.4838 -0.8797 -1.1503
   43CHL1  H21B 5642   4.451   2.601   8.939 -1.5388  1.1561 -0.1077
   43CHL1  H21C 5643   4.517   2.581   9.108 -1.3656 -3.6166  1.7951
   43CHL1   C22 5644   4.446   2.339   8.865  0.6990  0.0164 -0.0562
   43CHL1  H22A 5645   4.487   2.237   8.855 -0.7667 -0.9971  3.5266
   43CHL1  H22B 5646   4.339   2.315   8.877  0.2230  1.2731 -1.5378
   43CHL1   C23 5647   4.472   2.411   8.733 -0.7036  0.1156  0.3155
   43CHL1  H23A 5648   4.406   2.500   8.724 -2.8462 -1.6065 -1.7659
   43CHL1  H23B 5649   4.574   2.454   8.733 -1.4388  1.9286 -2.1112
   43CHL1   C24 5650   4.453   2.323   8.613 -0.1004  0.6277 -0.2819
   43CHL1  H24A 5651   4.499   2.368   8.523 -0.6182 -0.7231 -1.2460
   43CHL1  H24B 5652   4.500   2.223   8.626  0.7325  1.0841  0.2494
   43CHL1   C25 5653   4.303   2.299   8.567 -1.1720  0.1354 -0.0251
   43CHL1   H25 5654   4.259   2.258   8.660 -1.5349 -1.8364 -1.0608
   43CHL1   C26 5655   4.221   2.425   8.527  0.0236  0.0100 -0.3308
   43CHL1  H26A 5656   4.261   2.487   8.443 -0.0812  1.3039  0.5589
   43CHL1  H26B 5657   4.118   2.390   8.509  0.6624 -2.6028  0.9369
   43CHL1  H26C 5658   4.213   2.499   8.610  0.5235  0.9083 -1.0645
   43CHL1   C27 5659   4.298   2.208   8.448  1.0110  0.1766  0.0608
   43CHL1  H27A 5660   4.194   2.178   8.425  0.9863  0.3436 -0.0462
   43CHL1  H27B 5661   4.323   2.257   8.352 -0.7126 -1.9360 -1.5326
   43CHL1  H27C 5662   4.366   2.122   8.468  2.4155  1.4309  0.7444
   44CHL1    C3 5663   5.122   2.596  10.137 -0.5988  0.3137 -0.8419
   44CHL1    H3 5664   5.143   2.496  10.094 -0.0668 -0.3823  0.9651
   44CHL1    O3 5665   5.162   2.592  10.275 -0.1814 -0.1184 -0.1980
   44CHL1   H3' 5666   5.138   2.676  10.315  0.7134  0.8498 -1.6338
   44CHL1    C4 5667   5.205   2.695  10.059 -0.3699  0.3098  0.4556
   44CHL1   H4A 5668   5.191   2.794  10.108  0.5815 -0.2627  1.9106
   44CHL1   H4B 5669   5.311   2.666  10.067 -0.6460 -0.7443  0.3298
   44CHL1    C5 5670   5.164   2.698   9.910  0.3024  0.2688 -0.4132
   44CHL1    C6 5671   5.257   2.677   9.816 -0.0278  0.1467  0.9205
   44CHL1    H6 5672   5.361   2.673   9.850 -1.1460 -0.2077  4.4220
   44CHL1    C7 5673   5.232   2.698   9.674 -0.0913  0.4468  0.1483
   44CHL1   H7A 5674   5.306   2.767   9.628 -2.3852  0.4090 -3.8908
   44CHL1   H7B 5675   5.231   2.599   9.622 -1.3138  0.8198 -0.5483
   44CHL1    C8 5676   5.084   2.760   9.647  0.4085 -0.2304 -0.1171
   44CHL1    H8 5677   5.093   2.869   9.666  1.2207 -0.5945  1.6559
   44CHL1   C14 5678   5.045   2.745   9.499  0.2848  0.0190 -0.1755
   44CHL1   H14 5679   5.037   2.640   9.464 -0.2852  0.4381 -1.3549
   44CHL1   C15 5680   5.149   2.805   9.397  0.1997  0.2875 -0.4847
   44CHL1  H15A 5681   5.180   2.901   9.444 -0.8008  0.1996  0.3831
   44CHL1  H15B 5682   5.239   2.740   9.398  0.0089 -0.0181  2.3432
   44CHL1   C16 5683   5.073   2.822   9.268 -0.8092 -0.6359 -0.3010
   44CHL1  H16A 5684   5.071   2.933   9.254  3.1316 -0.3799  0.3782
   44CHL1  H16B 5685   5.115   2.768   9.180 -1.3241  1.0660 -1.6217
   44CHL1   C17 5686   4.922   2.777   9.305  0.5399 -0.3372 -0.0483
   44CHL1   H17 5687   4.905   2.668   9.290 -0.5037 -0.2525  0.4632
   44CHL1   C13 5688   4.910   2.800   9.458  0.6914  0.9662  0.3925
   44CHL1   C18 5689   4.894   2.950   9.480 -0.1855  0.0380  0.1964
   44CHL1  H18A 5690   4.905   2.973   9.588 -1.1772  0.4955  0.2124
   44CHL1  H18B 5691   4.970   3.012   9.429  0.9146 -2.1846 -0.8974
   44CHL1  H18C 5692   4.789   2.979   9.457 -0.6707 -0.7599  1.3374
   44CHL1   C12 5693   4.805   2.724   9.541  0.8722 -0.3513  0.1225
   44CHL1  H12A 5694   4.706   2.774   9.528  0.8298  0.1709  2.2843
   44CHL1  H12B 5695   4.808   2.621   9.499 -2.4031  0.6335 -2.7585
   44CHL1   C11 5696   4.832   2.714   9.693 -0.0478 -0.4333 -0.3630
   44CHL1  H11A 5697   4.793   2.815   9.721 -3.6773 -1.6236 -0.8886
   44CHL1  H11B 5698   4.764   2.643   9.744  0.8521 -2.0347 -1.3696
   44CHL1    C9 5699   4.980   2.690   9.735  0.3315  0.4102  0.7418
   44CHL1    H9 5700   4.990   2.580   9.720  2.9215  0.8831 -1.5923
   44CHL1   C10 5701   5.013   2.719   9.883  0.4922 -0.2049 -0.1121
   44CHL1   C19 5702   4.963   2.865   9.909 -0.7546 -0.2265 -0.4175
   44CHL1  H19A 5703   4.989   2.879  10.016 -0.7755 -1.1480 -0.2908
   44CHL1  H19B 5704   5.018   2.941   9.850  0.5747  0.0701  1.1447
   44CHL1  H19C 5705   4.854   2.881   9.897 -1.0520 -1.6127  0.3178
   44CHL1    C1 5706   4.947   2.602   9.967  0.0103 -0.0013 -0.2690
   44CHL1   H1A 5707   4.841   2.606   9.935  0.4733 -2.2019 -2.1841
   44CHL1   H1B 5708   4.986   2.505   9.930  0.0257 -0.6844  1.4775
   44CHL1    C2 5709   4.971   2.608  10.115 -0.1087  0.3857 -0.1394
   44CHL1   H2A 5710   4.925   2.522  10.169 -0.9753  0.6621 -0.4241
   44CHL1   H2B 5711   4.931   2.702  10.158 -0.9207  0.8219 -1.7828
   44CHL1   C20 5712   4.828   2.847   9.210 -0.3213  0.0272 -0.4243
   44CHL1   H20 5713   4.816   2.956   9.228  0.4047 -0.0327  0.4289
   44CHL1   C21 5714   4.698   2.772   9.225  0.2287 -0.2248  0.6640
   44CHL1  H21A 5715   4.634   2.809   9.142 -1.4926  0.0852  2.1074
   44CHL1  H21B 5716   4.643   2.807   9.314 -1.0694  0.3914 -0.3747
   44CHL1  H21C 5717   4.708   2.662   9.216 -0.4658 -0.2036 -0.4771
   44CHL1   C22 5718   4.874   2.841   9.058 -0.3277  0.0375  0.4271
   44CHL1  H22A 5719   4.803   2.893   8.989  1.5550 -0.6659 -2.1217
   44CHL1  H22B 5720   4.959   2.911   9.045 -0.8386  0.4805 -0.7063
   44CHL1   C23 5721   4.890   2.708   8.996 -0.7422  1.0946 -0.5297
   44CHL1  H23A 5722   4.973   2.658   9.049 -0.0723  0.1403 -2.4384
   44CHL1  H23B 5723   4.794   2.652   9.003  0.0166 -0.0076  1.1473
   44CHL1   C24 5724   4.937   2.713   8.852 -0.0902 -0.1519  0.3058
   44CHL1  H24A 5725   5.039   2.758   8.849 -0.7889  1.5582  1.9076
   44CHL1  H24B 5726   4.964   2.612   8.815  1.4101  0.6763 -0.9165
   44CHL1   C25 5727   4.844   2.786   8.748  0.3204 -0.0045 -0.0902
   44CHL1   H25 5728   4.838   2.889   8.787  0.0194  0.5720 -1.6444
   44CHL1   C26 5729   4.905   2.794   8.605 -0.5315 -0.0747 -0.2563
   44CHL1  H26A 5730   5.009   2.833   8.612 -1.0732  1.4944 -0.8887
   44CHL1  H26B 5731   4.899   2.690   8.568  1.7755 -1.4808  3.0259
   44CHL1  H26C 5732   4.844   2.864   8.545  0.0092 -0.1929 -0.9461
   44CHL1   C27 5733   4.698   2.732   8.745 -0.4535  0.1702  0.8907
   44CHL1  H27A 5734   4.644   2.744   8.841 -2.1402  0.3651 -0.0641
   44CHL1  H27B 5735   4.650   2.792   8.666 -2.1527 -2.6034 -0.2593
   44CHL1  H27C 5736   4.695   2.625   8.716 -1.3419  0.3517  0.2993
   45CHL1    C3 5737   1.483   1.640  10.137 -0.6153  0.3954  0.5349
   45CHL1    H3 5738   1.593   1.628  10.131 -0.7482 -2.2298  2.5525
   45CHL1    O3 5739   1.429   1.656  10.269  0.9666 -0.2488 -0.6827
   45CHL1   H3' 5740   1.343   1.699  10.257 -0.3057 -1.4398  3.3019
   45CHL1    C4 5741   1.456   1.766  10.048  0.6036 -0.1358 -0.2661
   45CHL1   H4A 5742   1.350   1.798  10.055  0.4562  0.5004 -4.1169
   45CHL1   H4B 5743   1.515   1.844  10.100  0.4459 -0.3575  0.2470
   45CHL1    C5 5744   1.478   1.758   9.902  0.1053 -0.1461 -0.3815
   45CHL1    C6 5745   1.554   1.848   9.837  0.0528  0.9060 -0.2791
   45CHL1    H6 5746   1.593   1.932   9.896  0.6616  0.1390  0.4264
   45CHL1    C7 5747   1.574   1.834   9.687 -0.6932 -0.3628 -0.2875
   45CHL1   H7A 5748   1.533   1.926   9.640 -1.2341 -0.6461 -0.3707
   45CHL1   H7B 5749   1.679   1.842   9.652 -0.7507  1.8318 -0.0636
   45CHL1    C8 5750   1.516   1.712   9.612 -0.2337 -0.5955 -0.1193
   45CHL1    H8 5751   1.602   1.692   9.544 -0.8331 -0.5204 -0.8994
   45CHL1   C14 5752   1.400   1.741   9.521  0.2214 -0.6991  0.1347
   45CHL1   H14 5753   1.312   1.783   9.574  1.0811  1.5412 -0.1540
   45CHL1   C15 5754   1.439   1.829   9.406  0.5574  0.5009 -0.1559
   45CHL1  H15A 5755   1.365   1.908   9.383 -1.6795 -1.2503  0.8561
   45CHL1  H15B 5756   1.529   1.887   9.435  0.4263  0.5196  0.2179
   45CHL1   C16 5757   1.468   1.738   9.284 -0.4507 -0.5161 -0.7657
   45CHL1  H16A 5758   1.396   1.784   9.212  1.5766  1.7422 -1.4136
   45CHL1  H16B 5759   1.572   1.741   9.245  0.6623  1.1396  2.2068
   45CHL1   C17 5760   1.431   1.595   9.327  0.8599  0.0676  0.9028
   45CHL1   H17 5761   1.527   1.559   9.369  0.5999 -0.4619  1.0542
   45CHL1   C13 5762   1.336   1.611   9.450  0.2465 -0.4583 -0.4235
   45CHL1   C18 5763   1.189   1.652   9.407  0.4783  0.9810  0.2341
   45CHL1  H18A 5764   1.200   1.731   9.329  0.7503  0.2036 -0.5291
   45CHL1  H18B 5765   1.139   1.556   9.382  0.2017  1.3567 -0.6719
   45CHL1  H18C 5766   1.127   1.701   9.484 -1.3867 -0.1700 -0.5129
   45CHL1   C12 5767   1.327   1.485   9.541  0.5092  0.6210  0.4500
   45CHL1  H12A 5768   1.228   1.493   9.591  0.2579  3.0637 -0.3734
   45CHL1  H12B 5769   1.318   1.395   9.476 -0.1460  1.0478 -0.0509
   45CHL1   C11 5770   1.448   1.464   9.631  0.8295 -0.1347  0.5498
   45CHL1  H11A 5771   1.433   1.384   9.706 -1.7240 -0.5087 -0.2832
   45CHL1  H11B 5772   1.531   1.440   9.561  0.1053  1.8647 -1.0642
   45CHL1    C9 5773   1.488   1.593   9.702  0.0136  0.5287 -0.2942
   45CHL1    H9 5774   1.590   1.563   9.734 -0.2541 -1.4192 -1.1917
   45CHL1   C10 5775   1.420   1.633   9.838  0.9110  0.2438  0.5285
   45CHL1   C19 5776   1.263   1.645   9.830 -0.0887 -0.6902 -0.0137
   45CHL1  H19A 5777   1.231   1.722   9.756  2.8828  0.3183 -0.3304
   45CHL1  H19B 5778   1.221   1.548   9.796 -0.7983  0.0682 -1.3719
   45CHL1  H19C 5779   1.224   1.694   9.921  0.0141  1.4436 -1.0747
   45CHL1    C1 5780   1.438   1.500   9.926 -0.0188 -0.0296  0.4533
   45CHL1   H1A 5781   1.370   1.428   9.877  1.6345 -2.0390  1.0714
   45CHL1   H1B 5782   1.546   1.473   9.924  0.8036  2.9988  0.4504
   45CHL1    C2 5783   1.414   1.519  10.074 -0.4599  0.8577  0.2956
   45CHL1   H2A 5784   1.441   1.430  10.136  0.8324  1.2225  0.2594
   45CHL1   H2B 5785   1.304   1.530  10.082 -0.5528  0.4452 -0.3422
   45CHL1   C20 5786   1.376   1.505   9.217  0.7758 -0.1138  0.0289
   45CHL1   H20 5787   1.268   1.491   9.235  0.7687  0.8700  0.7521
   45CHL1   C21 5788   1.447   1.369   9.227 -0.6801  0.2128 -0.1500
   45CHL1  H21A 5789   1.558   1.359   9.224 -0.7967 -1.2155  0.1266
   45CHL1  H21B 5790   1.409   1.301   9.147  0.7313 -2.2241  1.1907
   45CHL1  H21C 5791   1.419   1.333   9.328 -2.2559  1.1984 -0.2224
   45CHL1   C22 5792   1.397   1.555   9.067  0.6848  0.5062 -0.2482
   45CHL1  H22A 5793   1.330   1.643   9.053  1.0182  0.7968 -0.0080
   45CHL1  H22B 5794   1.502   1.586   9.051  0.6460 -0.0666 -1.6404
   45CHL1   C23 5795   1.344   1.465   8.953 -0.1127 -0.7358 -0.6345
   45CHL1  H23A 5796   1.416   1.384   8.928  1.4476  0.3451  0.2517
   45CHL1  H23B 5797   1.246   1.419   8.978 -0.3919  0.5275  0.6584
   45CHL1   C24 5798   1.320   1.544   8.824 -0.4678 -0.1090 -0.1736
   45CHL1  H24A 5799   1.286   1.475   8.744  1.5459 -1.1944 -0.1573
   45CHL1  H24B 5800   1.234   1.612   8.841 -0.8567 -0.1662 -1.8468
   45CHL1   C25 5801   1.432   1.631   8.771  0.3229 -0.4989 -0.3834
   45CHL1   H25 5802   1.463   1.697   8.855 -3.1884 -0.6361  1.1121
   45CHL1   C26 5803   1.549   1.548   8.719  0.3063  0.6046 -0.0893
   45CHL1  H26A 5804   1.609   1.610   8.649 -0.7738  1.9130  0.1111
   45CHL1  H26B 5805   1.605   1.505   8.804 -0.5740 -1.1445 -0.3722
   45CHL1  H26C 5806   1.508   1.472   8.650  0.1187 -0.4327  1.1474
   45CHL1   C27 5807   1.370   1.724   8.664 -0.0428  0.4713 -0.1664
   45CHL1  H27A 5808   1.316   1.656   8.596  0.9169 -0.1649 -0.3034
   45CHL1  H27B 5809   1.296   1.792   8.712 -0.2082 -0.5492  1.0309
   45CHL1  H27C 5810   1.439   1.800   8.620 -0.5958  0.8213 -0.4401
   46CHL1    C3 5811   4.265   5.817  10.208  0.8011  0.1371  0.2658
   46CHL1    H3 5812   4.228   5.714  10.187  0.9127  0.7381 -3.1919
   46CHL1    O3 5813   4.279   5.828  10.345 -0.2446 -0.2121 -0.0183
   46CHL1   H3' 5814   4.296   5.920  10.368  0.4932 -0.6712  1.3582
   46CHL1    C4 5815   4.389   5.848  10.126 -0.4806  0.3372  0.3764
   46CHL1   H4A 5816   4.414   5.956  10.132 -0.0526  0.0863  3.7886
   46CHL1   H4B 5817   4.476   5.788  10.161  0.4488  0.5169 -1.5286
   46CHL1    C5 5818   4.360   5.814   9.974 -0.4008 -0.0988 -0.5124
   46CHL1    C6 5819   4.438   5.721   9.911  0.0095  0.9592  0.6516
   46CHL1    H6 5820   4.522   5.676   9.966  3.3213  3.2218 -2.3339
   46CHL1    C7 5821   4.413   5.695   9.762 -0.3608  0.4289 -0.3771
   46CHL1   H7A 5822   4.508   5.688   9.704  0.1098 -2.3482  0.6521
   46CHL1   H7B 5823   4.365   5.596   9.752  0.6876 -0.3875  2.2364
   46CHL1    C8 5824   4.329   5.806   9.693 -0.5295 -0.1979 -0.4976
   46CHL1    H8 5825   4.401   5.889   9.676 -0.9083  0.6866  2.0976
   46CHL1   C14 5826   4.285   5.750   9.561  0.0116  0.2583  0.4483
   46CHL1   H14 5827   4.221   5.663   9.585 -0.2065 -0.0815 -1.3095
   46CHL1   C15 5828   4.399   5.699   9.469  0.2357  0.3060  0.5132
   46CHL1  H15A 5829   4.482   5.773   9.482  1.3723 -0.7128 -0.7815
   46CHL1  H15B 5830   4.423   5.592   9.485 -2.0532  0.2305  3.7757
   46CHL1   C16 5831   4.342   5.705   9.322  0.3061 -0.5383 -0.0659
   46CHL1  H16A 5832   4.396   5.788   9.272  0.6166 -0.3918  0.5145
   46CHL1  H16B 5833   4.349   5.612   9.262 -1.1173  0.3663 -1.6761
   46CHL1   C17 5834   4.195   5.759   9.337 -0.0320  0.1634  0.5859
   46CHL1   H17 5835   4.135   5.671   9.371  0.6789 -1.0282 -1.1486
   46CHL1   C13 5836   4.203   5.843   9.474  0.3145 -0.0759 -0.0906
   46CHL1   C18 5837   4.290   5.972   9.435  0.1701 -0.0663 -0.1829
   46CHL1  H18A 5838   4.370   5.944   9.364  0.3203 -1.0686  0.3693
   46CHL1  H18B 5839   4.214   6.040   9.391 -0.5735  0.3549  1.6618
   46CHL1  H18C 5840   4.327   6.028   9.524  1.8852 -1.9003  0.2984
   46CHL1   C12 5841   4.075   5.883   9.555 -0.4766  0.5692  0.1150
   46CHL1  H12A 5842   4.025   5.959   9.491  2.0574 -1.8255 -5.0181
   46CHL1  H12B 5843   4.003   5.799   9.564 -3.4462  2.9048 -0.8611
   46CHL1   C11 5844   4.111   5.937   9.693  0.4619 -1.2612  0.1214
   46CHL1  H11A 5845   4.163   6.033   9.671 -0.3062 -1.2414 -1.7032
   46CHL1  H11B 5846   4.021   5.956   9.757  0.7427 -0.8066  0.3825
   46CHL1    C9 5847   4.210   5.852   9.777  0.7165  0.8812  0.3279
   46CHL1    H9 5848   4.170   5.749   9.786 -1.2614  1.2213 -3.5352
   46CHL1   C10 5849   4.248   5.902   9.912  0.3447 -0.5601 -0.2585
   46CHL1   C19 5850   4.300   6.050   9.900  0.0998  0.1333 -0.4646
   46CHL1  H19A 5851   4.326   6.078  10.005 -0.4873 -0.3459 -0.1916
   46CHL1  H19B 5852   4.396   6.052   9.843  0.4073  1.0575  0.0737
   46CHL1  H19C 5853   4.228   6.114   9.845 -0.0926  0.6938  0.4286
   46CHL1    C1 5854   4.120   5.892  10.005  0.4307 -0.5743 -0.0028
   46CHL1   H1A 5855   4.041   5.963   9.970 -0.2470 -0.6218  1.3973
   46CHL1   H1B 5856   4.071   5.793   9.996 -0.3355 -0.2589  0.7103
   46CHL1    C2 5857   4.155   5.909  10.162  0.3350  0.9375 -0.1536
   46CHL1   H2A 5858   4.069   5.873  10.223  0.7279 -4.4561 -2.5345
   46CHL1   H2B 5859   4.188   6.013  10.178 -1.9922  1.6049  0.6041
   46CHL1   C20 5860   4.127   5.808   9.202 -0.0562  0.0582  0.5206
   46CHL1   H20 5861   4.135   5.919   9.202  0.9299  0.0069 -1.7746
   46CHL1   C21 5862   3.981   5.771   9.223 -0.5090 -0.1449 -0.5845
   46CHL1  H21A 5863   3.944   5.793   9.325  0.1256 -1.5942 -0.0448
   46CHL1  H21B 5864   3.968   5.661   9.215  1.0450 -0.2937 -1.1460
   46CHL1  H21C 5865   3.927   5.836   9.150 -1.1893 -0.1502 -0.0911
   46CHL1   C22 5866   4.182   5.759   9.071 -0.0364  0.0058  0.6196
   46CHL1  H22A 5867   4.288   5.791   9.062 -0.0111 -0.4917 -0.8696
   46CHL1  H22B 5868   4.176   5.648   9.074 -1.5589  0.0897  1.1692
   46CHL1   C23 5869   4.107   5.797   8.945 -0.1832  0.0564 -0.1141
   46CHL1  H23A 5870   4.002   5.762   8.942 -0.8035  1.8777 -0.1523
   46CHL1  H23B 5871   4.107   5.906   8.927  1.3241  0.0536 -0.1703
   46CHL1   C24 5872   4.181   5.739   8.819 -0.0432 -0.0138 -0.2478
   46CHL1  H24A 5873   4.172   5.820   8.743  0.5870  0.3129  0.0261
   46CHL1  H24B 5874   4.291   5.729   8.829 -0.1045 -0.6663 -0.2374
   46CHL1   C25 5875   4.121   5.609   8.763 -0.5131 -0.1777  0.1215
   46CHL1   H25 5876   4.021   5.647   8.736 -0.1131  0.6477 -0.2045
   46CHL1   C26 5877   4.200   5.571   8.635  0.1172  0.5589  0.7179
   46CHL1  H26A 5878   4.302   5.547   8.672  0.5987  0.4723 -0.6149
   46CHL1  H26B 5879   4.151   5.480   8.596 -1.2709  0.8883  1.6633
   46CHL1  H26C 5880   4.203   5.647   8.554 -0.7633  2.2681  2.2566
   46CHL1   C27 5881   4.112   5.484   8.854 -0.0172 -0.3508 -0.8699
   46CHL1  H27A 5882   4.038   5.505   8.935 -1.0105 -1.4891 -1.4579
   46CHL1  H27B 5883   4.084   5.399   8.788  0.3402 -1.8202  0.8463
   46CHL1  H27C 5884   4.208   5.471   8.907 -0.7681  0.6317  0.7585
   47CHL1    C3 5885   5.129   2.084  10.002 -0.3119 -0.6408  0.6131
   47CHL1    H3 5886   5.083   1.985   9.984  1.5150 -1.7681  1.8806
   47CHL1    O3 5887   5.146   2.097  10.145  0.3138 -0.7974  0.0851
   47CHL1   H3' 5888   5.059   2.124  10.176  0.2554 -0.5222 -0.3105
   47CHL1    C4 5889   5.263   2.084   9.940  0.1111  0.3242  0.3433
   47CHL1   H4A 5890   5.315   2.176   9.975  0.1319  1.0842 -1.5990
   47CHL1   H4B 5891   5.326   2.000   9.975 -1.8316 -0.1513  2.8638
   47CHL1    C5 5892   5.258   2.090   9.784 -0.2002  0.7114 -0.5525
   47CHL1    C6 5893   5.331   2.004   9.714  0.6385 -0.1585  0.8059
   47CHL1    H6 5894   5.384   1.930   9.776  0.1224 -0.8828  0.3874
   47CHL1    C7 5895   5.343   2.007   9.565  0.1415 -0.5888 -0.5591
   47CHL1   H7A 5896   5.448   1.989   9.533  0.6755  0.4517  0.5965
   47CHL1   H7B 5897   5.277   1.926   9.526 -1.1496 -0.0227  0.4246
   47CHL1    C8 5898   5.304   2.147   9.509  0.4947  0.5560 -0.1459
   47CHL1    H8 5899   5.383   2.219   9.538  0.3102  0.0307  1.6716
   47CHL1   C14 5900   5.300   2.142   9.354  0.9222  0.2134 -0.4930
   47CHL1   H14 5901   5.227   2.066   9.321 -0.1898  0.7544  0.6792
   47CHL1   C15 5902   5.426   2.109   9.278  0.1150  0.3846  0.0711
   47CHL1  H15A 5903   5.499   2.177   9.327  1.0570 -0.7761  0.2968
   47CHL1  H15B 5904   5.456   2.003   9.293  1.7249  0.7178 -0.7310
   47CHL1   C16 5905   5.397   2.159   9.134 -0.3683  0.2349  0.1820
   47CHL1  H16A 5906   5.479   2.228   9.104  0.4652 -1.6182 -1.8816
   47CHL1  H16B 5907   5.377   2.078   9.061  1.2352  0.6397 -0.7425
   47CHL1   C17 5908   5.261   2.242   9.144  0.6100  0.0579 -0.4807
   47CHL1   H17 5909   5.179   2.172   9.114  0.7769  0.3605 -1.6721
   47CHL1   C13 5910   5.249   2.279   9.293  0.1543  0.0911  0.1671
   47CHL1   C18 5911   5.342   2.403   9.331  0.3114 -0.2696 -0.6088
   47CHL1  H18A 5912   5.307   2.479   9.258  1.5510 -0.7308 -1.7004
   47CHL1  H18B 5913   5.336   2.435   9.437  2.6473 -0.9962 -0.2257
   47CHL1  H18C 5914   5.448   2.380   9.309  0.0795 -1.7803 -0.1972
   47CHL1   C12 5915   5.108   2.296   9.350 -0.2878 -0.2875  0.3605
   47CHL1  H12A 5916   5.068   2.395   9.318 -0.3813  0.5750  2.9704
   47CHL1  H12B 5917   5.039   2.218   9.311 -1.8472  1.0160  0.4448
   47CHL1   C11 5918   5.093   2.293   9.505  0.3406 -0.0404  0.6993
   47CHL1  H11A 5919   5.137   2.391   9.535  0.9532 -0.5448  1.4771
   47CHL1  H11B 5920   4.987   2.287   9.538  0.2039 -1.0170  0.0938
   47CHL1    C9 5921   5.164   2.176   9.575 -0.4517  0.1080 -0.3458
   47CHL1    H9 5922   5.094   2.091   9.559 -0.8054  0.2764  0.2648
   47CHL1   C10 5923   5.172   2.197   9.727 -0.0943 -0.1972 -0.5799
   47CHL1   C19 5924   5.222   2.342   9.765  0.7049  0.2278 -0.4700
   47CHL1  H19A 5925   5.299   2.375   9.691  0.8152 -0.9777 -0.8951
   47CHL1  H19B 5926   5.145   2.416   9.734  0.7276 -0.8019 -3.1437
   47CHL1  H19C 5927   5.244   2.370   9.870  1.8754  1.3253 -0.9909
   47CHL1    C1 5928   5.033   2.180   9.793 -0.3488 -0.2011 -1.0095
   47CHL1   H1A 5929   4.973   2.265   9.753 -0.3246  1.1033  1.6084
   47CHL1   H1B 5930   4.986   2.087   9.754  2.4774 -2.0774 -0.0829
   47CHL1    C2 5931   5.019   2.181   9.945  0.7877  0.3049 -0.2428
   47CHL1   H2A 5932   4.919   2.137   9.967  1.1640 -0.6559 -0.4336
   47CHL1   H2B 5933   5.033   2.282   9.988  0.0112  0.5822 -0.6438
   47CHL1   C20 5934   5.259   2.350   9.039 -0.0467  0.2834 -0.1396
   47CHL1   H20 5935   5.344   2.416   9.068  0.6946 -0.5645 -0.3568
   47CHL1   C21 5936   5.128   2.424   9.054  0.7116  0.4713  0.0770
   47CHL1  H21A 5937   5.111   2.503   8.978 -1.9028  0.6147  0.7704
   47CHL1  H21B 5938   5.131   2.486   9.146  0.3455 -0.4605  0.7223
   47CHL1  H21C 5939   5.035   2.362   9.047  2.2425 -1.7225 -1.8100
   47CHL1   C22 5940   5.286   2.291   8.897  0.1898 -0.5904  0.6012
   47CHL1  H22A 5941   5.389   2.248   8.897 -0.0144 -1.1055 -0.7574
   47CHL1  H22B 5942   5.213   2.208   8.889  0.0521 -0.4200  0.0488
   47CHL1   C23 5943   5.280   2.384   8.770 -0.2506 -0.7546  0.3508
   47CHL1  H23A 5944   5.185   2.441   8.762 -0.8292 -1.6776  0.6339
   47CHL1  H23B 5945   5.360   2.458   8.797  1.3661 -1.4678 -2.3305
   47CHL1   C24 5946   5.314   2.317   8.645  0.3979  0.3524  0.7643
   47CHL1  H24A 5947   5.254   2.224   8.650  1.7657 -0.5746  0.1289
   47CHL1  H24B 5948   5.262   2.379   8.569  2.2421  2.5837  1.2704
   47CHL1   C25 5949   5.461   2.283   8.610  0.0432 -0.2887  0.2014
   47CHL1   H25 5950   5.502   2.250   8.708 -0.8817  2.3638  1.5283
   47CHL1   C26 5951   5.479   2.168   8.509 -0.4731 -0.4715 -0.5744
   47CHL1  H26A 5952   5.429   2.080   8.553 -0.7832  0.4551  0.9773
   47CHL1  H26B 5953   5.586   2.155   8.481  0.2048  3.0892  0.1196
   47CHL1  H26C 5954   5.428   2.195   8.415  1.6212  0.8413 -1.3844
   47CHL1   C27 5955   5.546   2.410   8.586  0.9616 -0.3190 -0.6383
   47CHL1  H27A 5956   5.538   2.446   8.481  2.6894  0.7691 -0.4192
   47CHL1  H27B 5957   5.516   2.485   8.661 -0.0918 -0.0470 -1.3224
   47CHL1  H27C 5958   5.656   2.393   8.596  0.8741  0.2723  1.3578
   48CHL1    C3 5959   5.970   3.161  10.102 -0.6211 -0.1820 -0.3081
   48CHL1    H3 5960   5.863   3.186  10.087 -0.5780 -0.4020 -0.9695
   48CHL1    O3 5961   6.005   3.132  10.237  0.5342 -0.5542 -0.2248
   48CHL1   H3' 5962   6.099   3.114  10.226  0.5573  0.3487 -1.5394
   48CHL1    C4 5963   6.005   3.038  10.018 -0.3580  0.1639 -0.2956
   48CHL1   H4A 5964   6.106   3.000  10.045 -1.0759 -1.5181  0.1142
   48CHL1   H4B 5965   5.943   2.955  10.058 -1.6597  1.4803  0.4733
   48CHL1    C5 5966   5.990   3.059   9.872  0.1044  0.4111 -0.4986
   48CHL1    C6 5967   5.908   2.976   9.798 -0.3358 -0.3548 -0.2549
   48CHL1    H6 5968   5.873   2.878   9.835  1.4628 -0.4763  1.2157
   48CHL1    C7 5969   5.894   2.991   9.650  0.1701  0.0896  0.0983
   48CHL1   H7A 5970   5.921   2.892   9.607  2.1424 -0.0059  1.4615
   48CHL1   H7B 5971   5.791   3.027   9.629  0.7489  0.3135 -2.4844
   48CHL1    C8 5972   5.995   3.081   9.592  0.1861  0.4777 -0.5815
   48CHL1    H8 5973   6.097   3.038   9.579  0.8351  1.5124  1.0213
   48CHL1   C14 5974   5.955   3.118   9.452 -0.8800  0.0521  0.1678
   48CHL1   H14 5975   5.854   3.162   9.461 -2.0730 -2.2439 -1.4919
   48CHL1   C15 5976   5.930   3.000   9.360  0.4174  0.0129 -0.1371
   48CHL1  H15A 5977   6.014   2.930   9.377  0.5515 -0.3541 -2.1388
   48CHL1  H15B 5978   5.832   2.957   9.388  0.1763  0.5071 -0.2033
   48CHL1   C16 5979   5.955   3.046   9.209 -0.4821 -0.0404  0.6634
   48CHL1  H16A 5980   6.038   2.982   9.174 -0.2099  1.4541 -1.4953
   48CHL1  H16B 5981   5.867   3.030   9.142  1.0755  0.4882 -1.5476
   48CHL1   C17 5982   5.990   3.200   9.234 -0.1988  0.1079 -0.1936
   48CHL1   H17 5983   5.894   3.256   9.236 -1.7714 -2.2750 -4.1878
   48CHL1   C13 5984   6.044   3.209   9.376  0.1019 -0.2308  0.1015
   48CHL1   C18 5985   6.194   3.152   9.376 -0.2322  0.3351  1.1095
   48CHL1  H18A 5986   6.236   3.170   9.477 -1.5447  0.3893  1.6535
   48CHL1  H18B 5987   6.202   3.048   9.338  1.3204  0.4835  0.9984
   48CHL1  H18C 5988   6.263   3.219   9.321  1.0556 -0.2865  1.9400
   48CHL1   C12 5989   6.030   3.342   9.453  0.6139  0.0656  0.0978
   48CHL1  H12A 5990   6.099   3.421   9.416  0.9904 -0.8202 -1.1197
   48CHL1  H12B 5991   5.926   3.383   9.449  0.3728 -0.6224 -1.0596
   48CHL1   C11 5992   6.061   3.332   9.606  0.5951  0.4103 -0.2583
   48CHL1  H11A 5993   6.171   3.321   9.615  0.4216 -1.0667  0.2403
   48CHL1  H11B 5994   6.036   3.424   9.662  0.7822  2.3956 -3.2802
   48CHL1    C9 5995   5.999   3.212   9.680  0.2814 -0.8183 -0.6596
   48CHL1    H9 5996   5.892   3.234   9.697  0.1749 -2.2699  0.6589
   48CHL1   C10 5997   6.050   3.188   9.822 -0.3065 -0.1273 -0.6961
   48CHL1   C19 5998   6.207   3.175   9.825  0.4666 -0.2443 -0.8133
   48CHL1  H19A 5999   6.253   3.137   9.918 -0.6608  0.3005 -0.0353
   48CHL1  H19B 6000   6.247   3.123   9.735  0.1384  0.4681 -1.3797
   48CHL1  H19C 6001   6.249   3.277   9.814  2.1253 -0.7890  0.3017
   48CHL1    C1 6002   6.010   3.307   9.917  0.6901 -0.4675  0.5988
   48CHL1   H1A 6003   6.047   3.405   9.881  1.2959 -0.0369  2.3605
   48CHL1   H1B 6004   5.899   3.308   9.908  0.5648 -1.0241  1.9285
   48CHL1    C2 6005   6.047   3.281  10.065 -0.0653  0.0006  0.4937
   48CHL1   H2A 6006   6.031   3.369  10.131  4.5031  2.7460 -1.7844
   48CHL1   H2B 6007   6.156   3.259  10.071 -0.3366 -1.0199  2.2358
   48CHL1   C20 6008   6.082   3.255   9.123  0.1523  0.5077 -0.0164
   48CHL1   H20 6009   6.188   3.223   9.136  0.3850  0.7502 -1.2158
   48CHL1   C21 6010   6.094   3.410   9.132 -0.0396 -0.6910  0.2395
   48CHL1  H21A 6011   5.994   3.455   9.151 -0.1175 -0.4983 -0.6079
   48CHL1  H21B 6012   6.127   3.454   9.035  1.1157  3.3255  2.3662
   48CHL1  H21C 6013   6.160   3.440   9.216 -1.3715  3.1175  0.0008
   48CHL1   C22 6014   6.042   3.204   8.979  0.1751  0.3661 -0.5692
   48CHL1  H22A 6015   6.132   3.231   8.919  2.3794 -0.4792  2.2642
   48CHL1  H22B 6016   6.038   3.093   8.985  2.5121  0.2442 -0.8849
   48CHL1   C23 6017   5.911   3.261   8.927 -0.7466 -0.2538 -0.7393
   48CHL1  H23A 6018   5.830   3.245   9.000 -2.5514 -1.7185 -2.9648
   48CHL1  H23B 6019   5.913   3.369   8.902 -0.6749 -0.2184 -0.5783
   48CHL1   C24 6020   5.857   3.176   8.803  0.0650 -0.3528 -0.1800
   48CHL1  H24A 6021   5.938   3.170   8.727 -0.5053  0.2839 -0.8575
   48CHL1  H24B 6022   5.856   3.072   8.840  3.3635  0.0826  1.2571
   48CHL1   C25 6023   5.719   3.214   8.755  0.1317  0.2435  0.1003
   48CHL1   H25 6024   5.707   3.187   8.647 -0.2857  1.0981 -0.0659
   48CHL1   C26 6025   5.600   3.139   8.826 -0.1784 -0.5909  0.1514
   48CHL1  H26A 6026   5.617   3.029   8.826 -1.8066 -0.8670  0.3879
   48CHL1  H26B 6027   5.583   3.172   8.930  1.0674  0.4015  0.0408
   48CHL1  H26C 6028   5.507   3.155   8.767 -0.1312  2.2944  0.8269
   48CHL1   C27 6029   5.680   3.362   8.763  1.0415  0.5377  0.1849
   48CHL1  H27A 6030   5.696   3.398   8.867  1.5326  0.4218  0.1513
   48CHL1  H27B 6031   5.739   3.430   8.696  0.5332  1.2600  0.4612
   48CHL1  H27C 6032   5.574   3.370   8.731  0.9886  1.1707  0.5077
   49CHL1    C3 6033   4.034   5.326  10.143  0.5568 -0.5653  0.0367
   49CHL1    H3 6034   4.094   5.236  10.118 -0.8776 -2.4320  3.0691
   49CHL1    O3 6035   4.038   5.360  10.280 -0.0102 -0.0877 -0.6793
   49CHL1   H3' 6036   4.109   5.425  10.285 -0.9231  0.8537  0.1948
   49CHL1    C4 6037   4.101   5.439  10.057 -0.4658 -0.1968  0.7887
   49CHL1   H4A 6038   4.052   5.536  10.078 -1.1769 -0.0542 -1.3622
   49CHL1   H4B 6039   4.206   5.460  10.087 -0.5124  0.0169  0.7977
   49CHL1    C5 6040   4.091   5.422   9.906 -0.4416 -0.7113 -0.1541
   49CHL1    C6 6041   4.209   5.410   9.841  0.8582  0.4548 -0.0304
   49CHL1    H6 6042   4.303   5.431   9.894 -0.8988  1.7561  2.6862
   49CHL1    C7 6043   4.205   5.371   9.691  0.1424  0.0797  0.5228
   49CHL1   H7A 6044   4.274   5.431   9.628  0.2197 -0.6470 -0.0913
   49CHL1   H7B 6045   4.244   5.267   9.681 -2.6880 -0.8394 -1.7881
   49CHL1    C8 6046   4.066   5.369   9.626  0.0454 -0.2815  0.1788
   49CHL1    H8 6047   4.037   5.476   9.615 -2.8355 -1.1591 -1.0633
   49CHL1   C14 6048   4.065   5.292   9.495 -0.2334  0.6417  0.2587
   49CHL1   H14 6049   4.089   5.185   9.513 -1.9970  0.2773  0.6023
   49CHL1   C15 6050   4.174   5.331   9.393  0.7295 -0.3639 -0.0071
   49CHL1  H15A 6051   4.207   5.437   9.397 -1.0847  0.2122  0.0321
   49CHL1  H15B 6052   4.264   5.269   9.411  0.9805 -0.4005 -1.3718
   49CHL1   C16 6053   4.117   5.286   9.261 -0.2434  0.3060  0.2868
   49CHL1  H16A 6054   4.105   5.376   9.196  0.7571  1.9406  2.2938
   49CHL1  H16B 6055   4.183   5.206   9.222 -0.6631 -0.7416  1.6887
   49CHL1   C17 6056   3.976   5.219   9.292  0.5084  0.3039  0.2299
   49CHL1   H17 6057   3.991   5.113   9.323  0.0239  0.0373 -0.4431
   49CHL1   C13 6058   3.934   5.284   9.424  0.0139 -0.1382 -0.0874
   49CHL1   C18 6059   3.878   5.428   9.393  0.0028 -1.0028 -0.2301
   49CHL1  H18A 6060   3.884   5.492   9.484  0.3730 -2.2291  0.6211
   49CHL1  H18B 6061   3.926   5.482   9.309  0.6205 -0.0830  0.6882
   49CHL1  H18C 6062   3.770   5.421   9.370  0.0529 -0.5671 -0.6084
   49CHL1   C12 6063   3.832   5.208   9.512 -0.0519 -0.5250  0.9115
   49CHL1  H12A 6064   3.730   5.194   9.469  0.5986  0.7487 -1.1348
   49CHL1  H12B 6065   3.857   5.103   9.537 -1.1146 -0.4689  2.2596
   49CHL1   C11 6066   3.819   5.288   9.646  0.3594  0.1061  0.5913
   49CHL1  H11A 6067   3.764   5.382   9.626  1.2702  0.2552 -1.2953
   49CHL1  H11B 6068   3.761   5.220   9.712  1.1449 -0.5209  0.6429
   49CHL1    C9 6069   3.963   5.307   9.716 -0.1780 -0.0312 -0.7427
   49CHL1    H9 6070   3.999   5.204   9.738 -0.3172  0.2621  0.9690
   49CHL1   C10 6071   3.956   5.374   9.858 -0.6679 -0.2200  0.0104
   49CHL1   C19 6072   3.882   5.507   9.841  0.0776  0.3503 -0.2059
   49CHL1  H19A 6073   3.926   5.564   9.756 -1.8450  1.4294 -0.5045
   49CHL1  H19B 6074   3.774   5.493   9.820  0.4635 -0.7485 -1.4881
   49CHL1  H19C 6075   3.890   5.583   9.922 -0.8494 -0.2065  0.4241
   49CHL1    C1 6076   3.889   5.274   9.950 -0.0080 -0.3832  0.6846
   49CHL1   H1A 6077   3.783   5.255   9.922 -0.0733 -0.9913  1.3217
   49CHL1   H1B 6078   3.935   5.173   9.935  0.1381 -0.5462  2.1261
   49CHL1    C2 6079   3.894   5.315  10.100  0.4532 -0.9744  0.1789
   49CHL1   H2A 6080   3.836   5.228  10.139  1.8188 -1.4991  1.0871
   49CHL1   H2B 6081   3.835   5.407  10.117  0.0602 -1.3531  0.9079
   49CHL1   C20 6082   3.884   5.221   9.173  0.2322 -0.5057 -0.1817
   49CHL1   H20 6083   3.868   5.324   9.135  0.0485 -0.6456 -0.4840
   49CHL1   C21 6084   3.749   5.157   9.205  0.4259  0.1502 -0.6258
   49CHL1  H21A 6085   3.683   5.215   9.273  1.5662  1.0366 -0.2673
   49CHL1  H21B 6086   3.761   5.060   9.258  0.7361 -0.0293 -1.0193
   49CHL1  H21C 6087   3.691   5.145   9.111 -2.9208 -1.1543  1.4933
   49CHL1   C22 6088   3.951   5.150   9.048  0.3164 -0.1547  0.2560
   49CHL1  H22A 6089   4.022   5.222   9.002  0.0917  0.3369  0.6798
   49CHL1  H22B 6090   4.008   5.062   9.084 -1.5069 -1.2487  0.5226
   49CHL1   C23 6091   3.853   5.106   8.936 -0.5625 -0.1807 -0.0694
   49CHL1  H23A 6092   3.792   5.019   8.967  1.5575 -1.8827 -0.5937
   49CHL1  H23B 6093   3.794   5.199   8.921 -0.7546 -0.2169  0.4736
   49CHL1   C24 6094   3.911   5.064   8.798 -0.9762 -0.7900  0.5104
   49CHL1  H24A 6095   3.970   5.156   8.779 -3.6554  0.6963 -0.8578
   49CHL1  H24B 6096   3.985   4.981   8.802  3.7532  2.9813 -2.7475
   49CHL1   C25 6097   3.799   5.041   8.696  1.2841 -0.2005 -0.3422
   49CHL1   H25 6098   3.730   5.128   8.700  0.4597 -0.8745  0.1713
   49CHL1   C26 6099   3.851   5.026   8.552  0.0537 -0.5509 -0.1526
   49CHL1  H26A 6100   3.770   4.997   8.482 -1.2893  0.5439  0.9076
   49CHL1  H26B 6101   3.896   5.125   8.531 -2.4531  0.0149 -3.1996
   49CHL1  H26C 6102   3.925   4.945   8.563 -2.0788 -2.1991  2.7180
   49CHL1   C27 6103   3.716   4.913   8.730 -1.2177 -0.8038 -0.6111
   49CHL1  H27A 6104   3.788   4.829   8.741  1.2727  1.3395 -0.1092
   49CHL1  H27B 6105   3.662   4.910   8.826 -0.6491 -2.8808 -0.3102
   49CHL1  H27C 6106   3.641   4.886   8.653 -0.3413 -0.1205 -1.7339
   50CHL1    C3 6107   0.796   0.065  10.258 -0.3549 -0.0685  0.0599
   50CHL1    H3 6108   0.695   0.039  10.219  0.0718  2.8950 -3.3123
   50CHL1    O3 6109   0.797   0.031  10.393  0.2695  0.2677 -0.3559
   50CHL1   H3' 6110   0.723   0.080  10.430  0.2845 -1.7938  2.5102
   50CHL1    C4 6111   0.907  -0.017  10.181  0.3263  0.4040  0.1647
   50CHL1   H4A 6112   0.997  -0.009  10.245  1.1206 -1.6580 -0.6615
   50CHL1   H4B 6113   0.875  -0.123  10.196  0.9780  0.3094  0.9174
   50CHL1    C5 6114   0.908   0.015  10.034 -0.0184  0.2700 -0.0601
   50CHL1    C6 6115   0.893  -0.082   9.941 -0.4098 -0.3777 -0.6064
   50CHL1    H6 6116   0.890  -0.190   9.964  0.0588 -0.5226 -1.2160
   50CHL1    C7 6117   0.888  -0.056   9.793 -0.0502  0.2411  0.4102
   50CHL1   H7A 6118   0.972  -0.103   9.738 -0.2317 -1.0290  1.2065
   50CHL1   H7B 6119   0.796  -0.100   9.748 -1.3520  1.9308  1.3625
   50CHL1    C8 6120   0.908   0.096   9.757  0.8123 -0.3289  0.6630
   50CHL1    H8 6121   1.016   0.122   9.756  0.5142  1.0194 -2.2416
   50CHL1   C14 6122   0.834   0.139   9.626 -0.7040 -0.5213  0.0604
   50CHL1   H14 6123   0.724   0.133   9.640 -0.8195 -0.8294 -0.9254
   50CHL1   C15 6124   0.866   0.051   9.502  0.4011  0.0783 -0.0325
   50CHL1  H15A 6125   0.974   0.025   9.509  0.4811  0.8388  1.9442
   50CHL1  H15B 6126   0.817  -0.049   9.506 -1.3042  0.9091  0.3331
   50CHL1   C16 6127   0.810   0.139   9.385 -0.1464  0.0009  0.6904
   50CHL1  H16A 6128   0.898   0.153   9.319 -0.1818 -0.9276  0.4309
   50CHL1  H16B 6129   0.721   0.096   9.333  0.3747  0.8240 -0.9227
   50CHL1   C17 6130   0.790   0.285   9.435 -0.4259 -0.8730  0.1930
   50CHL1   H17 6131   0.683   0.283   9.464  0.4758 -0.3407  3.8778
   50CHL1   C13 6132   0.853   0.287   9.579 -0.3921 -0.1300  0.2260
   50CHL1   C18 6133   1.004   0.299   9.561 -0.8375  0.4540  0.5536
   50CHL1  H18A 6134   1.063   0.262   9.648 -1.1044 -2.6508 -0.5268
   50CHL1  H18B 6135   1.038   0.256   9.465  0.2336  2.9627 -0.2584
   50CHL1  H18C 6136   1.028   0.408   9.559 -0.1289  0.2766 -1.5569
   50CHL1   C12 6137   0.791   0.373   9.687 -0.2068  0.0455  0.1953
   50CHL1  H12A 6138   0.802   0.483   9.673  1.5249  0.2234  2.6911
   50CHL1  H12B 6139   0.685   0.343   9.690  0.2317 -1.9280 -2.5617
   50CHL1   C11 6140   0.865   0.347   9.819 -0.0326 -0.1594 -0.2309
   50CHL1  H11A 6141   0.964   0.395   9.804 -0.7236  1.9812  1.6372
   50CHL1  H11B 6142   0.806   0.406   9.893  2.0871  0.7309  0.7899
   50CHL1    C9 6143   0.854   0.197   9.863 -0.6167  0.0456 -0.4072
   50CHL1    H9 6144   0.747   0.168   9.861  0.1488 -2.8869 -1.7564
   50CHL1   C10 6145   0.910   0.167  10.002 -0.2640 -0.4175  0.1005
   50CHL1   C19 6146   1.059   0.211  10.006 -0.4078 -0.3019 -0.1278
   50CHL1  H19A 6147   1.101   0.200  10.108  1.0788  1.4571 -0.5269
   50CHL1  H19B 6148   1.120   0.142   9.945 -1.3212 -0.2116 -1.1499
   50CHL1  H19C 6149   1.076   0.313   9.965  0.0299 -0.3994 -0.1892
   50CHL1    C1 6150   0.815   0.251  10.096 -0.0460  0.1361 -0.3128
   50CHL1   H1A 6151   0.839   0.359  10.101  0.9427 -0.1672  2.4488
   50CHL1   H1B 6152   0.715   0.221  10.060  0.7210 -1.6056 -1.0495
   50CHL1    C2 6153   0.821   0.219  10.240 -0.5818 -0.0273 -0.4098
   50CHL1   H2A 6154   0.755   0.285  10.300  0.2262  0.4757 -0.0626
   50CHL1   H2B 6155   0.926   0.242  10.270 -0.8678  1.3176 -0.4117
   50CHL1   C20 6156   0.819   0.398   9.337 -0.0729  0.4226  0.1307
   50CHL1   H20 6157   0.916   0.375   9.288  0.7604 -0.4265  2.1039
   50CHL1   C21 6158   0.825   0.538   9.397  0.2614 -0.1122  0.5362
   50CHL1  H21A 6159   0.838   0.630   9.336  1.2942 -0.3206  0.4401
   50CHL1  H21B 6160   0.901   0.541   9.478  1.2628  0.7367 -0.4127
   50CHL1  H21C 6161   0.730   0.551   9.454 -0.7018  2.9121 -1.6227
   50CHL1   C22 6162   0.715   0.395   9.216  0.6736  0.0899 -0.2309
   50CHL1  H22A 6163   0.716   0.293   9.171  0.5703  0.0196 -0.0752
   50CHL1  H22B 6164   0.611   0.419   9.245  0.8435 -1.9786  2.2810
   50CHL1   C23 6165   0.744   0.511   9.109  0.3901  0.2873  0.5283
   50CHL1  H23A 6166   0.701   0.597   9.165 -0.3731  1.9349 -2.4780
   50CHL1  H23B 6167   0.852   0.535   9.101  0.1775  0.3514 -2.6834
   50CHL1   C24 6168   0.673   0.499   8.973  0.0400 -0.2419 -0.3674
   50CHL1  H24A 6169   0.704   0.405   8.922  1.5751  0.4821 -0.7958
   50CHL1  H24B 6170   0.565   0.494   8.995  0.6551  0.2594  3.1081
   50CHL1   C25 6171   0.674   0.618   8.879  0.0068 -0.0580 -0.2041
   50CHL1   H25 6172   0.778   0.651   8.863 -0.9616  2.1641 -2.1116
   50CHL1   C26 6173   0.605   0.575   8.746  0.3900 -0.5266 -0.6385
   50CHL1  H26A 6174   0.512   0.520   8.770 -0.2202  0.8328  0.1188
   50CHL1  H26B 6175   0.567   0.667   8.697  0.7130 -0.1668 -0.2167
   50CHL1  H26C 6176   0.672   0.507   8.689  2.8666  1.6849 -0.4957
   50CHL1   C27 6177   0.606   0.743   8.939  0.0564 -0.0314 -0.7335
   50CHL1  H27A 6178   0.670   0.780   9.022 -0.2494 -0.7781 -0.1651
   50CHL1  H27B 6179   0.600   0.823   8.861  0.2930  0.4317 -0.2801
   50CHL1  H27C 6180   0.504   0.712   8.969  1.1889 -2.0245  1.1150
   51CHL1    C3 6181   1.653   3.555  10.365 -0.4882 -0.2091 -0.8591
   51CHL1    H3 6182   1.546   3.524  10.356  0.1554 -1.9123 -2.8161
   51CHL1    O3 6183   1.669   3.590  10.506  0.1927  0.8397  0.8659
   51CHL1   H3' 6184   1.761   3.614  10.510  0.6618 -0.9015  0.8390
   51CHL1    C4 6185   1.743   3.429  10.331 -0.5350 -0.2712  0.8373
   51CHL1   H4A 6186   1.850   3.455  10.345 -0.5526 -0.9698  2.4905
   51CHL1   H4B 6187   1.721   3.347  10.404 -3.8709 -0.4902 -0.3210
   51CHL1    C5 6188   1.711   3.383  10.190 -0.8320  0.0661 -0.1832
   51CHL1    C6 6189   1.671   3.256  10.166  0.0754 -0.0609 -0.3734
   51CHL1    H6 6190   1.666   3.178  10.243  0.4647  0.6774  0.4089
   51CHL1    C7 6191   1.646   3.200  10.027 -0.7662 -0.0054 -0.8633
   51CHL1   H7A 6192   1.690   3.099  10.017  0.4034  0.0424  3.0024
   51CHL1   H7B 6193   1.538   3.190  10.001 -0.7933  0.5003 -0.9502
   51CHL1    C8 6194   1.720   3.299   9.921  0.2201 -0.5178 -0.3459
   51CHL1    H8 6195   1.829   3.291   9.942 -0.1083 -0.6060  1.4009
   51CHL1   C14 6196   1.704   3.248   9.772 -0.1262  0.8153 -0.3205
   51CHL1   H14 6197   1.594   3.243   9.759  0.2825 -0.7418 -3.7140
   51CHL1   C15 6198   1.760   3.112   9.741  1.0361 -0.3468  0.2854
   51CHL1  H15A 6199   1.860   3.086   9.782  1.3142 -0.0743 -0.2162
   51CHL1  H15B 6200   1.694   3.036   9.787  0.0221  1.6240  2.1605
   51CHL1   C16 6201   1.751   3.099   9.591  0.4733  0.2258 -0.0122
   51CHL1  H16A 6202   1.850   3.064   9.553 -0.5685  0.9751 -3.5827
   51CHL1  H16B 6203   1.675   3.028   9.551 -0.3970  1.0367  0.1839
   51CHL1   C17 6204   1.710   3.237   9.540  0.2307  0.2134 -0.4842
   51CHL1   H17 6205   1.599   3.240   9.542  0.2043 -0.5953 -0.4012
   51CHL1   C13 6206   1.747   3.338   9.656  0.1514  0.4663 -0.3783
   51CHL1   C18 6207   1.901   3.349   9.662  0.1353 -0.8760  0.4391
   51CHL1  H18A 6208   1.947   3.252   9.633 -1.6478 -1.1368 -1.6473
   51CHL1  H18B 6209   1.932   3.427   9.590 -0.7914  0.4658  1.4471
   51CHL1  H18C 6210   1.927   3.377   9.767  0.6732 -1.8927  0.5802
   51CHL1   C12 6211   1.666   3.466   9.677 -0.1708  0.5354 -0.5287
   51CHL1  H12A 6212   1.684   3.545   9.600 -0.6651  0.5039 -0.6812
   51CHL1  H12B 6213   1.557   3.446   9.690 -0.4730  1.6014 -1.2605
   51CHL1   C11 6214   1.688   3.537   9.819 -0.1490  0.6092  0.6801
   51CHL1  H11A 6215   1.796   3.562   9.813  0.2078 -0.9736  0.4091
   51CHL1  H11B 6216   1.638   3.634   9.841 -0.6958  0.6199 -0.5931
   51CHL1    C9 6217   1.665   3.437   9.947  0.2753  0.0980  0.8911
   51CHL1    H9 6218   1.554   3.425   9.953  0.3889 -0.9235  0.9537
   51CHL1   C10 6219   1.721   3.500  10.079 -0.4683 -0.1187  0.9231
   51CHL1   C19 6220   1.873   3.536  10.067 -1.0969  0.0745  0.3297
   51CHL1  H19A 6221   1.910   3.582  10.161  0.3582 -2.5533  1.1057
   51CHL1  H19B 6222   1.946   3.456  10.039 -0.9980  0.5141 -0.6950
   51CHL1  H19C 6223   1.886   3.623   9.999 -3.1446  0.9178  1.0036
   51CHL1    C1 6224   1.639   3.629  10.119 -0.2978  0.2011  0.0477
   51CHL1   H1A 6225   1.678   3.713  10.056  0.5686 -0.0160  0.2800
   51CHL1   H1B 6226   1.532   3.618  10.094  0.4729 -1.2244 -2.9143
   51CHL1    C2 6227   1.664   3.664  10.265 -0.1722 -0.5944  0.5944
   51CHL1   H2A 6228   1.605   3.752  10.298 -1.7468 -0.1219 -3.2103
   51CHL1   H2B 6229   1.768   3.697  10.284 -0.6248  1.6060 -0.6368
   51CHL1   C20 6230   1.766   3.275   9.402  0.1590  0.0682  0.0406
   51CHL1   H20 6231   1.876   3.268   9.415  0.0291 -0.7572  0.7790
   51CHL1   C21 6232   1.743   3.418   9.362 -0.5167 -0.0368  0.2029
   51CHL1  H21A 6233   1.635   3.436   9.343 -0.2235  2.1345  0.5121
   51CHL1  H21B 6234   1.810   3.437   9.276  0.0133  2.5139  1.1322
   51CHL1  H21C 6235   1.787   3.475   9.447 -1.1880 -0.2044  0.6744
   51CHL1   C22 6236   1.723   3.171   9.290  0.3501  0.5423  0.1350
   51CHL1  H22A 6237   1.749   3.069   9.327 -0.7488  1.0495  2.3638
   51CHL1  H22B 6238   1.613   3.186   9.284 -0.2196 -3.0654  0.3921
   51CHL1   C23 6239   1.802   3.175   9.155 -0.6669 -0.9339 -0.6635
   51CHL1  H23A 6240   1.798   3.276   9.109  1.3421 -0.9821 -1.0124
   51CHL1  H23B 6241   1.912   3.167   9.170 -0.3144  0.8158 -2.0267
   51CHL1   C24 6242   1.744   3.067   9.052 -0.1773 -0.4182 -0.4435
   51CHL1  H24A 6243   1.713   2.976   9.107  1.5064 -0.2875  0.7910
   51CHL1  H24B 6244   1.654   3.111   9.004 -0.4534 -1.1545 -0.5983
   51CHL1   C25 6245   1.844   3.033   8.938 -0.7062 -0.2835  0.0982
   51CHL1   H25 6246   1.836   3.122   8.873  0.9962 -1.3025 -1.5665
   51CHL1   C26 6247   1.993   2.996   8.968 -0.2925 -0.0387 -0.0014
   51CHL1  H26A 6248   2.030   2.973   8.866 -1.8040 -0.0817 -0.5528
   51CHL1  H26B 6249   2.046   3.088   9.001 -0.0877  0.4401 -1.6268
   51CHL1  H26C 6250   2.006   2.917   9.046  0.7690  0.7207  0.5890
   51CHL1   C27 6251   1.800   2.920   8.843 -0.1722 -0.3547  0.5748
   51CHL1  H27A 6252   1.698   2.927   8.799  0.2433 -1.6711 -0.6534
   51CHL1  H27B 6253   1.868   2.914   8.756 -2.5804  2.4089 -1.5979
   51CHL1  H27C 6254   1.802   2.825   8.901  2.6657  0.4237  1.8220
   52CHL1    C3 6255   5.597   1.564   9.967  0.3853 -0.2514  0.2364
   52CHL1    H3 6256   5.523   1.510  10.031 -1.0160 -0.3156 -1.4137
   52CHL1    O3 6257   5.703   1.616  10.042 -0.4559 -0.1706  0.0518
   52CHL1   H3' 6258   5.713   1.550  10.111  1.7034  0.3817  0.3074
   52CHL1    C4 6259   5.664   1.465   9.865  0.2178  0.4848  0.4611
   52CHL1   H4A 6260   5.753   1.520   9.830  1.0257 -1.0515  0.0575
   52CHL1   H4B 6261   5.705   1.380   9.924 -0.2095  1.3419  2.0349
   52CHL1    C5 6262   5.578   1.422   9.750 -0.9171  0.1094 -0.8665
   52CHL1    C6 6263   5.552   1.288   9.721 -0.5141  0.0114  0.2131
   52CHL1    H6 6264   5.582   1.199   9.779  2.6140  0.0976 -1.1943
   52CHL1    C7 6265   5.468   1.246   9.602  0.3834  0.5534  0.2643
   52CHL1   H7A 6266   5.503   1.160   9.541  0.6695  0.0722  1.0969
   52CHL1   H7B 6267   5.369   1.211   9.637  0.8567 -1.5214 -0.3745
   52CHL1    C8 6268   5.456   1.359   9.495  0.2256 -0.8041 -0.5926
   52CHL1    H8 6269   5.557   1.377   9.451  0.6558 -0.3671  0.5463
   52CHL1   C14 6270   5.353   1.321   9.385  0.3118 -0.3011  0.3822
   52CHL1   H14 6271   5.268   1.292   9.451  2.1052 -5.1902  0.7233
   52CHL1   C15 6272   5.380   1.193   9.308 -0.3684 -0.4436 -0.3007
   52CHL1  H15A 6273   5.481   1.202   9.264  0.8155 -2.2473  1.9994
   52CHL1  H15B 6274   5.380   1.100   9.368 -1.8712 -0.7787 -0.7807
   52CHL1   C16 6275   5.265   1.195   9.203 -0.0431  0.4188 -1.2922
   52CHL1  H16A 6276   5.286   1.139   9.110  0.5508  1.1994 -1.6398
   52CHL1  H16B 6277   5.177   1.150   9.253  1.6259 -0.6068  0.8392
   52CHL1   C17 6278   5.216   1.346   9.204 -0.7212 -0.2730  0.1428
   52CHL1   H17 6279   5.127   1.350   9.270 -0.5153  0.1675  0.3959
   52CHL1   C13 6280   5.322   1.425   9.287  0.1157  0.0456 -0.4630
   52CHL1   C18 6281   5.442   1.472   9.200 -0.1056  0.0229 -0.1327
   52CHL1  H18A 6282   5.425   1.554   9.127 -1.5164  0.1691  0.3407
   52CHL1  H18B 6283   5.517   1.515   9.270 -0.2318  1.6380 -0.9689
   52CHL1  H18C 6284   5.487   1.388   9.143  1.0496  2.1866 -2.5051
   52CHL1   C12 6285   5.271   1.552   9.368  0.2938  0.2864  0.0221
   52CHL1  H12A 6286   5.233   1.632   9.300 -0.3315  0.0690  0.1204
   52CHL1  H12B 6287   5.189   1.518   9.434 -0.5325 -0.9536 -1.5886
   52CHL1   C11 6288   5.375   1.606   9.462  0.3134  0.4645  0.2528
   52CHL1  H11A 6289   5.459   1.651   9.404 -1.6382  0.8045 -2.4067
   52CHL1  H11B 6290   5.331   1.686   9.525 -0.9003 -0.3731  0.4791
   52CHL1    C9 6291   5.417   1.491   9.563  0.6139 -0.6594 -0.4525
   52CHL1    H9 6292   5.318   1.470   9.609  0.1379  1.0668 -0.6524
   52CHL1   C10 6293   5.515   1.541   9.669 -0.6793 -1.0003 -0.3647
   52CHL1   C19 6294   5.627   1.617   9.595 -0.3978  0.0843  0.7587
   52CHL1  H19A 6295   5.660   1.555   9.509  0.1278  2.2993 -0.6677
   52CHL1  H19B 6296   5.598   1.720   9.567  2.4312  0.5354 -0.6515
   52CHL1  H19C 6297   5.712   1.642   9.662  1.4787 -2.9069 -0.4195
   52CHL1    C1 6298   5.448   1.641   9.772 -0.1137 -0.4814  0.2760
   52CHL1   H1A 6299   5.401   1.725   9.717 -0.0099 -0.1377  0.7058
   52CHL1   H1B 6300   5.361   1.593   9.821 -1.0093  0.0232 -0.7948
   52CHL1    C2 6301   5.541   1.681   9.887  0.3624 -0.0398  0.1439
   52CHL1   H2A 6302   5.472   1.737   9.952 -0.6795 -0.0096 -0.9694
   52CHL1   H2B 6303   5.626   1.746   9.855  0.3502  0.4132  1.0308
   52CHL1   C20 6304   5.183   1.403   9.063  0.9699  0.1782  0.5389
   52CHL1   H20 6305   5.278   1.417   9.006  0.7873 -2.1539 -0.3819
   52CHL1   C21 6306   5.115   1.539   9.075  0.3687  0.6927  0.1261
   52CHL1  H21A 6307   5.031   1.545   9.147  0.9635 -4.3004  1.3880
   52CHL1  H21B 6308   5.079   1.573   8.975  1.9754  1.4555 -0.2269
   52CHL1  H21C 6309   5.193   1.607   9.116  0.1620 -0.0972  1.8520
   52CHL1   C22 6310   5.074   1.313   8.985  0.1016  0.2446  0.3260
   52CHL1  H22A 6311   5.103   1.207   8.999 -2.0210 -0.5108 -0.8007
   52CHL1  H22B 6312   4.976   1.338   9.031 -0.2534  0.8671 -0.7357
   52CHL1   C23 6313   5.083   1.339   8.830 -0.1921 -0.8080  0.4907
   52CHL1  H23A 6314   5.057   1.444   8.805  1.6989 -0.2792  0.6658
   52CHL1  H23B 6315   5.191   1.325   8.808  0.0788  1.7585  0.0545
   52CHL1   C24 6316   4.992   1.247   8.743  0.1909 -0.0086 -0.2766
   52CHL1  H24A 6317   5.013   1.268   8.636 -3.2899 -0.3832 -1.0834
   52CHL1  H24B 6318   5.027   1.147   8.778  0.1611  0.3579  0.8386
   52CHL1   C25 6319   4.837   1.264   8.759 -0.2066 -0.4982  0.1095
   52CHL1   H25 6320   4.820   1.262   8.869 -2.2557 -1.4336 -0.1926
   52CHL1   C26 6321   4.797   1.404   8.701 -0.0213 -0.4560 -0.1806
   52CHL1  H26A 6322   4.810   1.478   8.782 -1.3705 -0.6378  0.2101
   52CHL1  H26B 6323   4.869   1.425   8.619  0.4745  0.7416  0.5462
   52CHL1  H26C 6324   4.701   1.391   8.646  0.5759 -0.7473 -1.1663
   52CHL1   C27 6325   4.770   1.148   8.687  0.2109 -0.1961  0.2312
   52CHL1  H27A 6326   4.660   1.163   8.694 -0.0474 -2.2141  0.9000
   52CHL1  H27B 6327   4.796   1.146   8.580  1.7035  0.9256  0.5544
   52CHL1  H27C 6328   4.797   1.054   8.740  1.8200  0.1439  0.0461
   53CHL1    C3 6329   6.436   1.013  10.178  0.3953  0.3862 -0.8145
   53CHL1    H3 6330   6.515   1.088  10.164  0.8539  0.0822  0.1055
   53CHL1    O3 6331   6.402   1.006  10.312  0.0937 -0.2391  0.4128
   53CHL1   H3' 6332   6.483   0.979  10.355 -0.7309 -2.8876  0.4001
   53CHL1    C4 6333   6.327   1.081  10.092 -0.4561 -0.2198  0.4397
   53CHL1   H4A 6334   6.225   1.040  10.108 -1.0345  0.4476 -1.3741
   53CHL1   H4B 6335   6.322   1.189  10.118  0.8858  0.2315 -1.0655
   53CHL1    C5 6336   6.368   1.081   9.947 -0.8276  0.2957 -0.8211
   53CHL1    C6 6337   6.370   1.197   9.873  0.2972  0.3628 -0.5349
   53CHL1    H6 6338   6.359   1.297   9.918 -0.9063  0.5844 -1.3297
   53CHL1    C7 6339   6.387   1.199   9.727  0.2588  0.3877  1.3119
   53CHL1   H7A 6340   6.296   1.246   9.683  0.9568 -1.0503 -1.7499
   53CHL1   H7B 6341   6.475   1.255   9.690 -0.1947  0.6956  0.6863
   53CHL1    C8 6342   6.381   1.062   9.666 -0.1855  0.1670  0.0853
   53CHL1    H8 6343   6.275   1.030   9.660  0.5235 -2.9713  2.8742
   53CHL1   C14 6344   6.422   1.063   9.518 -0.3419  0.2301 -0.8832
   53CHL1   H14 6345   6.527   1.098   9.512 -0.5613  0.9469 -0.6098
   53CHL1   C15 6346   6.339   1.155   9.424  0.4225  0.4097 -0.7927
   53CHL1  H15A 6347   6.233   1.135   9.449  0.7267  0.4312  0.5644
   53CHL1  H15B 6348   6.370   1.260   9.446 -1.1054  0.6703  0.2318
   53CHL1   C16 6349   6.367   1.102   9.290  0.2628 -0.3202 -0.0053
   53CHL1  H16A 6350   6.264   1.095   9.249 -0.1597 -0.5248  1.0922
   53CHL1  H16B 6351   6.411   1.183   9.228  0.3337  0.3384  0.8956
   53CHL1   C17 6352   6.446   0.967   9.292 -0.4137  0.1825 -0.0429
   53CHL1   H17 6353   6.555   0.990   9.288  0.0515 -1.9380 -0.3867
   53CHL1   C13 6354   6.417   0.926   9.448  0.3094  0.6032  0.6739
   53CHL1   C18 6355   6.271   0.864   9.453 -0.2019  0.6977 -0.8332
   53CHL1  H18A 6356   6.238   0.857   9.559 -2.0706  0.1013 -1.4340
   53CHL1  H18B 6357   6.191   0.921   9.402 -0.5156  0.7466 -0.2909
   53CHL1  H18C 6358   6.281   0.763   9.406  0.4237  0.6905 -0.6945
   53CHL1   C12 6359   6.524   0.842   9.515  0.1749  0.0212 -0.0351
   53CHL1  H12A 6360   6.527   0.743   9.464 -1.1905 -0.1756  0.2626
   53CHL1  H12B 6361   6.624   0.891   9.505 -0.8118  2.1128  0.1238
   53CHL1   C11 6362   6.494   0.826   9.667 -0.2690  0.0470 -0.2532
   53CHL1  H11A 6363   6.405   0.761   9.677 -0.3628  0.0951 -0.7598
   53CHL1  H11B 6364   6.571   0.769   9.722  1.2546  1.4212 -0.9125
   53CHL1    C9 6365   6.463   0.964   9.744 -0.3138  0.0768  0.6928
   53CHL1    H9 6366   6.557   1.019   9.763 -1.1038  1.1776  1.4985
   53CHL1   C10 6367   6.400   0.942   9.883 -0.0027 -0.0820  0.5728
   53CHL1   C19 6368   6.273   0.863   9.877 -0.0119  0.3701  0.3573
   53CHL1  H19A 6369   6.212   0.896   9.791 -2.3112 -1.6639  1.1461
   53CHL1  H19B 6370   6.303   0.762   9.841  0.3956 -0.2507  2.3377
   53CHL1  H19C 6371   6.230   0.852   9.979 -0.9642  0.7898  0.0005
   53CHL1    C1 6372   6.511   0.878   9.974  0.3376 -0.1346 -1.1676
   53CHL1   H1A 6373   6.530   0.776   9.935  0.3560 -1.1168  1.3072
   53CHL1   H1B 6374   6.606   0.935   9.960  0.3474  0.2884  0.5420
   53CHL1    C2 6375   6.463   0.873  10.123 -0.1907  0.7058  0.5615
   53CHL1   H2A 6376   6.540   0.818  10.183 -0.2184 -1.3840 -1.2662
   53CHL1   H2B 6377   6.366   0.822  10.142  1.1989 -1.7588  1.2726
   53CHL1   C20 6378   6.422   0.867   9.175 -0.3906  0.0429  0.5183
   53CHL1   H20 6379   6.406   0.766   9.218  1.5275 -1.0594 -1.2281
   53CHL1   C21 6380   6.553   0.867   9.091 -0.2322 -1.1092 -0.0419
   53CHL1  H21A 6381   6.560   0.766   9.047 -2.7834 -1.4790  0.3117
   53CHL1  H21B 6382   6.647   0.876   9.149 -0.8008 -1.4230  0.9436
   53CHL1  H21C 6383   6.552   0.948   9.014  2.5213 -2.2747 -1.3718
   53CHL1   C22 6384   6.298   0.892   9.086 -0.0938 -0.1799  0.3854
   53CHL1  H22A 6385   6.214   0.892   9.159  0.3394  1.8915  0.9344
   53CHL1  H22B 6386   6.314   0.986   9.029 -1.0914  0.3560  0.9603
   53CHL1   C23 6387   6.277   0.785   8.977 -0.4704  0.3981  0.0713
   53CHL1  H23A 6388   6.355   0.806   8.901  0.8506 -2.6894  0.4982
   53CHL1  H23B 6389   6.298   0.681   9.010 -1.5540  0.2052  0.1729
   53CHL1   C24 6390   6.138   0.782   8.919 -0.6842  0.3092 -0.6105
   53CHL1  H24A 6391   6.081   0.721   8.992  1.9575 -0.5479  0.8053
   53CHL1  H24B 6392   6.106   0.889   8.919 -0.8862  0.2551 -1.5794
   53CHL1   C25 6393   6.129   0.737   8.773 -1.3263  0.0409  0.6291
   53CHL1   H25 6394   6.185   0.809   8.709 -0.7906  0.0628  1.1211
   53CHL1   C26 6395   6.214   0.603   8.755  0.0539 -0.1643  0.2559
   53CHL1  H26A 6396   6.179   0.519   8.818  3.5092 -3.0040 -1.4198
   53CHL1  H26B 6397   6.209   0.568   8.649  1.5694  0.3526 -0.0004
   53CHL1  H26C 6398   6.320   0.623   8.783  0.3252 -1.5262  0.2162
   53CHL1   C27 6399   5.984   0.741   8.723  0.0124 -0.1008 -0.3312
   53CHL1  H27A 6400   5.981   0.749   8.613 -3.8620 -0.2518 -0.3179
   53CHL1  H27B 6401   5.932   0.644   8.738  1.4632 -0.7723  0.3817
   53CHL1  H27C 6402   5.926   0.825   8.769  0.9532  0.0358  0.6312
   54CHL1    C3 6403   6.211   2.584  10.115  0.3163  0.1299 -0.3733
   54CHL1    H3 6404   6.103   2.556  10.116  0.7049 -1.4159  0.9095
   54CHL1    O3 6405   6.255   2.586  10.246  0.4391  0.0932 -0.3327
   54CHL1   H3' 6406   6.349   2.607  10.241  0.3352  0.1709 -2.5723
   54CHL1    C4 6407   6.293   2.472  10.045  0.1061  0.2017  0.2638
   54CHL1   H4A 6408   6.402   2.495  10.048  0.7122 -1.9594 -2.4138
   54CHL1   H4B 6409   6.278   2.375  10.096 -0.4443  1.4593  2.5470
   54CHL1    C5 6410   6.261   2.464   9.902 -0.2916  0.3042 -0.4038
   54CHL1    C6 6411   6.226   2.352   9.832 -0.2124  0.4119  0.3615
   54CHL1    H6 6412   6.232   2.259   9.890  0.8701  0.8514  0.9815
   54CHL1    C7 6413   6.213   2.342   9.682 -0.2801  0.0819 -0.5734
   54CHL1   H7A 6414   6.283   2.265   9.645 -0.9132 -0.4867 -0.6071
   54CHL1   H7B 6415   6.110   2.314   9.650 -0.1377  0.9880 -1.8302
   54CHL1    C8 6416   6.244   2.472   9.609 -0.4267  0.4559  0.1994
   54CHL1    H8 6417   6.353   2.485   9.595  0.1246 -3.4430  0.0807
   54CHL1   C14 6418   6.174   2.465   9.475  0.4291  0.1760 -1.3571
   54CHL1   H14 6419   6.063   2.463   9.483  0.4290  1.9709 -0.6552
   54CHL1   C15 6420   6.204   2.342   9.394 -1.3327 -0.0901  0.1103
   54CHL1  H15A 6421   6.315   2.331   9.390 -1.3345 -0.1723  0.2873
   54CHL1  H15B 6422   6.169   2.239   9.413  1.3351 -1.2634 -1.1266
   54CHL1   C16 6423   6.159   2.387   9.250 -0.2633 -0.0148  0.1552
   54CHL1  H16A 6424   6.242   2.357   9.183 -0.9991 -1.3464 -0.1857
   54CHL1  H16B 6425   6.070   2.329   9.216  1.0691 -2.9402  1.4395
   54CHL1   C17 6426   6.122   2.538   9.254 -0.5367  0.8398 -0.6297
   54CHL1   H17 6427   6.012   2.550   9.265 -0.5576  0.1046  0.0076
   54CHL1   C13 6428   6.198   2.585   9.385 -0.1317  0.2007 -0.1353
   54CHL1   C18 6429   6.348   2.611   9.358 -0.5001 -0.0658  1.0448
   54CHL1  H18A 6430   6.385   2.521   9.304  0.0312 -0.4612  2.0514
   54CHL1  H18B 6431   6.371   2.701   9.298  0.8646 -0.8823  0.3302
   54CHL1  H18C 6432   6.406   2.627   9.451  1.7793  0.3745 -0.4162
   54CHL1   C12 6433   6.134   2.701   9.456 -0.3357  0.0563 -0.3143
   54CHL1  H12A 6434   6.159   2.796   9.404  0.2279  0.0241 -0.0978
   54CHL1  H12B 6435   6.023   2.687   9.457 -0.1109 -1.8166  1.7188
   54CHL1   C11 6436   6.184   2.723   9.600  0.4572  0.2650 -0.1452
   54CHL1  H11A 6437   6.288   2.762   9.598 -0.1047  1.8670  1.2015
   54CHL1  H11B 6438   6.122   2.802   9.646  0.9989  0.2109  0.6855
   54CHL1    C9 6439   6.191   2.592   9.687  0.2108 -0.3477  0.5670
   54CHL1    H9 6440   6.085   2.572   9.715 -0.5856  1.5953 -0.9790
   54CHL1   C10 6441   6.264   2.600   9.830  0.4405  0.7495 -0.4231
   54CHL1   C19 6442   6.407   2.654   9.813 -0.3353 -0.3260 -0.4298
   54CHL1  H19A 6443   6.421   2.759   9.780  0.0919 -0.0368  0.6423
   54CHL1  H19B 6444   6.459   2.661   9.911 -1.5518 -1.9077  0.3491
   54CHL1  H19C 6445   6.454   2.574   9.753 -0.0706 -0.9756  0.6287
   54CHL1    C1 6446   6.190   2.708   9.909 -0.1714  0.3556  0.0248
   54CHL1   H1A 6447   6.214   2.805   9.858 -0.3183  0.6986  0.6088
   54CHL1   H1B 6448   6.080   2.698   9.905 -0.3605  1.3139  2.2555
   54CHL1    C2 6449   6.232   2.716  10.055  0.6786  0.1589  0.3214
   54CHL1   H2A 6450   6.162   2.786  10.105 -0.5165 -1.5138  1.0116
   54CHL1   H2B 6451   6.334   2.761  10.060  0.2827  1.3080 -1.4243
   54CHL1   C20 6452   6.168   2.594   9.119  0.2180 -0.7453  1.0840
   54CHL1   H20 6453   6.275   2.567   9.106  0.4780  0.0036  1.6420
   54CHL1   C21 6454   6.152   2.744   9.107  0.2472  0.1464 -0.3895
   54CHL1  H21A 6455   6.200   2.810   9.183  1.3867  1.3682 -2.1338
   54CHL1  H21B 6456   6.042   2.759   9.102  0.2592  0.5644  0.5395
   54CHL1  H21C 6457   6.193   2.771   9.007  2.4474 -0.9360  0.1868
   54CHL1   C22 6458   6.113   2.513   8.996  0.3139 -0.0595 -0.3817
   54CHL1  H22A 6459   6.137   2.569   8.902 -2.4305  1.7974 -0.0532
   54CHL1  H22B 6460   6.159   2.413   8.994  0.6154  0.0126  2.0213
   54CHL1   C23 6461   5.964   2.498   8.991  0.1529 -0.3294  0.1171
   54CHL1  H23A 6462   5.913   2.458   9.080 -3.6658  0.9052 -1.4096
   54CHL1  H23B 6463   5.933   2.604   8.974  1.5864  0.0955  0.0994
   54CHL1   C24 6464   5.925   2.412   8.867 -0.2888  0.5274  0.7961
   54CHL1  H24A 6465   5.880   2.488   8.799  1.9995  2.5696  1.5114
   54CHL1  H24B 6466   6.017   2.361   8.833  1.3694  1.7146  3.3405
   54CHL1   C25 6467   5.819   2.299   8.897 -0.0009 -0.1217 -0.2468
   54CHL1   H25 6468   5.855   2.252   8.991  1.2565 -0.4686 -0.8944
   54CHL1   C26 6469   5.683   2.355   8.912  0.0967 -0.6476 -0.0885
   54CHL1  H26A 6470   5.609   2.274   8.927 -0.5087 -0.1369 -0.2887
   54CHL1  H26B 6471   5.670   2.428   8.994 -4.0147 -0.5653 -0.7016
   54CHL1  H26C 6472   5.669   2.412   8.817 -0.8809 -0.0408  0.4194
   54CHL1   C27 6473   5.817   2.180   8.795 -0.4052  0.1659  0.2440
   54CHL1  H27A 6474   5.793   2.225   8.696  1.3025 -1.3666 -0.8902
   54CHL1  H27B 6475   5.915   2.128   8.791 -0.6282 -0.1884 -1.2976
   54CHL1  H27C 6476   5.732   2.113   8.820  0.0306 -1.4042 -2.2410
   55CHL1    C3 6477   0.618   6.460  10.115 -0.6653  0.2583 -0.2524
   55CHL1    H3 6478   0.719   6.508  10.116 -1.4870  2.0747  2.0304
   55CHL1    O3 6479   0.594   6.408  10.251  0.7173  0.5546  0.4988
   55CHL1   H3' 6480   0.564   6.478  10.309 -0.3891 -0.0629  0.6859
   55CHL1    C4 6481   0.510   6.566  10.089 -0.2399  1.0548 -0.6544
   55CHL1   H4A 6482   0.415   6.517  10.118  1.1673 -0.9937  0.6395
   55CHL1   H4B 6483   0.534   6.653  10.155 -2.3360  0.6865  0.6354
   55CHL1    C5 6484   0.502   6.599   9.943  0.1613 -0.1697  1.0611
   55CHL1    C6 6485   0.501   6.724   9.900 -0.7370  0.0841  0.5353
   55CHL1    H6 6486   0.511   6.805   9.974 -0.3226  0.9126 -0.4141
   55CHL1    C7 6487   0.477   6.772   9.763  0.1613  0.0825 -0.9087
   55CHL1   H7A 6488   0.384   6.832   9.769 -0.1886 -0.5716  0.2586
   55CHL1   H7B 6489   0.564   6.827   9.721  0.2107  0.6619 -0.0644
   55CHL1    C8 6490   0.436   6.657   9.667  0.5340  0.4569 -0.1428
   55CHL1    H8 6491   0.326   6.650   9.683  0.6988  1.0383  1.3229
   55CHL1   C14 6492   0.458   6.695   9.518  0.1620 -0.3117  0.1970
   55CHL1   H14 6493   0.568   6.698   9.505  0.0589  0.3962 -0.5699
   55CHL1   C15 6494   0.417   6.834   9.471 -0.4295 -0.1266 -0.2599
   55CHL1  H15A 6495   0.323   6.852   9.529 -0.1888 -0.2085  0.1613
   55CHL1  H15B 6496   0.493   6.911   9.496 -0.3867 -0.1803 -0.2244
   55CHL1   C16 6497   0.396   6.819   9.325 -0.4474 -0.0838  0.1237
   55CHL1  H16A 6498   0.287   6.829   9.304 -0.0081 -0.3739 -2.4582
   55CHL1  H16B 6499   0.452   6.890   9.261 -0.6594  0.9026  1.0179
   55CHL1   C17 6500   0.445   6.667   9.289 -0.4375 -0.1495  0.0608
   55CHL1   H17 6501   0.555   6.674   9.276 -0.5685 -0.7313 -1.4647
   55CHL1   C13 6502   0.413   6.591   9.418  0.7206  0.0561  0.8184
   55CHL1   C18 6503   0.259   6.568   9.433  0.4629  0.7574 -0.1615
   55CHL1  H18A 6504   0.230   6.474   9.383 -2.5973  2.0688 -0.9751
   55CHL1  H18B 6505   0.239   6.537   9.538  0.8440 -1.2700 -0.6660
   55CHL1  H18C 6506   0.193   6.657   9.420  0.5583  0.7866 -0.4414
   55CHL1   C12 6507   0.494   6.457   9.442  0.7314  0.7293 -0.4234
   55CHL1  H12A 6508   0.461   6.378   9.372  1.5672  0.1221 -0.1493
   55CHL1  H12B 6509   0.598   6.477   9.409  1.5053 -0.9347  0.9442
   55CHL1   C11 6510   0.479   6.412   9.588 -0.5749  0.1762 -0.5579
   55CHL1  H11A 6511   0.379   6.366   9.605 -0.8515  0.9990  0.0806
   55CHL1  H11B 6512   0.547   6.325   9.599  0.2362  0.8758  0.0069
   55CHL1    C9 6513   0.508   6.525   9.696 -0.2343  0.5763  0.4882
   55CHL1    H9 6514   0.613   6.541   9.663  0.0255  1.5465  1.7646
   55CHL1   C10 6515   0.495   6.481   9.841  0.3852  0.0968  0.0933
   55CHL1   C19 6516   0.359   6.405   9.859  0.0741 -0.4019  0.4082
   55CHL1  H19A 6517   0.341   6.368   9.962  1.3850 -0.3721  0.6576
   55CHL1  H19B 6518   0.280   6.481   9.838  1.3401  1.3996  1.9977
   55CHL1  H19C 6519   0.362   6.313   9.797 -1.3858  0.0077 -0.2914
   55CHL1    C1 6520   0.605   6.383   9.870 -0.0652  0.0707 -0.3546
   55CHL1   H1A 6521   0.590   6.293   9.807  2.6986 -1.8602  1.6332
   55CHL1   H1B 6522   0.703   6.422   9.835  0.6049 -1.5921 -0.3302
   55CHL1    C2 6523   0.611   6.340  10.021  0.0318 -1.4136 -0.7663
   55CHL1   H2A 6524   0.698   6.272  10.039 -0.1033 -1.6734 -1.0806
   55CHL1   H2B 6525   0.524   6.276  10.045 -1.0912  0.3699 -0.0673
   55CHL1   C20 6526   0.405   6.611   9.151 -0.7723  1.1962  0.2957
   55CHL1   H20 6527   0.312   6.552   9.166 -0.1721  0.2030  0.1467
   55CHL1   C21 6528   0.514   6.520   9.094  0.1374  0.3826  0.1328
   55CHL1  H21A 6529   0.474   6.474   9.000  1.4363 -0.4237 -0.0452
   55CHL1  H21B 6530   0.529   6.437   9.166  1.3091  0.5048  0.0256
   55CHL1  H21C 6531   0.611   6.564   9.062 -0.2111  1.3354  0.3801
   55CHL1   C22 6532   0.378   6.722   9.045  0.3459 -0.0558 -0.2554
   55CHL1  H22A 6533   0.308   6.796   9.089 -0.0720 -1.0627  0.7929
   55CHL1  H22B 6534   0.469   6.783   9.027  2.3681 -2.2909  1.9265
   55CHL1   C23 6535   0.304   6.677   8.913  0.1462  0.4754 -0.3785
   55CHL1  H23A 6536   0.314   6.573   8.876 -1.9595 -0.4527  1.5376
   55CHL1  H23B 6537   0.198   6.683   8.944 -0.3846 -1.8382 -1.6500
   55CHL1   C24 6538   0.328   6.781   8.802 -0.4585  0.0861  0.6297
   55CHL1  H24A 6539   0.251   6.774   8.723 -1.3880  0.3834  1.4934
   55CHL1  H24B 6540   0.314   6.884   8.841 -1.3167  1.0034 -1.9872
   55CHL1   C25 6541   0.465   6.767   8.727  0.2452  0.1535 -0.1703
   55CHL1   H25 6542   0.545   6.755   8.804 -0.4563  0.6465  0.6556
   55CHL1   C26 6543   0.472   6.642   8.637 -0.5339 -0.0661 -0.0558
   55CHL1  H26A 6544   0.443   6.553   8.698 -1.2214 -1.2564 -2.0618
   55CHL1  H26B 6545   0.398   6.654   8.556  2.0209 -0.7961 -2.6016
   55CHL1  H26C 6546   0.573   6.628   8.593 -0.0112 -0.1800  1.1471
   55CHL1   C27 6547   0.498   6.894   8.637 -0.3245  0.3598  0.4958
   55CHL1  H27A 6548   0.454   6.886   8.535 -1.6612  0.3886  1.0634
   55CHL1  H27B 6549   0.465   6.990   8.683  0.9826  1.0420  0.0225
   55CHL1  H27C 6550   0.609   6.891   8.632 -0.4131 -0.2688 -1.3279
   56CHL1    C3 6551   4.960   5.685  10.162 -0.0199 -0.2827  0.6319
   56CHL1    H3 6552   4.854   5.661  10.186 -0.1841  0.8529  1.0705
   56CHL1    O3 6553   5.027   5.739  10.275  0.6300  0.1272 -0.5539
   56CHL1   H3' 6554   4.991   5.827  10.287 -1.2022 -0.2153 -3.1441
   56CHL1    C4 6555   5.033   5.557  10.110  0.9144  0.2441 -0.9442
   56CHL1   H4A 6556   5.142   5.578  10.105  1.1439 -1.0787 -2.0306
   56CHL1   H4B 6557   5.011   5.475  10.182 -0.3460  0.5070 -1.0166
   56CHL1    C5 6558   4.967   5.514   9.979  0.0735  1.1440 -0.1035
   56CHL1    C6 6559   4.904   5.394   9.971  0.6743  0.2738  0.1599
   56CHL1    H6 6560   4.889   5.333  10.061 -1.1011 -2.1192 -1.7056
   56CHL1    C7 6561   4.848   5.334   9.849 -0.1616  0.0293 -0.1118
   56CHL1   H7A 6562   4.888   5.230   9.844  1.4436  0.6261 -0.0727
   56CHL1   H7B 6563   4.739   5.320   9.860 -0.2464  0.2381 -0.6584
   56CHL1    C8 6564   4.880   5.412   9.720 -0.2314 -0.4145  0.0201
   56CHL1    H8 6565   4.989   5.397   9.706 -0.1485 -1.3196  1.5058
   56CHL1   C14 6566   4.793   5.368   9.605  0.3613 -0.3997 -0.0500
   56CHL1   H14 6567   4.690   5.396   9.634 -0.4238 -0.9188 -2.2555
   56CHL1   C15 6568   4.782   5.216   9.570 -0.1026 -0.1634  0.4651
   56CHL1  H15A 6569   4.885   5.179   9.552  1.1009  2.7272  1.1950
   56CHL1  H15B 6570   4.728   5.143   9.635 -0.7175  0.4891  0.6958
   56CHL1   C16 6571   4.724   5.214   9.434  0.6578  0.1829 -0.1623
   56CHL1  H16A 6572   4.787   5.151   9.367  0.1662  0.8925 -1.3115
   56CHL1  H16B 6573   4.618   5.180   9.426  0.1382  1.6966  0.2319
   56CHL1   C17 6574   4.715   5.362   9.387 -0.2336 -0.1063  0.1731
   56CHL1   H17 6575   4.621   5.397   9.435 -0.5956 -1.4248  0.4455
   56CHL1   C13 6576   4.829   5.432   9.468  0.0946  0.6631  0.2670
   56CHL1   C18 6577   4.968   5.393   9.414 -0.3456 -1.1493 -0.2924
   56CHL1  H18A 6578   5.001   5.287   9.420 -1.0041 -1.2103  3.1881
   56CHL1  H18B 6579   4.985   5.433   9.312 -0.3961  0.8176  0.4446
   56CHL1  H18C 6580   5.040   5.443   9.482 -1.0011  0.3138 -0.6659
   56CHL1   C12 6581   4.804   5.589   9.489 -0.0470 -0.3203 -0.5827
   56CHL1  H12A 6582   4.844   5.640   9.399  1.6785 -0.8357 -0.1306
   56CHL1  H12B 6583   4.695   5.608   9.497  0.3476  1.6273  0.5028
   56CHL1   C11 6584   4.883   5.648   9.611 -0.2175  0.2289 -0.4058
   56CHL1  H11A 6585   4.988   5.664   9.578  0.4489 -1.5320  0.7867
   56CHL1  H11B 6586   4.836   5.746   9.635 -0.7043  0.0817 -0.7480
   56CHL1    C9 6587   4.869   5.563   9.740  0.9085 -0.1323  0.3164
   56CHL1    H9 6588   4.760   5.568   9.758  0.6231 -0.2793 -1.3904
   56CHL1   C10 6589   4.963   5.612   9.857  0.2357 -0.3836 -0.3941
   56CHL1   C19 6590   5.105   5.641   9.807  0.3017  0.3678 -0.2000
   56CHL1  H19A 6591   5.139   5.549   9.756 -2.7047 -1.7837  1.5543
   56CHL1  H19B 6592   5.104   5.725   9.733  2.1130  0.5948  0.0069
   56CHL1  H19C 6593   5.170   5.671   9.892 -1.0728 -1.6696  1.6062
   56CHL1    C1 6594   4.902   5.745   9.916  0.4168 -0.0478 -0.5235
   56CHL1   H1A 6595   4.912   5.822   9.837 -1.5591 -1.0527 -1.8133
   56CHL1   H1B 6596   4.794   5.729   9.937  0.1723  1.8223 -0.2733
   56CHL1    C2 6597   4.953   5.792  10.051  0.6659  0.2723  0.5577
   56CHL1   H2A 6598   4.893   5.879  10.085 -1.4890 -1.4448  1.2621
   56CHL1   H2B 6599   5.056   5.825  10.024 -0.3946 -0.2882 -4.6073
   56CHL1   C20 6600   4.721   5.396   9.244 -1.0251  0.4866  0.8735
   56CHL1   H20 6601   4.781   5.488   9.226  1.1381 -1.2921 -1.2609
   56CHL1   C21 6602   4.569   5.402   9.195 -0.4369  0.5208 -0.2779
   56CHL1  H21A 6603   4.510   5.321   9.243 -0.0031  1.1616  1.3637
   56CHL1  H21B 6604   4.558   5.394   9.085 -1.4304  0.7396 -0.1980
   56CHL1  H21C 6605   4.521   5.498   9.226  0.1290  0.7186 -0.0118
   56CHL1   C22 6606   4.800   5.285   9.165 -0.4862 -0.4290 -0.4629
   56CHL1  H22A 6607   4.899   5.256   9.206 -1.1109 -0.1726  1.2534
   56CHL1  H22B 6608   4.729   5.201   9.146  1.2812 -1.6922 -1.6311
   56CHL1   C23 6609   4.844   5.339   9.030 -1.0828  0.5099 -0.2650
   56CHL1  H23A 6610   4.757   5.394   8.988 -0.6150  1.2653 -0.2484
   56CHL1  H23B 6611   4.927   5.412   9.039  0.7270 -1.5529  0.0684
   56CHL1   C24 6612   4.874   5.219   8.932 -0.0966  0.0705  0.3878
   56CHL1  H24A 6613   4.954   5.156   8.978 -1.7235 -2.6764 -0.4366
   56CHL1  H24B 6614   4.783   5.158   8.918  1.3255 -1.8975 -0.5150
   56CHL1   C25 6615   4.924   5.281   8.802  1.0614 -0.0605 -0.3195
   56CHL1   H25 6616   4.997   5.357   8.836  0.8950 -1.4203  3.3396
   56CHL1   C26 6617   5.008   5.185   8.711  0.1696  0.1398  0.1289
   56CHL1  H26A 6618   5.090   5.150   8.777 -0.1503 -0.4360  0.2276
   56CHL1  H26B 6619   4.938   5.111   8.666  1.1523  0.7512 -2.4668
   56CHL1  H26C 6620   5.054   5.246   8.631 -0.2648 -0.1285 -0.3240
   56CHL1   C27 6621   4.802   5.339   8.730 -0.9546  0.5537  0.0382
   56CHL1  H27A 6622   4.761   5.421   8.791  1.8754  1.5682  0.6718
   56CHL1  H27B 6623   4.833   5.375   8.629  2.4311 -1.3915  0.3016
   56CHL1  H27C 6624   4.724   5.260   8.725 -1.3234  0.8215  1.4958
   57CHL1    C3 6625   0.614   0.945  10.146  0.0920  0.4653  0.0985
   57CHL1    H3 6626   0.584   1.051  10.136  1.2044  0.8731  0.9310
   57CHL1    O3 6627   0.621   0.906  10.282  0.7935  0.2649  0.2976
   57CHL1   H3' 6628   0.535   0.870  10.306  0.9157 -0.7227 -0.6803
   57CHL1    C4 6629   0.510   0.856  10.078 -0.6315  0.8453  0.8277
   57CHL1   H4A 6630   0.541   0.750  10.068  0.4347  1.1959  0.2594
   57CHL1   H4B 6631   0.409   0.856  10.123 -1.1289  2.7305 -0.2171
   57CHL1    C5 6632   0.501   0.912   9.932 -0.0825  0.8043 -0.6182
   57CHL1    C6 6633   0.388   0.962   9.881  0.1294  0.0324  0.2345
   57CHL1    H6 6634   0.297   0.982   9.938  0.4895  1.9586  0.1707
   57CHL1    C7 6635   0.378   1.023   9.744 -0.1511  0.1118  0.5237
   57CHL1   H7A 6636   0.279   1.010   9.696  1.5076 -2.4722 -2.4120
   57CHL1   H7B 6637   0.377   1.134   9.754 -0.8204  0.3158 -1.6164
   57CHL1    C8 6638   0.487   0.973   9.645  0.4089  0.0770  0.1932
   57CHL1    H8 6639   0.476   0.863   9.633  2.6861 -0.3078  1.3594
   57CHL1   C14 6640   0.476   1.048   9.514 -0.2765  0.7455  0.2349
   57CHL1   H14 6641   0.512   1.151   9.539  2.6880 -0.4123  1.0004
   57CHL1   C15 6642   0.346   1.073   9.446 -0.3598 -1.2816  0.3951
   57CHL1  H15A 6643   0.282   0.982   9.448 -0.8720 -0.8992  2.0261
   57CHL1  H15B 6644   0.289   1.154   9.497 -0.0562 -0.0825 -1.1370
   57CHL1   C16 6645   0.385   1.111   9.310  0.3803  0.5019 -1.0907
   57CHL1  H16A 6646   0.353   1.039   9.231  0.6642 -0.5697 -0.2421
   57CHL1  H16B 6647   0.348   1.213   9.286 -3.3927 -0.6282 -0.5145
   57CHL1   C17 6648   0.539   1.102   9.292  0.1675  0.1747  1.0002
   57CHL1   H17 6649   0.576   1.203   9.318 -2.9610  1.5904  0.1022
   57CHL1   C13 6650   0.576   1.009   9.411 -0.7409 -0.3308 -0.3748
   57CHL1   C18 6651   0.541   0.860   9.367 -0.0703 -0.2787 -0.3541
   57CHL1  H18A 6652   0.517   0.788   9.448  0.4858 -1.7544 -1.4847
   57CHL1  H18B 6653   0.454   0.855   9.298 -0.4359 -5.4513  0.3193
   57CHL1  H18C 6654   0.629   0.814   9.317  0.0945  1.3461 -1.6124
   57CHL1   C12 6655   0.715   1.017   9.478  0.2128 -0.2291  0.7883
   57CHL1  H12A 6656   0.797   0.985   9.410 -0.2451 -1.8919  0.9921
   57CHL1  H12B 6657   0.727   1.124   9.506 -1.0259  0.1557 -0.0806
   57CHL1   C11 6658   0.732   0.934   9.607 -0.0989 -0.3612  0.7124
   57CHL1  H11A 6659   0.720   0.827   9.580  2.1753 -0.5139  0.1599
   57CHL1  H11B 6660   0.835   0.959   9.640  0.3486 -1.7548  0.4323
   57CHL1    C9 6661   0.620   0.978   9.711 -0.5983 -0.5833 -0.0827
   57CHL1    H9 6662   0.635   1.087   9.730 -0.6551 -0.5549 -0.1965
   57CHL1   C10 6663   0.634   0.897   9.850  0.3481  0.0226  0.3595
   57CHL1   C19 6664   0.649   0.742   9.824  0.1295 -0.0761  0.0898
   57CHL1  H19A 6665   0.733   0.718   9.755 -2.2609 -1.5946 -2.3800
   57CHL1  H19B 6666   0.672   0.685   9.916 -0.5615 -0.8000 -0.1815
   57CHL1  H19C 6667   0.560   0.694   9.779 -0.2150  1.5886 -1.0967
   57CHL1    C1 6668   0.739   0.965   9.927 -0.4459 -0.1186 -0.0442
   57CHL1   H1A 6669   0.839   0.958   9.879 -0.4108 -0.8238  0.1323
   57CHL1   H1B 6670   0.723   1.075   9.932 -0.5789 -0.1960  1.4744
   57CHL1    C2 6671   0.752   0.936  10.082  0.0729  0.0227  0.1055
   57CHL1   H2A 6672   0.812   1.016  10.130  0.5928  0.0033 -0.5157
   57CHL1   H2B 6673   0.798   0.836  10.097 -1.8399 -0.9202 -0.2120
   57CHL1   C20 6674   0.591   1.075   9.154  0.0691  0.6125  0.3543
   57CHL1   H20 6675   0.573   0.971   9.118 -1.3348  1.5907 -1.8462
   57CHL1   C21 6676   0.741   1.070   9.140 -0.0796  0.1702  0.3589
   57CHL1  H21A 6677   0.801   1.143   9.199  0.0935 -1.8569  2.7860
   57CHL1  H21B 6678   0.768   1.069   9.033  0.3194 -0.2709  0.4603
   57CHL1  H21C 6679   0.779   0.968   9.165  2.3610  0.7716 -0.6933
   57CHL1   C22 6680   0.537   1.172   9.038  0.5383 -0.5569  0.6489
   57CHL1  H22A 6681   0.431   1.195   9.064  0.0144 -2.8338  0.5938
   57CHL1  H22B 6682   0.587   1.269   9.060  0.3218 -0.2148 -0.3324
   57CHL1   C23 6683   0.564   1.141   8.890  0.3372 -0.5669 -0.0783
   57CHL1  H23A 6684   0.666   1.179   8.867  0.8132 -2.1113 -0.6414
   57CHL1  H23B 6685   0.553   1.034   8.861  0.2460  0.0316 -2.3170
   57CHL1   C24 6686   0.473   1.226   8.801 -0.1594  0.3548  0.3678
   57CHL1  H24A 6687   0.372   1.219   8.848  0.1468  0.2221  0.9991
   57CHL1  H24B 6688   0.520   1.327   8.805  1.5254 -0.4042  0.0360
   57CHL1   C25 6689   0.462   1.190   8.658 -0.1189 -0.0804 -0.2762
   57CHL1   H25 6690   0.398   1.100   8.649 -1.7925  1.0007  0.6840
   57CHL1   C26 6691   0.386   1.296   8.583 -0.0349 -0.0870  0.0557
   57CHL1  H26A 6692   0.422   1.400   8.601 -1.6644  0.0645  2.7060
   57CHL1  H26B 6693   0.388   1.270   8.475  0.9724 -0.7285  0.2121
   57CHL1  H26C 6694   0.282   1.285   8.619  1.0197 -2.4549  2.6066
   57CHL1   C27 6695   0.598   1.168   8.585 -0.6082  1.1382  0.1295
   57CHL1  H27A 6696   0.673   1.246   8.613 -2.9094  3.3302  0.3592
   57CHL1  H27B 6697   0.641   1.072   8.619 -0.4192  0.9789 -0.5481
   57CHL1  H27C 6698   0.575   1.166   8.477  1.2303 -2.2824 -0.2422
   58CHL1    C3 6699   3.541   0.334  10.216  0.2304 -0.5311 -0.6754
   58CHL1    H3 6700   3.591   0.430  10.241  1.3810 -1.2640 -0.1313
   58CHL1    O3 6701   3.551   0.258  10.341  0.4031 -0.6031  0.1980
   58CHL1   H3' 6702   3.545   0.328  10.407 -0.8602 -1.3444  0.8980
   58CHL1    C4 6703   3.387   0.356  10.177 -0.5499 -0.9543  0.6787
   58CHL1   H4A 6704   3.348   0.253  10.179  0.0815 -1.1807  1.4490
   58CHL1   H4B 6705   3.327   0.402  10.258  2.4059  0.7225  2.0050
   58CHL1    C5 6706   3.376   0.420  10.041  0.1277 -1.0146 -0.6907
   58CHL1    C6 6707   3.308   0.531  10.026  1.2792 -0.1443  0.2428
   58CHL1    H6 6708   3.265   0.580  10.114  1.0807  1.5996 -0.7983
   58CHL1    C7 6709   3.291   0.596   9.894 -0.0466  0.0877  0.2214
   58CHL1   H7A 6710   3.183   0.617   9.881  0.0318 -0.0527 -0.7077
   58CHL1   H7B 6711   3.351   0.690   9.901 -1.7190  1.0997  1.1103
   58CHL1    C8 6712   3.346   0.518   9.771  0.1175  0.2914 -0.1800
   58CHL1    H8 6713   3.274   0.437   9.746  0.5628 -1.4513  3.9075
   58CHL1   C14 6714   3.372   0.611   9.659  0.4521 -0.2160 -0.0770
   58CHL1   H14 6715   3.455   0.681   9.683  1.1077 -0.8628 -0.4312
   58CHL1   C15 6716   3.257   0.714   9.623 -0.1443 -0.8378  0.5839
   58CHL1  H15A 6717   3.162   0.655   9.624 -1.2008  0.8578  2.1691
   58CHL1  H15B 6718   3.241   0.794   9.698 -0.3659 -2.4874  2.3437
   58CHL1   C16 6719   3.293   0.755   9.477 -0.2135  0.0230  1.1367
   58CHL1  H16A 6720   3.206   0.755   9.408  1.2443 -0.2254 -0.7274
   58CHL1  H16B 6721   3.347   0.851   9.468 -2.2386  0.9559 -1.4108
   58CHL1   C17 6722   3.400   0.652   9.428  0.0789 -0.1510 -0.2975
   58CHL1   H17 6723   3.498   0.703   9.441  0.6259 -1.2619 -0.0597
   58CHL1   C13 6724   3.410   0.539   9.523  0.0566 -0.1233 -0.2150
   58CHL1   C18 6725   3.299   0.434   9.494 -0.5095 -0.3818 -0.4450
   58CHL1  H18A 6726   3.194   0.470   9.502 -0.5278 -0.5997  0.2998
   58CHL1  H18B 6727   3.299   0.400   9.388  1.2787  0.8539 -0.8825
   58CHL1  H18C 6728   3.303   0.341   9.554 -0.6948 -0.9482 -1.2987
   58CHL1   C12 6729   3.547   0.477   9.550  1.1861 -1.0969  0.3203
   58CHL1  H12A 6730   3.580   0.424   9.458  0.0564  1.4370 -1.6046
   58CHL1  H12B 6731   3.610   0.563   9.583 -0.7924 -0.0086  1.3136
   58CHL1   C11 6732   3.543   0.390   9.674 -0.2967  0.4438  0.2595
   58CHL1  H11A 6733   3.485   0.300   9.644  3.1714 -1.6034 -0.5509
   58CHL1  H11B 6734   3.645   0.362   9.707 -1.6700  0.0517  4.4929
   58CHL1    C9 6735   3.480   0.455   9.803  0.3543  0.1326 -0.5431
   58CHL1    H9 6736   3.544   0.538   9.839  1.7417  0.0595 -2.7297
   58CHL1   C10 6737   3.468   0.357   9.927  0.4807  0.2944  1.0950
   58CHL1   C19 6738   3.400   0.223   9.872 -0.7154 -0.2679  0.2528
   58CHL1  H19A 6739   3.302   0.256   9.832 -0.2506 -1.5217 -1.9530
   58CHL1  H19B 6740   3.467   0.173   9.799  0.4444  1.2493  0.2298
   58CHL1  H19C 6741   3.375   0.164   9.963  1.7391 -1.1329  0.4029
   58CHL1    C1 6742   3.611   0.331   9.978 -0.6940 -0.6674  0.6698
   58CHL1   H1A 6743   3.663   0.271   9.901 -0.5049 -2.3988  2.1078
   58CHL1   H1B 6744   3.660   0.430   9.992 -2.2937  0.2971 -0.3502
   58CHL1    C2 6745   3.623   0.258  10.117 -1.3044  0.1808  0.0469
   58CHL1   H2A 6746   3.728   0.241  10.150 -2.0123 -3.3215  0.6922
   58CHL1   H2B 6747   3.592   0.153  10.096  0.0320  0.0641 -1.5386
   58CHL1   C20 6748   3.392   0.630   9.272  0.2095 -0.2876 -0.9177
   58CHL1   H20 6749   3.296   0.579   9.246 -0.7058 -0.6460  2.7650
   58CHL1   C21 6750   3.507   0.536   9.221  0.9428  0.0004  0.2472
   58CHL1  H21A 6751   3.534   0.553   9.114 -1.3396 -0.8801 -0.5155
   58CHL1  H21B 6752   3.494   0.430   9.253 -1.7283 -0.0447 -0.8362
   58CHL1  H21C 6753   3.594   0.581   9.273 -1.5248  1.2153  3.4478
   58CHL1   C22 6754   3.415   0.764   9.193  0.0063 -0.3959  0.0575
   58CHL1  H22A 6755   3.350   0.844   9.232 -0.0589 -0.7022  0.5818
   58CHL1  H22B 6756   3.523   0.790   9.199 -0.4195  1.3576  0.2671
   58CHL1   C23 6757   3.373   0.759   9.044  0.3543 -0.5101 -0.3597
   58CHL1  H23A 6758   3.428   0.676   8.995 -1.6381 -0.2849 -3.1235
   58CHL1  H23B 6759   3.267   0.728   9.047  0.6433 -1.6128 -1.2382
   58CHL1   C24 6760   3.380   0.885   8.964 -0.0371 -0.2056 -0.0008
   58CHL1  H24A 6761   3.343   0.966   9.030 -1.2766  2.1295 -3.4314
   58CHL1  H24B 6762   3.486   0.910   8.943  0.8497 -1.9337  2.1312
   58CHL1   C25 6763   3.300   0.878   8.837  0.1576 -0.1817  0.8616
   58CHL1   H25 6764   3.193   0.870   8.864  0.2680  3.0975  2.6013
   58CHL1   C26 6765   3.319   1.012   8.765 -0.3362 -0.1156  0.2232
   58CHL1  H26A 6766   3.290   1.090   8.838 -3.1903  1.3744 -2.3939
   58CHL1  H26B 6767   3.429   1.016   8.748 -0.1799 -2.2164  0.6324
   58CHL1  H26C 6768   3.264   1.017   8.668 -1.1490  1.0125  0.7375
   58CHL1   C27 6769   3.338   0.760   8.747  0.5620 -0.0823  0.1871
   58CHL1  H27A 6770   3.296   0.762   8.644  0.8787  0.3953  0.0688
   58CHL1  H27B 6771   3.448   0.772   8.739  0.8430 -0.8900  2.4712
   58CHL1  H27C 6772   3.307   0.659   8.782  2.1381 -1.3608 -1.9989
   59CHL1    C3 6773   2.569   6.471  10.388 -1.1970 -0.6208 -0.5049
   59CHL1    H3 6774   2.497   6.555  10.378  1.5868  2.0145  0.8788
   59CHL1    O3 6775   2.615   6.487  10.525  0.0246 -0.8105  0.3097
   59CHL1   H3' 6776   2.624   6.398  10.558 -1.6130 -1.6288 -1.3536
   59CHL1    C4 6777   2.523   6.326  10.377  0.2504  0.4157  0.1675
   59CHL1   H4A 6778   2.593   6.248  10.414  1.8351  1.5943 -0.2726
   59CHL1   H4B 6779   2.445   6.321  10.455  1.4197 -0.4630  1.2977
   59CHL1    C5 6780   2.475   6.290  10.232 -0.2320 -0.1331 -0.2351
   59CHL1    C6 6781   2.359   6.235  10.209 -0.3765 -0.3239 -0.4441
   59CHL1    H6 6782   2.290   6.217  10.292  1.7466 -2.4179  0.9489
   59CHL1    C7 6783   2.310   6.190  10.075 -0.4864  0.4377 -0.7790
   59CHL1   H7A 6784   2.268   6.089  10.095 -2.5146  1.4532  0.2570
   59CHL1   H7B 6785   2.224   6.258  10.053 -1.0089  1.1427  3.0286
   59CHL1    C8 6786   2.415   6.190   9.964 -1.2685  0.4085  0.5239
   59CHL1    H8 6787   2.460   6.088   9.956 -1.1904  0.5636 -1.1287
   59CHL1   C14 6788   2.352   6.209   9.819 -0.1536  0.2817 -0.7308
   59CHL1   H14 6789   2.306   6.310   9.821  0.1704  0.4177  1.2352
   59CHL1   C15 6790   2.239   6.108   9.781  0.2430 -0.3535 -0.2843
   59CHL1  H15A 6791   2.250   6.005   9.821  1.4042 -0.0179  0.2666
   59CHL1  H15B 6792   2.150   6.155   9.829  1.2233 -0.9400  2.1687
   59CHL1   C16 6793   2.232   6.120   9.631 -0.7261  0.0360  0.4068
   59CHL1  H16A 6794   2.248   6.020   9.585  0.1433 -0.8238  2.5456
   59CHL1  H16B 6795   2.141   6.172   9.595 -0.8972  2.4234  4.0371
   59CHL1   C17 6796   2.340   6.222   9.586 -0.5523  0.2791  0.1080
   59CHL1   H17 6797   2.291   6.322   9.589 -0.5569  0.3041 -0.8071
   59CHL1   C13 6798   2.447   6.209   9.697  0.2779 -0.1646 -0.0238
   59CHL1   C18 6799   2.526   6.092   9.668 -0.0110 -0.2105 -0.0603
   59CHL1  H18A 6800   2.574   6.063   9.764  1.8381  0.7188 -0.6722
   59CHL1  H18B 6801   2.473   6.000   9.634 -0.8584 -0.4080  1.7564
   59CHL1  H18C 6802   2.610   6.130   9.606  1.9623 -0.1273  2.6081
   59CHL1   C12 6803   2.534   6.333   9.729  0.1659 -0.2484 -0.6531
   59CHL1  H12A 6804   2.601   6.359   9.645  0.6375 -0.0770 -0.2249
   59CHL1  H12B 6805   2.467   6.418   9.755 -0.6248 -1.1188  0.1818
   59CHL1   C11 6806   2.615   6.320   9.863  0.3284 -0.1945  0.2762
   59CHL1  H11A 6807   2.688   6.236   9.872 -1.7716 -1.6964  4.8400
   59CHL1  H11B 6808   2.661   6.419   9.880  4.0490 -1.8258  0.2637
   59CHL1    C9 6809   2.512   6.308   9.981 -0.1335  0.5504  0.3159
   59CHL1    H9 6810   2.448   6.399   9.985 -0.1545  0.4706  3.0405
   59CHL1   C10 6811   2.577   6.318  10.125  0.4353 -0.3876  0.0702
   59CHL1   C19 6812   2.682   6.204  10.143 -0.4877  0.0268 -0.7630
   59CHL1  H19A 6813   2.738   6.219  10.238  1.9898 -0.8681 -2.0323
   59CHL1  H19B 6814   2.644   6.101  10.130  1.9367 -1.1709  1.3398
   59CHL1  H19C 6815   2.763   6.213  10.067  1.5264 -0.0331  1.3263
   59CHL1    C1 6816   2.637   6.461  10.151 -0.3703  0.6694 -0.2518
   59CHL1   H1A 6817   2.712   6.497  10.076 -1.2453  0.0905 -1.4165
   59CHL1   H1B 6818   2.551   6.528  10.133 -0.0156  1.2331  0.1206
   59CHL1    C2 6819   2.684   6.498  10.287 -0.1239 -0.2070  0.1703
   59CHL1   H2A 6820   2.726   6.601  10.294  2.0956 -1.1126  0.6330
   59CHL1   H2B 6821   2.772   6.436  10.312  1.2423  1.3740 -0.5841
   59CHL1   C20 6822   2.389   6.215   9.438  0.0432 -0.2123  0.2813
   59CHL1   H20 6823   2.418   6.109   9.424 -0.3242 -0.6746  2.8194
   59CHL1   C21 6824   2.506   6.317   9.399 -0.4772  0.0867  0.6551
   59CHL1  H21A 6825   2.482   6.420   9.434  0.0825  1.1707 -2.0415
   59CHL1  H21B 6826   2.514   6.320   9.288  0.6757  2.5751  0.7707
   59CHL1  H21C 6827   2.603   6.279   9.438 -0.8960 -2.3084 -0.5402
   59CHL1   C22 6828   2.272   6.247   9.337  1.0112 -0.1459  0.2902
   59CHL1  H22A 6829   2.174   6.235   9.388 -0.8530 -0.9387 -3.3290
   59CHL1  H22B 6830   2.277   6.354   9.308  0.3115 -0.1797  0.0331
   59CHL1   C23 6831   2.276   6.149   9.217  0.5977  0.2933  0.0548
   59CHL1  H23A 6832   2.366   6.176   9.157  1.9266 -2.8206  0.5635
   59CHL1  H23B 6833   2.300   6.045   9.248 -0.4773  0.0669  0.1508
   59CHL1   C24 6834   2.146   6.142   9.144  0.4160  0.0398  0.2029
   59CHL1  H24A 6835   2.066   6.096   9.207 -0.5583  0.9774 -0.3194
   59CHL1  H24B 6836   2.118   6.248   9.125  2.5936  0.4170 -1.0509
   59CHL1   C25 6837   2.150   6.070   9.008 -0.0999  0.3346  0.0813
   59CHL1   H25 6838   2.200   5.972   9.021  1.4642  1.0068 -0.6606
   59CHL1   C26 6839   2.012   6.039   8.954  0.3379  0.1504 -0.0080
   59CHL1  H26A 6840   2.022   5.991   8.854  1.9392 -2.8305  1.4965
   59CHL1  H26B 6841   1.969   5.971   9.031  3.7719  0.9489  2.7692
   59CHL1  H26C 6842   1.948   6.129   8.944  0.1523 -0.1430 -1.6128
   59CHL1   C27 6843   2.223   6.142   8.890 -0.4596 -0.0755  0.5732
   59CHL1  H27A 6844   2.219   6.071   8.804  0.4461 -0.9255  1.2171
   59CHL1  H27B 6845   2.172   6.240   8.883 -0.3075 -0.1225 -1.4939
   59CHL1  H27C 6846   2.330   6.162   8.911 -0.8308  0.2979  2.1615
   60CHL1    C3 6847   1.960   5.686  10.301 -0.5301  0.3636  0.2747
   60CHL1    H3 6848   1.896   5.595  10.298 -0.4100  0.2916 -0.3681
   60CHL1    O3 6849   1.990   5.717  10.434  0.6988 -0.1172 -0.5890
   60CHL1   H3' 6850   2.084   5.722  10.450  0.4285 -0.7861  1.3156
   60CHL1    C4 6851   2.087   5.667  10.215  0.2351  1.1017 -0.0522
   60CHL1   H4A 6852   2.154   5.755  10.210 -0.1559  1.3334 -1.5636
   60CHL1   H4B 6853   2.147   5.585  10.260  1.7202  0.4708 -3.0366
   60CHL1    C5 6854   2.050   5.635  10.069 -0.3002 -0.5160  0.1693
   60CHL1    C6 6855   2.090   5.527   9.997 -1.0197  0.1505 -0.6053
   60CHL1    H6 6856   2.155   5.450  10.039 -2.3723 -1.3690 -1.2252
   60CHL1    C7 6857   2.044   5.509   9.857 -0.3944 -0.6199  0.0274
   60CHL1   H7A 6858   2.123   5.464   9.794  1.5718  0.2439  1.8321
   60CHL1   H7B 6859   1.963   5.434   9.842 -1.3182  0.6037 -1.2690
   60CHL1    C8 6860   2.012   5.641   9.780  0.5876  0.4377  0.0308
   60CHL1    H8 6861   2.100   5.706   9.763  0.4203  0.7622  0.4017
   60CHL1   C14 6862   1.950   5.612   9.642 -0.3645  0.0576 -0.1307
   60CHL1   H14 6863   1.860   5.549   9.661 -0.0681 -0.9543 -1.9610
   60CHL1   C15 6864   2.027   5.530   9.532  0.1259  0.7263 -0.1418
   60CHL1  H15A 6865   2.134   5.557   9.548  0.2768 -0.4400  0.8808
   60CHL1  H15B 6866   2.035   5.420   9.546  1.5892  0.5227 -2.4379
   60CHL1   C16 6867   1.959   5.569   9.399 -0.3506 -0.0292 -0.4941
   60CHL1  H16A 6868   2.042   5.601   9.332 -1.8229  1.0425 -1.8379
   60CHL1  H16B 6869   1.913   5.476   9.359  1.3014 -1.9154  1.8632
   60CHL1   C17 6870   1.858   5.683   9.431 -0.3113 -0.4978 -0.2401
   60CHL1   H17 6871   1.758   5.633   9.430 -1.5554  1.9046  0.4597
   60CHL1   C13 6872   1.897   5.736   9.568 -0.6862  0.2879 -0.2998
   60CHL1   C18 6873   2.024   5.835   9.553  0.8042  0.3492  0.2107
   60CHL1  H18A 6874   2.067   5.869   9.649 -2.6932  1.8611  1.3497
   60CHL1  H18B 6875   2.108   5.786   9.500 -0.0913 -0.4879 -0.4512
   60CHL1  H18C 6876   1.979   5.922   9.499  2.1273  0.6203 -0.4809
   60CHL1   C12 6877   1.787   5.805   9.653 -0.4611  0.1618 -0.5176
   60CHL1  H12A 6878   1.744   5.897   9.607 -1.5163 -0.5511 -0.9614
   60CHL1  H12B 6879   1.705   5.731   9.650  1.3598 -2.0085  1.0978
   60CHL1   C11 6880   1.839   5.834   9.792 -0.1410 -0.0545 -0.5931
   60CHL1  H11A 6881   1.908   5.920   9.781  1.5012 -1.1645  0.7238
   60CHL1  H11B 6882   1.767   5.882   9.863  1.2866 -1.4909  1.9060
   60CHL1    C9 6883   1.909   5.719   9.865 -0.3293 -0.2639 -0.5789
   60CHL1    H9 6884   1.827   5.644   9.870  0.9202 -1.5668  1.0118
   60CHL1   C10 6885   1.962   5.751  10.014 -0.2169  0.1046  0.8412
   60CHL1   C19 6886   2.048   5.879   9.989 -0.4990 -0.8495  0.1297
   60CHL1  H19A 6887   2.108   5.914  10.076  0.8253  0.2101 -1.1625
   60CHL1  H19B 6888   2.119   5.867   9.904 -0.4073 -0.4504  0.1481
   60CHL1  H19C 6889   1.982   5.964   9.963  1.7919  0.5536 -1.2455
   60CHL1    C1 6890   1.839   5.774  10.102 -0.4062  0.4978 -0.4360
   60CHL1   H1A 6891   1.789   5.863  10.058  0.1083  1.5245  1.0167
   60CHL1   H1B 6892   1.761   5.699  10.075  0.6783 -0.1453 -1.8127
   60CHL1    C2 6893   1.877   5.796  10.244  0.0880  0.4392 -0.7183
   60CHL1   H2A 6894   1.785   5.803  10.307 -0.4992 -0.6443 -1.4535
   60CHL1   H2B 6895   1.932   5.891  10.261  0.9894  0.6821 -4.6967
   60CHL1   C20 6896   1.842   5.783   9.310  0.5197 -0.3242  0.2054
   60CHL1   H20 6897   1.934   5.846   9.317  1.5985 -2.0793  3.1108
   60CHL1   C21 6898   1.724   5.880   9.328  0.2858 -0.1002 -0.2277
   60CHL1  H21A 6899   1.699   5.929   9.231 -2.1712  2.1614  1.4916
   60CHL1  H21B 6900   1.724   5.956   9.408  1.9872 -1.6855  1.3093
   60CHL1  H21C 6901   1.627   5.826   9.334  1.3837 -2.0746  0.1089
   60CHL1   C22 6902   1.844   5.726   9.169 -0.1551  0.1808  0.0557
   60CHL1  H22A 6903   1.836   5.810   9.096 -1.2005 -0.9371 -1.1445
   60CHL1  H22B 6904   1.941   5.678   9.147 -0.2822  1.2462 -3.1407
   60CHL1   C23 6905   1.725   5.634   9.140  0.5806 -0.1154 -0.8027
   60CHL1  H23A 6906   1.717   5.553   9.216  0.0236 -0.7681 -1.5465
   60CHL1  H23B 6907   1.631   5.691   9.158 -0.5848 -1.5830 -2.0655
   60CHL1   C24 6908   1.708   5.569   9.000  0.2477  0.0130  0.0496
   60CHL1  H24A 6909   1.805   5.519   8.982  1.2370  1.5954  0.9110
   60CHL1  H24B 6910   1.629   5.491   9.011  0.0770 -0.1240 -1.8477
   60CHL1   C25 6911   1.664   5.660   8.885  0.2471 -0.1412  0.2595
   60CHL1   H25 6912   1.590   5.737   8.918 -0.2097 -0.2663 -0.4480
   60CHL1   C26 6913   1.788   5.723   8.821  0.7521 -0.1547 -0.1277
   60CHL1  H26A 6914   1.866   5.646   8.800  1.4544  1.1147 -2.2657
   60CHL1  H26B 6915   1.749   5.766   8.727  0.8025  0.1521 -0.0088
   60CHL1  H26C 6916   1.839   5.801   8.882 -1.0391  2.4976 -1.9666
   60CHL1   C27 6917   1.595   5.578   8.772 -0.6660 -0.1205 -0.0229
   60CHL1  H27A 6918   1.669   5.509   8.727 -0.7376 -1.7472  2.2845
   60CHL1  H27B 6919   1.501   5.530   8.807 -0.0035  0.1850  2.2959
   60CHL1  H27C 6920   1.573   5.642   8.684  1.6651 -0.3243 -0.7712
   61CHL1    C3 6921   5.474   4.049  10.321 -0.6731  0.8284 -0.6041
   61CHL1    H3 6922   5.552   3.970  10.319 -1.0657  0.3341  2.1841
   61CHL1    O3 6923   5.404   4.063  10.445 -0.8718 -0.1722 -0.5633
   61CHL1   H3' 6924   5.374   3.972  10.452 -0.9029 -0.0670  0.7263
   61CHL1    C4 6925   5.544   4.180  10.287  0.6157  0.3081 -0.1955
   61CHL1   H4A 6926   5.493   4.278  10.282  1.3858  0.6863 -0.7348
   61CHL1   H4B 6927   5.623   4.195  10.364  0.2911 -0.2376  0.2486
   61CHL1    C5 6928   5.616   4.164  10.152  0.4279  0.7183 -0.1907
   61CHL1    C6 6929   5.752   4.178  10.137  0.2641 -0.7599 -0.2980
   61CHL1    H6 6930   5.817   4.199  10.223 -0.5396 -1.9331  0.5993
   61CHL1    C7 6931   5.815   4.170  10.005 -0.1890  0.2567 -0.5309
   61CHL1   H7A 6932   5.888   4.254   9.994 -1.8601  1.8359  0.2106
   61CHL1   H7B 6933   5.871   4.074   9.996  1.4430  1.1460 -0.2098
   61CHL1    C8 6934   5.722   4.193   9.889  0.2388  0.5755 -0.0691
   61CHL1    H8 6935   5.705   4.302   9.888 -1.0793  0.3728 -0.4636
   61CHL1   C14 6936   5.791   4.148   9.759 -0.1518 -0.1347  0.3195
   61CHL1   H14 6937   5.804   4.037   9.764 -1.1154 -0.2413  0.5890
   61CHL1   C15 6938   5.918   4.220   9.727 -1.2563 -0.1195 -0.8326
   61CHL1  H15A 6939   5.903   4.326   9.755 -1.5590 -0.5902  0.8906
   61CHL1  H15B 6940   6.007   4.188   9.786 -2.4540 -2.3424 -0.1775
   61CHL1   C16 6941   5.941   4.213   9.575  0.0854  0.3630  0.2220
   61CHL1  H16A 6942   5.963   4.318   9.544  0.6444  0.3195  0.4671
   61CHL1  H16B 6943   6.022   4.145   9.542  0.5471  0.5205  1.0385
   61CHL1   C17 6944   5.817   4.132   9.524  0.1445 -0.2927  0.5104
   61CHL1   H17 6945   5.841   4.026   9.542 -2.0186 -1.2046 -1.6436
   61CHL1   C13 6946   5.711   4.162   9.631  0.1840 -0.0604 -0.3191
   61CHL1   C18 6947   5.678   4.314   9.607 -0.4980  0.5708 -0.4463
   61CHL1  H18A 6948   5.597   4.330   9.533 -1.2590 -0.1500  0.2212
   61CHL1  H18B 6949   5.644   4.355   9.704  1.7714  0.2811  0.5214
   61CHL1  H18C 6950   5.766   4.378   9.585  0.6927 -0.5848  0.7874
   61CHL1   C12 6951   5.585   4.073   9.636 -0.6592 -0.1366 -0.0727
   61CHL1  H12A 6952   5.510   4.067   9.554  1.8027  1.7243 -2.5639
   61CHL1  H12B 6953   5.620   3.968   9.628 -1.0687 -0.2290 -0.6769
   61CHL1   C11 6954   5.509   4.093   9.775 -0.1188 -0.4062  0.3111
   61CHL1  H11A 6955   5.448   4.185   9.761 -0.6912 -0.6971  0.8476
   61CHL1  H11B 6956   5.429   4.017   9.783 -3.5615  3.0041 -0.3163
   61CHL1    C9 6957   5.593   4.111   9.905 -0.6290  0.6052 -0.1749
   61CHL1    H9 6958   5.624   4.006   9.925 -1.6717  0.3467  0.0634
   61CHL1   C10 6959   5.516   4.144  10.034  0.2709 -0.3200 -0.6515
   61CHL1   C19 6960   5.460   4.282  10.016 -0.7654 -0.2123  0.0783
   61CHL1  H19A 6961   5.396   4.321  10.098  0.6930 -3.0093  2.6024
   61CHL1  H19B 6962   5.537   4.359   9.994  0.7495 -1.6982  0.0697
   61CHL1  H19C 6963   5.390   4.290   9.929  0.6259  1.1934 -0.9358
   61CHL1    C1 6964   5.414   4.032  10.074 -0.1369 -0.2673 -0.1626
   61CHL1   H1A 6965   5.328   4.044  10.005  0.9316 -0.6626 -1.5807
   61CHL1   H1B 6966   5.466   3.937  10.052 -1.6995 -0.5430 -2.8574
   61CHL1    C2 6967   5.364   4.020  10.218 -0.8037 -0.0198 -0.2817
   61CHL1   H2A 6968   5.326   3.919  10.244 -2.2621 -0.2086 -2.9951
   61CHL1   H2B 6969   5.288   4.100  10.231 -1.2283 -0.6519  1.1828
   61CHL1   C20 6970   5.782   4.156   9.378  0.5772 -0.3521  0.9978
   61CHL1   H20 6971   5.707   4.238   9.376  0.2287 -0.6645  1.2484
   61CHL1   C21 6972   5.710   4.027   9.332 -0.3737  0.4818 -0.8524
   61CHL1  H21A 6973   5.619   3.996   9.389  0.1001 -0.0387 -0.3744
   61CHL1  H21B 6974   5.779   3.940   9.334  1.7507  2.1730  0.6314
   61CHL1  H21C 6975   5.675   4.037   9.227 -1.2678  3.3036 -0.3231
   61CHL1   C22 6976   5.904   4.200   9.285  0.5152 -0.2059  0.3947
   61CHL1  H22A 6977   5.944   4.296   9.322 -1.3998  1.4353 -1.6105
   61CHL1  H22B 6978   5.985   4.125   9.297  0.7397  0.5717  4.4569
   61CHL1   C23 6979   5.867   4.216   9.137 -0.1002  0.5100 -0.6798
   61CHL1  H23A 6980   5.854   4.115   9.091  2.4212 -0.4932  0.7375
   61CHL1  H23B 6981   5.771   4.270   9.130 -0.6552 -0.4109 -0.2724
   61CHL1   C24 6982   5.968   4.298   9.059  0.2046 -0.5111 -0.5110
   61CHL1  H24A 6983   5.996   4.388   9.118  0.8828 -1.9740  1.4589
   61CHL1  H24B 6984   6.058   4.232   9.061 -1.6467 -3.0717  2.3842
   61CHL1   C25 6985   5.941   4.310   8.914 -0.1273 -0.3692  0.3239
   61CHL1   H25 6986   5.854   4.375   8.889 -0.4757 -0.7915  0.4438
   61CHL1   C26 6987   6.057   4.385   8.851  0.9695  0.2517 -0.3375
   61CHL1  H26A 6988   6.148   4.322   8.860  0.4579 -0.2391  1.5935
   61CHL1  H26B 6989   6.039   4.400   8.743 -0.2298  0.4268 -0.1235
   61CHL1  H26C 6990   6.075   4.486   8.895  0.1851  0.5428 -0.6783
   61CHL1   C27 6991   5.920   4.182   8.839  0.4582  0.4882  0.0587
   61CHL1  H27A 6992   5.872   4.199   8.741  0.7072  0.6536 -0.0343
   61CHL1  H27B 6993   6.008   4.114   8.836 -2.6046 -3.6713 -0.3000
   61CHL1  H27C 6994   5.849   4.128   8.905  0.1310  0.7821 -0.0524
   62CHL1    C3 6995   0.394   0.430  10.078 -0.1290 -0.4171 -0.1574
   62CHL1    H3 6996   0.453   0.524  10.073 -1.2281  0.2508 -0.6782
   62CHL1    O3 6997   0.413   0.380  10.215  0.4482  0.3194  0.1879
   62CHL1   H3' 6998   0.326   0.344  10.236  0.4548 -1.0446 -1.8816
   62CHL1    C4 6999   0.248   0.459  10.051 -0.2432  0.0422 -0.3170
   62CHL1   H4A 7000   0.188   0.368  10.073  0.1549  0.1789  1.4730
   62CHL1   H4B 7001   0.206   0.528  10.127 -2.9288 -3.5463  1.6369
   62CHL1    C5 7002   0.233   0.513   9.913  0.5288  0.7483  0.0041
   62CHL1    C6 7003   0.179   0.637   9.894  1.5363 -0.2021  0.2786
   62CHL1    H6 7004   0.145   0.697   9.979 -0.9053 -1.0123 -0.0713
   62CHL1    C7 7005   0.164   0.699   9.759  0.3959  0.0748 -0.1859
   62CHL1   H7A 7006   0.068   0.754   9.769  0.0814 -0.7582  1.5256
   62CHL1   H7B 7007   0.248   0.770   9.746  2.0905 -1.5475  1.6746
   62CHL1    C8 7008   0.172   0.602   9.641  0.2042 -0.0308  0.7686
   62CHL1    H8 7009   0.074   0.550   9.635 -0.0504  0.4206  1.0374
   62CHL1   C14 7010   0.179   0.672   9.502  0.3676 -0.3486  0.2445
   62CHL1   H14 7011   0.269   0.737   9.505 -1.2074  1.8772  0.4493
   62CHL1   C15 7012   0.066   0.763   9.464  0.2222 -0.1938 -0.0685
   62CHL1  H15A 7013  -0.036   0.749   9.507 -0.0516  1.2393 -0.2238
   62CHL1  H15B 7014   0.076   0.867   9.502 -0.1638 -0.2380  0.1544
   62CHL1   C16 7015   0.068   0.779   9.308 -0.6544  0.1148 -0.2908
   62CHL1  H16A 7016  -0.033   0.753   9.269  0.3405 -1.3483 -1.9732
   62CHL1  H16B 7017   0.095   0.881   9.276  1.3186 -1.0246 -2.3545
   62CHL1   C17 7018   0.174   0.667   9.268  0.0371 -0.7198 -0.1372
   62CHL1   H17 7019   0.273   0.717   9.257  0.6150 -1.7094  0.5078
   62CHL1   C13 7020   0.187   0.574   9.385 -0.1013  0.1902 -0.0695
   62CHL1   C18 7021   0.065   0.478   9.375  0.2238  0.7073  0.4268
   62CHL1  H18A 7022   0.054   0.408   9.461  3.3932  0.8156  1.0153
   62CHL1  H18B 7023  -0.033   0.526   9.355  0.1831  0.1866 -0.6632
   62CHL1  H18C 7024   0.080   0.411   9.288 -3.6158  0.9929 -0.5415
   62CHL1   C12 7025   0.320   0.503   9.406 -0.1904 -0.7437  0.0977
   62CHL1  H12A 7026   0.347   0.440   9.319 -0.9147 -1.2453  0.2310
   62CHL1  H12B 7027   0.405   0.574   9.418  0.3407 -1.3711  0.0941
   62CHL1   C11 7028   0.331   0.422   9.534  0.3524  0.3097  0.1403
   62CHL1  H11A 7029   0.261   0.338   9.517 -0.0902  0.7431 -0.1923
   62CHL1  H11B 7030   0.439   0.394   9.542  0.7454  1.1499 -1.8772
   62CHL1    C9 7031   0.292   0.509   9.658 -0.1285 -0.5926  0.2622
   62CHL1    H9 7032   0.378   0.579   9.662 -0.7085  0.2204 -1.4053
   62CHL1   C10 7033   0.289   0.433   9.795  0.3407  1.1430  0.1319
   62CHL1   C19 7034   0.183   0.318   9.783 -0.1805  0.6913 -0.2872
   62CHL1  H19A 7035   0.229   0.235   9.725  0.6633  0.0247  1.3043
   62CHL1  H19B 7036   0.159   0.269   9.880  0.0935  1.6148  0.2476
   62CHL1  H19C 7037   0.086   0.354   9.741  0.1218  0.4017 -1.2343
   62CHL1    C1 7038   0.422   0.369   9.825  0.0496  0.1475 -0.0882
   62CHL1   H1A 7039   0.437   0.284   9.755 -2.5715 -0.6877  0.2938
   62CHL1   H1B 7040   0.496   0.449   9.803  2.0521 -1.5459  0.3660
   62CHL1    C2 7041   0.442   0.327   9.976 -0.4590  0.8827  0.0461
   62CHL1   H2A 7042   0.548   0.295   9.990 -1.0868 -0.2107  2.8076
   62CHL1   H2B 7043   0.381   0.236   9.997 -2.0608  2.6407  3.4820
   62CHL1   C20 7044   0.151   0.616   9.119  0.3015 -0.4956 -0.7078
   62CHL1   H20 7045   0.062   0.552   9.100  1.7364 -1.7528 -3.5629
   62CHL1   C21 7046   0.263   0.533   9.073 -0.6862  0.1735  0.1799
   62CHL1  H21A 7047   0.268   0.443   9.138 -1.7189 -1.7322 -2.2897
   62CHL1  H21B 7048   0.359   0.584   9.094 -0.7108  0.3166 -0.0562
   62CHL1  H21C 7049   0.256   0.501   8.967 -2.1009 -1.4540  0.7395
   62CHL1   C22 7050   0.123   0.737   9.025  0.7307  0.6546 -0.6880
   62CHL1  H22A 7051   0.028   0.790   9.047 -1.2948 -2.1089 -2.3824
   62CHL1  H22B 7052   0.207   0.810   9.029  0.2328  1.2335 -0.8771
   62CHL1   C23 7053   0.102   0.711   8.873 -0.0411 -0.0875 -0.6646
   62CHL1  H23A 7054   0.107   0.819   8.846  0.5454  0.3149  1.0284
   62CHL1  H23B 7055   0.188   0.659   8.824 -0.2897 -1.6639  0.5426
   62CHL1   C24 7056  -0.024   0.641   8.843 -0.1103  0.4890  0.1824
   62CHL1  H24A 7057  -0.018   0.537   8.884  3.2724  0.9298  0.9446
   62CHL1  H24B 7058  -0.103   0.698   8.895  1.4595  0.5578  2.5755
   62CHL1   C25 7059  -0.058   0.624   8.692 -0.7423 -0.0949 -0.1738
   62CHL1   H25 7060  -0.016   0.713   8.642 -0.4616 -0.0572  0.1266
   62CHL1   C26 7061   0.022   0.505   8.630 -0.3781 -0.0106  0.7011
   62CHL1  H26A 7062   0.128   0.513   8.664  0.4540 -1.1331 -1.5608
   62CHL1  H26B 7063  -0.009   0.407   8.671 -0.9461 -0.0219  0.2392
   62CHL1  H26C 7064   0.013   0.509   8.520  1.1235 -3.0022  0.4135
   62CHL1   C27 7065  -0.207   0.613   8.681  0.1806  0.0424  0.5756
   62CHL1  H27A 7066  -0.255   0.710   8.702 -0.7912 -1.1354  4.1710
   62CHL1  H27B 7067  -0.235   0.584   8.577  0.3347  2.7933 -0.2663
   62CHL1  H27C 7068  -0.248   0.527   8.739  0.0896 -0.9177 -0.8583
   63CHL1    C3 7069   1.157   2.824  10.342 -0.1310  0.2193 -0.5278
   63CHL1    H3 7070   1.072   2.752  10.346 -0.6438  0.7598 -1.4411
   63CHL1    O3 7071   1.208   2.843  10.473 -0.5600  0.1439  0.7004
   63CHL1   H3' 7072   1.295   2.877  10.451 -0.7035  1.5339  2.2295
   63CHL1    C4 7073   1.274   2.765  10.261  0.0592  0.5668  0.2019
   63CHL1   H4A 7074   1.375   2.802  10.287  1.1434 -2.7744  1.0219
   63CHL1   H4B 7075   1.280   2.660  10.296 -0.3183 -0.0997 -1.6468
   63CHL1    C5 7076   1.263   2.770  10.109  0.3031  0.5444  0.3035
   63CHL1    C6 7077   1.281   2.663  10.032 -0.0626  0.1366 -0.5556
   63CHL1    H6 7078   1.301   2.568  10.084 -0.0154  1.7861  2.5478
   63CHL1    C7 7079   1.259   2.662   9.886 -0.8092 -0.1376  0.0761
   63CHL1   H7A 7080   1.333   2.600   9.832  1.7851  1.4261  1.7677
   63CHL1   H7B 7081   1.163   2.612   9.860 -0.6809 -2.0045  2.9758
   63CHL1    C8 7082   1.271   2.809   9.821  0.7372  0.0862 -0.0657
   63CHL1    H8 7083   1.377   2.836   9.839  0.0138  2.1361  1.1964
   63CHL1   C14 7084   1.243   2.814   9.673 -0.1496  0.4671 -0.0061
   63CHL1   H14 7085   1.142   2.771   9.656 -0.5245  2.2325 -2.6622
   63CHL1   C15 7086   1.323   2.718   9.583 -0.1303 -0.3965 -0.2003
   63CHL1  H15A 7087   1.433   2.712   9.600 -0.0782 -0.3221 -0.5104
   63CHL1  H15B 7088   1.280   2.616   9.586 -1.1622  0.0196 -0.6211
   63CHL1   C16 7089   1.300   2.778   9.441  0.0039 -0.1089  0.6480
   63CHL1  H16A 7090   1.401   2.805   9.404  0.3177 -0.2647  1.3911
   63CHL1  H16B 7091   1.251   2.700   9.380 -1.9547 -0.0875  2.1253
   63CHL1   C17 7092   1.219   2.914   9.461 -0.4784 -0.6573  0.4824
   63CHL1   H17 7093   1.110   2.890   9.457 -0.6812  0.1187  1.1255
   63CHL1   C13 7094   1.240   2.955   9.607 -0.4390  0.3422  0.6509
   63CHL1   C18 7095   1.375   3.025   9.631  0.3907  0.2574 -0.2594
   63CHL1  H18A 7096   1.443   2.970   9.563  1.3481  1.5632 -0.3784
   63CHL1  H18B 7097   1.367   3.132   9.603 -0.1753 -0.4513 -2.9606
   63CHL1  H18C 7098   1.410   3.016   9.736  1.0426  1.7461 -0.3350
   63CHL1   C12 7099   1.117   3.027   9.676 -0.1871 -0.1272  0.4311
   63CHL1  H12A 7100   1.121   3.132   9.643  2.3302 -0.5659 -0.7667
   63CHL1  H12B 7101   1.023   2.977   9.645  0.0856 -2.0219  2.4824
   63CHL1   C11 7102   1.144   3.031   9.830  0.1097  0.0557  0.0834
   63CHL1  H11A 7103   1.231   3.097   9.851 -0.2146  0.1183  1.2792
   63CHL1  H11B 7104   1.057   3.080   9.878 -2.2255 -2.5588 -1.2871
   63CHL1    C9 7105   1.171   2.897   9.900  0.5851  0.3159  0.0042
   63CHL1    H9 7106   1.075   2.840   9.904  1.1599 -0.6827 -0.3108
   63CHL1   C10 7107   1.210   2.907  10.053 -0.0118 -0.7498  0.7402
   63CHL1   C19 7108   1.328   2.999  10.070 -0.4014  0.2813 -0.0316
   63CHL1  H19A 7109   1.401   2.985   9.988  0.1876 -0.1599  0.5727
   63CHL1  H19B 7110   1.303   3.107  10.063  0.7757  0.6299  1.0485
   63CHL1  H19C 7111   1.376   2.988  10.169 -1.0349  2.6698  0.5842
   63CHL1    C1 7112   1.087   2.959  10.137  0.7234 -0.2324  0.0280
   63CHL1   H1A 7113   1.062   3.064  10.110  0.5672 -0.3299 -0.2140
   63CHL1   H1B 7114   0.994   2.900  10.121  1.5701 -1.5148 -0.2521
   63CHL1    C2 7115   1.113   2.964  10.287  0.2709 -0.2012  0.0664
   63CHL1   H2A 7116   1.019   3.002  10.331  2.0604  3.4194  0.9361
   63CHL1   H2B 7117   1.190   3.039  10.317 -0.4915 -0.1974  2.1073
   63CHL1   C20 7118   1.245   3.010   9.347  0.0107  0.1078 -0.2252
   63CHL1   H20 7119   1.345   3.053   9.370 -0.4353 -0.4231  2.9034
   63CHL1   C21 7120   1.164   3.144   9.354  0.1224 -0.4340 -0.1671
   63CHL1  H21A 7121   1.056   3.124   9.333 -0.4802  1.2311  1.2098
   63CHL1  H21B 7122   1.217   3.219   9.293 -0.5611 -0.0218 -0.2646
   63CHL1  H21C 7123   1.181   3.179   9.458 -0.6800  0.7164 -0.4107
   63CHL1   C22 7124   1.255   2.960   9.205 -0.1699 -0.1903 -0.5956
   63CHL1  H22A 7125   1.322   2.872   9.201  1.7849  1.1958  0.7526
   63CHL1  H22B 7126   1.153   2.934   9.171 -0.9786  3.2631 -1.0752
   63CHL1   C23 7127   1.321   3.062   9.104 -0.2419 -0.6327 -0.4955
   63CHL1  H23A 7128   1.255   3.149   9.086  0.2352  0.0124  0.8039
   63CHL1  H23B 7129   1.405   3.118   9.151  0.4008  0.2604 -2.6658
   63CHL1   C24 7130   1.348   3.013   8.961 -0.5629  0.0025  0.1543
   63CHL1  H24A 7131   1.381   3.095   8.894  0.1184  0.0378  0.5312
   63CHL1  H24B 7132   1.434   2.944   8.969  0.2946  1.2506  2.3065
   63CHL1   C25 7133   1.237   2.927   8.900 -0.0291 -0.6508 -0.0910
   63CHL1   H25 7134   1.210   2.848   8.973  0.3568 -0.6814  0.0171
   63CHL1   C26 7135   1.107   2.995   8.862  0.0790  0.3698  0.4103
   63CHL1  H26A 7136   1.027   2.922   8.836  1.3392 -0.5740 -0.8730
   63CHL1  H26B 7137   1.067   3.050   8.951 -1.5077  2.1773 -1.3575
   63CHL1  H26C 7138   1.125   3.070   8.781 -1.8429  0.2538 -0.1544
   63CHL1   C27 7139   1.304   2.868   8.774 -0.2971  0.8215  0.6545
   63CHL1  H27A 7140   1.346   2.959   8.726  0.3061  0.8895  1.3159
   63CHL1  H27B 7141   1.388   2.800   8.797  0.0018  1.0864  0.3511
   63CHL1  H27C 7142   1.226   2.830   8.704 -0.4561  0.7739  0.8585
   64CHL1    C3 7143   0.417   1.326  10.110  0.8020 -0.4492  0.8452
   64CHL1    H3 7144   0.411   1.226  10.061  1.9210 -0.6044  1.0225
   64CHL1    O3 7145   0.417   1.305  10.251 -0.3435 -0.0987 -0.0095
   64CHL1   H3' 7146   0.439   1.386  10.297 -0.6697 -0.3912  0.6621
   64CHL1    C4 7147   0.538   1.408  10.074 -0.1386 -0.0899 -0.4197
   64CHL1   H4A 7148   0.517   1.500  10.133 -0.3741 -1.2989  1.4313
   64CHL1   H4B 7149   0.635   1.364  10.108  0.7137  2.4280  0.5798
   64CHL1    C5 7150   0.544   1.425   9.919 -0.7533  0.3120  0.7362
   64CHL1    C6 7151   0.649   1.382   9.848 -0.7504  0.2512  0.0479
   64CHL1    H6 7152   0.733   1.333   9.898 -1.0533  0.4713  0.7702
   64CHL1    C7 7153   0.667   1.407   9.701 -0.0438  0.4608  0.2802
   64CHL1   H7A 7154   0.767   1.453   9.686  0.4279 -0.0841  1.6878
   64CHL1   H7B 7155   0.661   1.307   9.652 -1.8380 -0.1794  1.7594
   64CHL1    C8 7156   0.564   1.493   9.639 -0.1373  0.4897 -0.3533
   64CHL1    H8 7157   0.588   1.598   9.666 -0.3768  0.1262  1.3173
   64CHL1   C14 7158   0.555   1.479   9.490  0.2764  0.0829  0.6225
   64CHL1   H14 7159   0.532   1.373   9.465 -0.2076 -0.2665  2.5157
   64CHL1   C15 7160   0.686   1.512   9.419 -0.2947 -0.2840  0.1888
   64CHL1  H15A 7161   0.724   1.608   9.462  0.1912 -0.7906  0.9001
   64CHL1  H15B 7162   0.762   1.434   9.440 -1.1327 -1.6499 -1.7493
   64CHL1   C16 7163   0.637   1.527   9.279 -0.3529 -0.6919 -0.3061
   64CHL1  H16A 7164   0.661   1.628   9.240 -0.1493 -1.1198 -1.3216
   64CHL1  H16B 7165   0.673   1.441   9.219  0.0034 -1.1002  0.4807
   64CHL1   C17 7166   0.484   1.526   9.274  0.3610 -0.1412 -0.2802
   64CHL1   H17 7167   0.451   1.422   9.253  1.1254 -0.8073  1.6781
   64CHL1   C13 7168   0.439   1.554   9.417  0.0518  0.0946 -0.2631
   64CHL1   C18 7169   0.453   1.708   9.448  0.6184  0.4568  1.0943
   64CHL1  H18A 7170   0.550   1.751   9.414  0.0034  2.3253  1.6880
   64CHL1  H18B 7171   0.373   1.762   9.394  0.5955 -0.9314 -0.3100
   64CHL1  H18C 7172   0.431   1.721   9.556 -3.0605  1.8628  0.2388
   64CHL1   C12 7173   0.309   1.504   9.473 -0.4782 -0.6521  0.5213
   64CHL1  H12A 7174   0.220   1.555   9.431 -0.0775  1.3489  2.0099
   64CHL1  H12B 7175   0.302   1.395   9.454 -0.6166 -1.2748  3.8405
   64CHL1   C11 7176   0.296   1.517   9.626  0.6218 -0.3955 -0.1083
   64CHL1  H11A 7177   0.274   1.621   9.656 -0.8320 -0.6609 -0.2233
   64CHL1  H11B 7178   0.203   1.462   9.654 -0.5349  0.7214 -1.6757
   64CHL1    C9 7179   0.419   1.457   9.704  0.3256  0.1447 -0.5330
   64CHL1    H9 7180   0.401   1.347   9.697 -1.8075  0.3805  0.8591
   64CHL1   C10 7181   0.419   1.477   9.855  0.1987  0.1302  0.0665
   64CHL1   C19 7182   0.425   1.628   9.892  0.1262  0.4310 -0.4280
   64CHL1  H19A 7183   0.331   1.673   9.855 -1.1050  0.7609  2.9645
   64CHL1  H19B 7184   0.429   1.636  10.003  1.5670  3.6374 -0.6697
   64CHL1  H19C 7185   0.513   1.680   9.849 -0.2645  1.1854 -0.3160
   64CHL1    C1 7186   0.286   1.414   9.914 -0.5638 -0.2858 -0.8200
   64CHL1   H1A 7187   0.197   1.470   9.879  1.5259  2.0166 -2.6493
   64CHL1   H1B 7188   0.282   1.313   9.868  2.2665 -1.0667  0.5468
   64CHL1    C2 7189   0.288   1.406  10.072  0.2067 -0.1154  0.0033
   64CHL1   H2A 7190   0.197   1.346  10.092 -1.6209  2.7211  0.4271
   64CHL1   H2B 7191   0.278   1.502  10.127 -2.5998  1.0097 -2.3492
   64CHL1   C20 7192   0.424   1.603   9.153  0.3224  0.0872  0.1457
   64CHL1   H20 7193   0.433   1.711   9.178 -0.4219  0.5002 -1.3659
   64CHL1   C21 7194   0.274   1.592   9.159  0.0426 -0.2719 -0.8530
   64CHL1  H21A 7195   0.233   1.603   9.056 -1.9824  1.9658  0.1595
   64CHL1  H21B 7196   0.229   1.676   9.215 -1.0319 -0.5150 -1.3248
   64CHL1  H21C 7197   0.236   1.490   9.183 -1.4615  0.5527  0.3523
   64CHL1   C22 7198   0.494   1.574   9.016  0.3769  0.4348  0.2279
   64CHL1  H22A 7199   0.604   1.561   9.027  0.2908 -0.3926  0.1486
   64CHL1  H22B 7200   0.456   1.478   8.975  3.5342  0.0944 -2.1036
   64CHL1   C23 7201   0.468   1.681   8.912 -0.1790 -0.3619 -0.2473
   64CHL1  H23A 7202   0.362   1.706   8.892  0.3644  1.6717 -0.7398
   64CHL1  H23B 7203   0.517   1.775   8.947 -0.2431  0.4021 -2.1775
   64CHL1   C24 7204   0.542   1.638   8.781  0.1435 -0.3864 -1.1458
   64CHL1  H24A 7205   0.648   1.634   8.813 -0.4697 -0.8256  0.9026
   64CHL1  H24B 7206   0.498   1.541   8.749 -3.6192  1.1562 -0.9636
   64CHL1   C25 7207   0.513   1.734   8.660 -0.9464 -0.2352  0.9300
   64CHL1   H25 7208   0.403   1.742   8.645 -1.0632 -1.4505  1.0862
   64CHL1   C26 7209   0.576   1.867   8.670 -0.2411 -0.9567  0.5863
   64CHL1  H26A 7210   0.541   1.942   8.596  1.0796 -0.8025  0.1038
   64CHL1  H26B 7211   0.567   1.898   8.777 -3.1202  0.9497 -0.1585
   64CHL1  H26C 7212   0.687   1.866   8.660  0.0146  1.2002  2.6127
   64CHL1   C27 7213   0.587   1.675   8.542 -0.0708  0.1195 -0.5929
   64CHL1  H27A 7214   0.562   1.569   8.522  0.1866 -0.1472  0.4956
   64CHL1  H27B 7215   0.554   1.731   8.452 -0.0406 -0.9196 -1.2550
   64CHL1  H27C 7216   0.697   1.686   8.552 -0.3642  1.4887  1.2745
   65CHL1    C3 7217   3.420   6.465  10.144  0.4749 -0.7503  0.1312
   65CHL1    H3 7218   3.332   6.401  10.164  0.3182 -0.3320  0.8146
   65CHL1    O3 7219   3.411   6.570  10.240  0.4189  0.2029 -0.8327
   65CHL1   H3' 7220   3.495   6.570  10.286 -0.5750  1.8782  1.0552
   65CHL1    C4 7221   3.543   6.375  10.154  0.9892 -0.5511 -0.3103
   65CHL1   H4A 7222   3.626   6.447  10.147 -1.1360  1.9754 -0.1626
   65CHL1   H4B 7223   3.539   6.335  10.258  0.2618  0.1025 -0.0858
   65CHL1    C5 7224   3.549   6.271  10.042 -0.1038  0.2100 -0.3449
   65CHL1    C6 7225   3.568   6.144  10.082  0.3436 -0.4636  0.5933
   65CHL1    H6 7226   3.568   6.119  10.189 -1.5237 -0.0066  0.7093
   65CHL1    C7 7227   3.588   6.029   9.988  0.0095 -0.4398 -0.1209
   65CHL1   H7A 7228   3.687   5.985  10.012  0.2226  0.1838  0.1530
   65CHL1   H7B 7229   3.511   5.949  10.004 -0.3769  0.1493  1.0476
   65CHL1    C8 7230   3.581   6.070   9.841  0.2196  0.5253 -0.6033
   65CHL1    H8 7231   3.686   6.095   9.816  0.4406  2.5514  2.1161
   65CHL1   C14 7232   3.544   5.958   9.749 -0.2337 -0.5826 -0.1252
   65CHL1   H14 7233   3.441   5.925   9.774 -0.3867 -0.6302 -0.8173
   65CHL1   C15 7234   3.633   5.830   9.767  0.4011  0.2068 -0.1194
   65CHL1  H15A 7235   3.741   5.856   9.768  0.5264 -0.2242  2.2709
   65CHL1  H15B 7236   3.600   5.766   9.853 -0.0219 -1.7028 -1.6706
   65CHL1   C16 7237   3.608   5.759   9.631 -0.4141  0.5717 -0.1431
   65CHL1  H16A 7238   3.701   5.727   9.579 -1.3614 -0.3913 -1.2810
   65CHL1  H16B 7239   3.551   5.664   9.640 -0.4548  0.5420 -0.7308
   65CHL1   C17 7240   3.528   5.856   9.538 -0.4841 -0.1383  0.5718
   65CHL1   H17 7241   3.421   5.835   9.556 -0.6932  1.7717  1.6392
   65CHL1   C13 7242   3.546   5.992   9.600 -0.6563 -0.5861  0.1653
   65CHL1   C18 7243   3.689   6.053   9.564  0.0868  0.9950 -0.4444
   65CHL1  H18A 7244   3.761   5.969   9.570 -2.4943 -1.1708  1.3261
   65CHL1  H18B 7245   3.683   6.105   9.466  1.3227 -1.2941 -1.7631
   65CHL1  H18C 7246   3.729   6.132   9.631 -1.4324  1.9194 -0.5896
   65CHL1   C12 7247   3.434   6.098   9.581 -0.3375 -0.7356  0.4155
   65CHL1  H12A 7248   3.451   6.132   9.476  0.1985 -2.8412 -0.1916
   65CHL1  H12B 7249   3.338   6.059   9.620  0.8434 -3.2294  0.9254
   65CHL1   C11 7250   3.464   6.228   9.663  0.0459 -1.0424  0.5010
   65CHL1  H11A 7251   3.546   6.293   9.627  0.0220 -1.4857 -0.3671
   65CHL1  H11B 7252   3.371   6.289   9.668 -0.5177 -1.7044 -1.5086
   65CHL1    C9 7253   3.482   6.189   9.815 -0.3524  0.1839  0.5264
   65CHL1    H9 7254   3.387   6.145   9.849 -0.3173 -1.7569 -1.7167
   65CHL1   C10 7255   3.517   6.319   9.903 -0.5459  0.4877 -0.4171
   65CHL1   C19 7256   3.645   6.395   9.848  0.2795 -0.2247  0.0846
   65CHL1  H19A 7257   3.671   6.479   9.915 -1.3233  0.1755  0.2082
   65CHL1  H19B 7258   3.730   6.324   9.836  1.1896  0.7202  0.8443
   65CHL1  H19C 7259   3.608   6.447   9.757 -1.4788  0.5745  1.2326
   65CHL1    C1 7260   3.403   6.423   9.902 -0.2339  0.2635 -0.0750
   65CHL1   H1A 7261   3.396   6.461   9.798 -2.4674  1.7783  0.5977
   65CHL1   H1B 7262   3.315   6.359   9.927  0.9926 -1.9058 -1.1395
   65CHL1    C2 7263   3.412   6.534  10.010  0.1747 -0.6060 -0.0753
   65CHL1   H2A 7264   3.320   6.595   9.999 -1.2921 -2.0474  3.2494
   65CHL1   H2B 7265   3.491   6.606   9.979  0.8960 -0.5649  1.7763
   65CHL1   C20 7266   3.569   5.845   9.389  0.3643  0.8293 -0.3799
   65CHL1   H20 7267   3.675   5.877   9.383  0.3425  0.8067 -0.9044
   65CHL1   C21 7268   3.487   5.945   9.314  0.0801  0.5479 -0.5078
   65CHL1  H21A 7269   3.537   6.043   9.329  0.1615  0.4985 -0.4516
   65CHL1  H21B 7270   3.384   5.944   9.355  0.8238  1.1309  1.4499
   65CHL1  H21C 7271   3.490   5.918   9.207 -0.0997 -1.5692 -0.0025
   65CHL1   C22 7272   3.546   5.701   9.332 -0.5697  0.4229 -0.5813
   65CHL1  H22A 7273   3.584   5.626   9.405  0.5733  1.6744  0.1365
   65CHL1  H22B 7274   3.437   5.692   9.310 -0.5483  0.6897 -0.7952
   65CHL1   C23 7275   3.605   5.671   9.202 -0.4008  0.4248  0.2006
   65CHL1  H23A 7276   3.603   5.758   9.132 -2.7067  1.3133  1.3243
   65CHL1  H23B 7277   3.715   5.658   9.212 -0.6710 -2.2306  0.0948
   65CHL1   C24 7278   3.563   5.536   9.140 -0.1408  0.0066  0.0234
   65CHL1  H24A 7279   3.610   5.450   9.193 -0.3458 -0.7594 -1.0040
   65CHL1  H24B 7280   3.453   5.528   9.156 -0.4545  1.1602 -1.3968
   65CHL1   C25 7281   3.590   5.524   8.989  0.0606 -0.4087 -0.2465
   65CHL1   H25 7282   3.537   5.608   8.940 -0.0372 -0.1090  0.3660
   65CHL1   C26 7283   3.736   5.534   8.948 -0.5673 -0.0493 -0.6140
   65CHL1  H26A 7284   3.802   5.451   8.981 -1.2522 -0.3497  0.0027
   65CHL1  H26B 7285   3.761   5.544   8.840 -1.1615  3.3573 -0.5140
   65CHL1  H26C 7286   3.782   5.628   8.986 -1.5853  0.2233 -0.0579
   65CHL1   C27 7287   3.531   5.403   8.918  0.5121  0.4316 -0.5060
   65CHL1  H27A 7288   3.422   5.424   8.922  0.6240  1.1414 -1.0496
   65CHL1  H27B 7289   3.563   5.397   8.811 -0.9743 -0.9126 -0.8943
   65CHL1  H27C 7290   3.560   5.307   8.967 -1.2235 -0.6052 -1.4689
   66CHL1    C3 7291   0.995   4.104  10.633 -0.3627  0.0644 -0.4790
   66CHL1    H3 7292   1.064   4.032  10.583 -0.3744 -1.3484  1.4608
   66CHL1    O3 7293   1.019   4.116  10.774 -0.4280 -0.5444  0.2368
   66CHL1   H3' 7294   1.046   4.030  10.807  1.5217 -1.0573 -2.6269
   66CHL1    C4 7295   1.019   4.240  10.562 -0.0387  0.5057  0.0242
   66CHL1   H4A 7296   0.964   4.326  10.607  1.5565  1.5679 -0.0003
   66CHL1   H4B 7297   1.124   4.271  10.585  0.0505  0.6029 -0.5164
   66CHL1    C5 7298   0.991   4.218  10.411  0.3873 -0.8599  0.4271
   66CHL1    C6 7299   1.089   4.242  10.322  0.1876 -0.3655 -0.2191
   66CHL1    H6 7300   1.180   4.278  10.372 -1.7182 -0.8250  3.8392
   66CHL1    C7 7301   1.066   4.230  10.175 -0.2691 -0.1026 -0.5760
   66CHL1   H7A 7302   1.123   4.313  10.129 -1.0055  1.0107  0.4899
   66CHL1   H7B 7303   1.113   4.132  10.152 -2.1389 -1.2027  0.2308
   66CHL1    C8 7304   0.915   4.241  10.142  0.2604  0.2903 -0.0172
   66CHL1    H8 7305   0.872   4.339  10.174 -1.9792 -1.0507  1.1749
   66CHL1   C14 7306   0.880   4.221   9.994 -0.3451  0.3710  1.2973
   66CHL1   H14 7307   0.925   4.124   9.963 -0.4174  0.7090  0.1085
   66CHL1   C15 7308   0.944   4.320   9.891  0.1304  0.2198 -0.5697
   66CHL1  H15A 7309   0.922   4.423   9.928 -1.1450 -0.5514  0.8692
   66CHL1  H15B 7310   1.055   4.309   9.888  0.0116 -0.6813 -1.5796
   66CHL1   C16 7311   0.865   4.285   9.757 -0.6943 -0.3395  0.4174
   66CHL1  H16A 7312   0.825   4.378   9.710  0.7955 -0.1183 -0.4397
   66CHL1  H16B 7313   0.918   4.248   9.666 -1.1965  2.0076 -0.8707
   66CHL1   C17 7314   0.742   4.209   9.796 -0.1709  1.1160  0.4289
   66CHL1   H17 7315   0.765   4.102   9.775  0.6359  1.0727  1.5150
   66CHL1   C13 7316   0.737   4.220   9.954 -0.1481 -0.0373  0.2943
   66CHL1   C18 7317   0.661   4.348   9.985 -0.3543  0.3806  0.0868
   66CHL1  H18A 7318   0.679   4.378  10.090  1.6710 -0.6157  0.0513
   66CHL1  H18B 7319   0.699   4.433   9.924 -0.7889 -0.5294 -1.5010
   66CHL1  H18C 7320   0.552   4.334   9.966 -0.2808  0.2581 -0.2427
   66CHL1   C12 7321   0.671   4.101  10.017 -0.1483 -0.4889 -0.2610
   66CHL1  H12A 7322   0.561   4.114  10.007 -0.3619  0.4947  2.8546
   66CHL1  H12B 7323   0.718   4.010   9.975  1.2405  0.0216  0.1672
   66CHL1   C11 7324   0.694   4.100  10.170 -0.0014 -0.0680 -0.5952
   66CHL1  H11A 7325   0.617   4.169  10.210 -0.9373 -1.3244 -0.2034
   66CHL1  H11B 7326   0.659   4.001  10.207  0.6496 -0.4258 -0.9285
   66CHL1    C9 7327   0.840   4.140  10.220 -0.7363  0.0574 -0.1843
   66CHL1    H9 7328   0.889   4.043  10.199  2.1320  1.3740  0.2530
   66CHL1   C10 7329   0.855   4.155  10.375  0.0729  0.3483 -0.2944
   66CHL1   C19 7330   0.742   4.259  10.414  1.0419 -0.0417 -0.4114
   66CHL1  H19A 7331   0.738   4.298  10.518 -1.1996  0.8761 -0.8184
   66CHL1  H19B 7332   0.734   4.342  10.341  0.4925 -1.1670 -1.6502
   66CHL1  H19C 7333   0.646   4.205  10.402  1.8314 -1.3385 -0.9823
   66CHL1    C1 7334   0.834   4.024  10.455  0.4607 -0.3251  0.1793
   66CHL1   H1A 7335   0.733   3.979  10.443 -0.0829  1.1508 -0.8389
   66CHL1   H1B 7336   0.904   3.944  10.421 -0.2422 -0.6725 -0.4463
   66CHL1    C2 7337   0.857   4.054  10.608 -0.6202  0.3160 -0.1008
   66CHL1   H2A 7338   0.835   3.958  10.659  0.9747  0.9805  1.8970
   66CHL1   H2B 7339   0.792   4.132  10.654  1.3787  2.5004 -0.8978
   66CHL1   C20 7340   0.612   4.230   9.704 -0.3173 -0.2226  0.3420
   66CHL1   H20 7341   0.584   4.336   9.722 -1.3061 -0.6279  1.2908
   66CHL1   C21 7342   0.500   4.136   9.749 -0.6935 -0.0301 -0.4683
   66CHL1  H21A 7343   0.442   4.167   9.838 -2.4107 -0.3944 -1.4414
   66CHL1  H21B 7344   0.536   4.032   9.759  0.8881  0.4796 -0.7515
   66CHL1  H21C 7345   0.424   4.122   9.669  0.6357 -1.6781 -1.4723
   66CHL1   C22 7346   0.645   4.213   9.550  0.4902  0.1020 -0.4584
   66CHL1  H22A 7347   0.748   4.252   9.534  0.7631 -0.4855 -0.1528
   66CHL1  H22B 7348   0.657   4.104   9.531  1.5198  0.0189  0.6188
   66CHL1   C23 7349   0.524   4.273   9.463 -0.3742 -0.0728  0.7237
   66CHL1  H23A 7350   0.431   4.215   9.480  1.0475 -2.9619 -0.9095
   66CHL1  H23B 7351   0.497   4.364   9.520 -0.1218  2.0811 -2.4578
   66CHL1   C24 7352   0.559   4.302   9.313  0.5128 -0.1725  0.1220
   66CHL1  H24A 7353   0.650   4.366   9.314  0.8698 -0.6459 -1.6425
   66CHL1  H24B 7354   0.586   4.211   9.256 -0.1432  1.3291 -2.6816
   66CHL1   C25 7355   0.439   4.361   9.236 -0.6154  0.4396 -1.1363
   66CHL1   H25 7356   0.410   4.445   9.303  0.5607  0.4917 -0.6773
   66CHL1   C26 7357   0.470   4.421   9.096 -0.5270  0.8355 -0.0806
   66CHL1  H26A 7358   0.527   4.346   9.037 -0.7827  0.8339 -0.3278
   66CHL1  H26B 7359   0.373   4.441   9.046 -2.1008  1.4892  3.0989
   66CHL1  H26C 7360   0.512   4.524   9.099  1.4281  0.1040 -1.4412
   66CHL1   C27 7361   0.320   4.264   9.219  0.9259 -0.2157 -0.3699
   66CHL1  H27A 7362   0.235   4.312   9.168 -0.7741 -1.2246  1.4458
   66CHL1  H27B 7363   0.345   4.169   9.166 -1.4221 -1.5813  0.8773
   66CHL1  H27C 7364   0.279   4.237   9.319 -0.8977  1.3430 -0.6720
   67CHL1    C3 7365   4.829   4.704  10.424 -0.0681 -0.1168  0.1712
   67CHL1    H3 7366   4.932   4.664  10.424  0.7872  1.9765  2.1520
   67CHL1    O3 7367   4.797   4.707  10.562 -0.1170 -0.0316 -0.3925
   67CHL1   H3' 7368   4.705   4.682  10.575  0.2221 -0.4458  1.2998
   67CHL1    C4 7369   4.815   4.846  10.356  0.3783 -0.5320  0.0941
   67CHL1   H4A 7370   4.712   4.882  10.374  0.4185  0.1581 -0.9823
   67CHL1   H4B 7371   4.885   4.910  10.414  0.7767 -1.2641  0.4293
   67CHL1    C5 7372   4.851   4.840  10.208  0.0712 -0.0273  0.0935
   67CHL1    C6 7373   4.951   4.918  10.149  0.2549 -0.0488  0.0611
   67CHL1    H6 7374   5.000   4.999  10.205  2.4225  0.0516 -1.9039
   67CHL1    C7 7375   4.997   4.912  10.009 -0.2499  0.4326  0.0084
   67CHL1   H7A 7376   5.003   5.014   9.963 -2.2579  1.6806  2.4428
   67CHL1   H7B 7377   5.101   4.872  10.008  0.3220  1.8442  0.6951
   67CHL1    C8 7378   4.898   4.823   9.917 -0.1081 -1.1804 -0.9438
   67CHL1    H8 7379   4.818   4.900   9.907  1.7935  0.9562 -0.1174
   67CHL1   C14 7380   4.960   4.789   9.785  0.4037 -0.4263  0.4089
   67CHL1   H14 7381   5.043   4.717   9.802  3.2513  2.7575  0.4718
   67CHL1   C15 7382   5.012   4.908   9.707  0.2972 -0.8474 -0.5886
   67CHL1  H15A 7383   4.935   4.988   9.709 -0.8956 -1.9853  0.6175
   67CHL1  H15B 7384   5.107   4.942   9.754  1.3968 -5.1881  0.6065
   67CHL1   C16 7385   5.024   4.848   9.570  0.5109 -0.5551 -0.3934
   67CHL1  H16A 7386   4.979   4.923   9.501 -0.3597 -0.3159  0.4084
   67CHL1  H16B 7387   5.133   4.835   9.558  0.6752  0.1051  0.2829
   67CHL1   C17 7388   4.943   4.718   9.552 -0.0450 -1.1051 -0.7798
   67CHL1   H17 7389   5.014   4.633   9.558  2.4547  0.9936  0.4423
   67CHL1   C13 7390   4.862   4.714   9.690  0.0019  0.1718 -0.2187
   67CHL1   C18 7391   4.733   4.806   9.669  0.5861  0.1955 -0.4394
   67CHL1  H18A 7392   4.755   4.909   9.631 -2.8991  1.6480  1.2782
   67CHL1  H18B 7393   4.676   4.755   9.589  2.0675 -0.3377 -1.1706
   67CHL1  H18C 7394   4.669   4.805   9.760 -0.4378 -1.3673 -1.1497
   67CHL1   C12 7395   4.826   4.582   9.754 -0.1966  0.3423  0.9981
   67CHL1  H12A 7396   4.747   4.520   9.707  0.2742  0.9654 -0.6800
   67CHL1  H12B 7397   4.921   4.525   9.755 -0.3427  0.0288 -0.6623
   67CHL1   C11 7398   4.773   4.601   9.894 -0.1623  0.1541  0.1456
   67CHL1  H11A 7399   4.667   4.632   9.888  0.1030  1.4136  1.4923
   67CHL1  H11B 7400   4.776   4.501   9.943  1.5030 -0.9998 -2.2475
   67CHL1    C9 7401   4.853   4.695   9.990  0.7490 -0.2658  0.4764
   67CHL1    H9 7402   4.941   4.630  10.006  0.3913 -1.2477 -1.2926
   67CHL1   C10 7403   4.782   4.723  10.131  1.2007  0.2453  0.4428
   67CHL1   C19 7404   4.637   4.776  10.114  0.9400  0.4064  0.4950
   67CHL1  H19A 7405   4.578   4.708  10.050  0.8397 -0.1571  1.1854
   67CHL1  H19B 7406   4.583   4.770  10.211  2.2915  0.3376  1.2560
   67CHL1  H19C 7407   4.619   4.876  10.070 -2.9960 -0.7667 -0.7045
   67CHL1    C1 7408   4.786   4.588  10.206  0.4862 -0.0679 -0.4148
   67CHL1   H1A 7409   4.723   4.512  10.155  0.3942 -1.2801  1.4696
   67CHL1   H1B 7410   4.885   4.540  10.221 -0.5107 -1.5358  1.6668
   67CHL1    C2 7411   4.733   4.605  10.352  0.1745 -0.3371  0.2390
   67CHL1   H2A 7412   4.732   4.512  10.413 -1.0999  0.8293  2.0345
   67CHL1   H2B 7413   4.630   4.646  10.361  0.2195  0.7800 -3.4166
   67CHL1   C20 7414   4.870   4.709   9.421  0.0138  0.0047  0.7133
   67CHL1   H20 7415   4.776   4.769   9.414 -0.3021 -0.4402  1.1435
   67CHL1   C21 7416   4.821   4.556   9.418  1.1017 -0.5974  0.5167
   67CHL1  H21A 7417   4.899   4.486   9.456  0.6726  0.5248  3.6426
   67CHL1  H21B 7418   4.797   4.526   9.314 -1.2139  0.1471  0.8016
   67CHL1  H21C 7419   4.730   4.549   9.481  0.1032 -0.3930 -0.9062
   67CHL1   C22 7420   4.955   4.736   9.292  0.2007 -0.1180 -0.5293
   67CHL1  H22A 7421   4.994   4.839   9.307 -1.0442 -0.0190  2.4548
   67CHL1  H22B 7422   5.050   4.678   9.289  0.0383 -0.2947 -2.4203
   67CHL1   C23 7423   4.877   4.746   9.154  0.3266  0.3521  0.9743
   67CHL1  H23A 7424   4.835   4.646   9.131  0.3183 -0.0061  2.4967
   67CHL1  H23B 7425   4.803   4.827   9.173 -0.3886 -0.2210  0.6175
   67CHL1   C24 7426   4.975   4.797   9.039  0.6666 -0.8327 -0.2436
   67CHL1  H24A 7427   4.922   4.833   8.948 -1.2937  1.6361  1.8224
   67CHL1  H24B 7428   5.037   4.876   9.085  0.5199 -1.0841  0.3871
   67CHL1   C25 7429   5.074   4.690   8.990  0.0464 -0.4248  1.1626
   67CHL1   H25 7430   5.121   4.639   9.078  0.1491 -1.1645  0.6829
   67CHL1   C26 7431   5.001   4.584   8.910 -0.2027  0.0697  0.3349
   67CHL1  H26A 7432   4.906   4.553   8.959 -0.9137  2.2087  0.3515
   67CHL1  H26B 7433   4.977   4.623   8.809 -3.7346 -2.3361  0.1938
   67CHL1  H26C 7434   5.068   4.496   8.896 -1.8940 -1.1686 -0.0502
   67CHL1   C27 7435   5.190   4.757   8.908  1.1005 -0.2314 -0.6372
   67CHL1  H27A 7436   5.245   4.824   8.978 -0.7513  0.6289  0.0381
   67CHL1  H27B 7437   5.267   4.684   8.876  0.5070 -1.6510  1.0845
   67CHL1  H27C 7438   5.155   4.818   8.823 -3.3526 -1.6582  0.0131
   68CHL1    C3 7439   3.182   6.149  10.351  0.3742 -0.0864 -0.3898
   68CHL1    H3 7440   3.268   6.203  10.305  1.3476 -2.5048 -1.4974
   68CHL1    O3 7441   3.166   6.177  10.487 -0.2979 -0.1753 -0.5962
   68CHL1   H3' 7442   3.161   6.091  10.529 -1.8674  0.1349 -0.0907
   68CHL1    C4 7443   3.063   6.206  10.264 -0.8770  0.3221 -0.4175
   68CHL1   H4A 7444   2.967   6.176  10.312  0.6548 -1.4075  1.7362
   68CHL1   H4B 7445   3.064   6.315  10.280 -1.6512  0.2634  0.0350
   68CHL1    C5 7446   3.060   6.160  10.119  0.8013  0.1180 -0.5154
   68CHL1    C6 7447   3.054   6.256  10.021 -0.6311  0.1169  0.7110
   68CHL1    H6 7448   3.048   6.363  10.047 -0.7379 -0.0044  1.1858
   68CHL1    C7 7449   3.040   6.223   9.874  0.5304 -0.2126 -0.4111
   68CHL1   H7A 7450   2.959   6.289   9.835  0.7973 -0.4571 -1.3980
   68CHL1   H7B 7451   3.134   6.239   9.818 -0.1013 -2.0190 -2.0167
   68CHL1    C8 7452   3.004   6.072   9.851 -0.4767 -0.2017 -0.3971
   68CHL1    H8 7453   2.900   6.056   9.885 -0.4684 -3.6794 -1.8371
   68CHL1   C14 7454   3.028   6.032   9.704  0.4731 -0.0979  0.0923
   68CHL1   H14 7455   3.135   6.055   9.690  0.2732  1.6384  1.2671
   68CHL1   C15 7456   2.965   6.120   9.594 -0.0489 -0.1266 -0.2409
   68CHL1  H15A 7457   2.856   6.139   9.607  0.2863  0.5764  1.8490
   68CHL1  H15B 7458   3.020   6.216   9.603 -1.5359  0.7701 -0.5299
   68CHL1   C16 7459   2.998   6.046   9.471  0.3807  0.9146 -0.3145
   68CHL1  H16A 7460   2.910   6.053   9.403  0.7030  1.9450 -0.6297
   68CHL1  H16B 7461   3.073   6.107   9.416  0.7239 -0.5022 -1.4553
   68CHL1   C17 7462   3.049   5.905   9.515  0.0944  0.3225 -0.2650
   68CHL1   H17 7463   3.160   5.901   9.506  0.0875  2.7037 -2.0578
   68CHL1   C13 7464   3.007   5.885   9.662 -0.7994 -0.0002 -0.4186
   68CHL1   C18 7465   2.857   5.851   9.686  0.3622  0.5402 -0.4829
   68CHL1  H18A 7466   2.832   5.862   9.794  0.0611  1.3610 -0.6311
   68CHL1  H18B 7467   2.791   5.918   9.626 -2.0483  0.1235  1.5881
   68CHL1  H18C 7468   2.844   5.743   9.665 -0.6077  0.8461 -1.4942
   68CHL1   C12 7469   3.110   5.803   9.748  0.1281 -0.2513 -0.1280
   68CHL1  H12A 7470   3.099   5.694   9.728 -0.6123 -0.1612 -0.1967
   68CHL1  H12B 7471   3.213   5.822   9.709  0.3623 -1.9295 -0.3712
   68CHL1   C11 7472   3.090   5.828   9.899  0.1897  0.8120  0.3921
   68CHL1  H11A 7473   2.990   5.787   9.925  0.6399 -0.9448 -0.5807
   68CHL1  H11B 7474   3.163   5.771   9.960  1.5110 -0.1762 -2.0599
   68CHL1    C9 7475   3.099   5.979   9.944  0.4471 -0.6410 -0.0672
   68CHL1    H9 7476   3.201   6.015   9.918 -0.4245  1.4724 -0.6921
   68CHL1   C10 7477   3.074   6.007  10.091 -0.0570  0.0725  0.0404
   68CHL1   C19 7478   2.943   5.939  10.135  0.7450 -0.4083  0.2511
   68CHL1  H19A 7479   2.857   5.981  10.080 -0.9564 -0.7094  2.6154
   68CHL1  H19B 7480   2.954   5.829  10.130  1.5179 -0.3979  1.3601
   68CHL1  H19C 7481   2.918   5.955  10.242  0.5112 -0.0433  0.1418
   68CHL1    C1 7482   3.198   5.957  10.177  0.0316  0.1785  0.3994
   68CHL1   H1A 7483   3.214   5.848  10.173  0.4781  0.0072  4.3359
   68CHL1   H1B 7484   3.290   5.994  10.127  0.7683 -1.6682  0.3431
   68CHL1    C2 7485   3.199   6.003  10.327  0.5644 -0.0647 -0.5545
   68CHL1   H2A 7486   3.293   5.961  10.368  0.2722  1.1572  1.4504
   68CHL1   H2B 7487   3.117   5.943  10.373  2.5527 -0.5455  2.5302
   68CHL1   C20 7488   3.003   5.789   9.414 -0.0200  0.1433  0.2402
   68CHL1   H20 7489   2.906   5.744   9.445 -0.0007 -0.0780 -0.0139
   68CHL1   C21 7490   3.111   5.674   9.427 -0.4329  0.2072 -0.0503
   68CHL1  H21A 7491   3.083   5.589   9.361  0.7560  0.0548 -0.3684
   68CHL1  H21B 7492   3.113   5.633   9.530  0.0836  0.1628 -0.0787
   68CHL1  H21C 7493   3.217   5.705   9.414 -0.8945  1.6591 -0.4460
   68CHL1   C22 7494   2.974   5.830   9.269 -0.4872  0.3565 -0.3566
   68CHL1  H22A 7495   2.919   5.745   9.223 -1.0120  0.9061 -0.7465
   68CHL1  H22B 7496   2.911   5.921   9.256 -1.2591 -0.3053 -1.2703
   68CHL1   C23 7497   3.102   5.830   9.184  0.2294 -0.6516  0.0376
   68CHL1  H23A 7498   3.145   5.923   9.226  0.1023 -1.1347  1.2438
   68CHL1  H23B 7499   3.181   5.757   9.214 -0.6880 -1.4858  0.4374
   68CHL1   C24 7500   3.097   5.833   9.031  0.5504 -0.0231 -0.3430
   68CHL1  H24A 7501   3.015   5.903   9.005  0.3296 -0.6699 -1.3871
   68CHL1  H24B 7502   3.197   5.870   8.997  0.4609  0.0362 -0.5390
   68CHL1   C25 7503   3.073   5.695   8.962  0.7149  0.4750 -0.2457
   68CHL1   H25 7504   2.982   5.657   9.014  1.4992  1.4615  1.9108
   68CHL1   C26 7505   3.031   5.709   8.814  0.4114 -0.1967  0.2598
   68CHL1  H26A 7506   2.947   5.782   8.810  1.3663  0.7888 -3.3901
   68CHL1  H26B 7507   3.122   5.744   8.760  0.5131 -0.1063  0.4896
   68CHL1  H26C 7508   3.004   5.614   8.763 -0.6967 -1.1000  2.4727
   68CHL1   C27 7509   3.193   5.596   8.975 -0.5622  0.3437  0.6534
   68CHL1  H27A 7510   3.288   5.638   8.936 -1.4374  1.6021 -0.1313
   68CHL1  H27B 7511   3.208   5.549   9.075  1.9282  1.2832  0.7603
   68CHL1  H27C 7512   3.174   5.504   8.915  2.9238 -0.4008  0.5582
   69CHL1    C3 7513   3.142   3.201   6.905 -0.0295 -0.7219  0.3158
   69CHL1    H3 7514   3.226   3.246   6.961  0.2810 -1.5432  0.5229
   69CHL1    O3 7515   3.164   3.216   6.764  0.1718  0.2986 -0.5030
   69CHL1   H3' 7516   3.099   3.162   6.718 -1.0721  1.2366  0.1230
   69CHL1    C4 7517   3.125   3.056   6.947  0.2512  0.5368  0.6305
   69CHL1   H4A 7518   3.040   3.008   6.894  0.6288  2.2644 -1.6508
   69CHL1   H4B 7519   3.211   2.999   6.907 -0.7771  0.3012 -1.2980
   69CHL1    C5 7520   3.103   3.039   7.102 -0.2059  0.0969 -0.0256
   69CHL1    C6 7521   3.189   2.968   7.178  0.8324 -0.1835 -0.3225
   69CHL1    H6 7522   3.280   2.922   7.138  1.0125  0.0951 -0.2329
   69CHL1    C7 7523   3.181   2.935   7.323  0.1293 -0.1082  0.0952
   69CHL1   H7A 7524   3.189   2.826   7.339  0.7614 -0.1126 -0.2610
   69CHL1   H7B 7525   3.255   2.996   7.380  0.8510  0.2891 -1.2382
   69CHL1    C8 7526   3.038   2.980   7.376 -0.1797  0.0479 -0.2511
   69CHL1    H8 7527   2.962   2.905   7.347 -0.8287  0.2410  0.9454
   69CHL1   C14 7528   3.045   2.988   7.530  0.7110 -0.0470  1.3166
   69CHL1   H14 7529   3.126   3.061   7.552 -1.6160  2.7960  0.7455
   69CHL1   C15 7530   3.077   2.862   7.614 -0.7000  0.6687 -0.1380
   69CHL1  H15A 7531   3.025   2.772   7.576 -1.4613  1.9789 -2.2917
   69CHL1  H15B 7532   3.187   2.843   7.614 -0.0694  4.0271  0.1392
   69CHL1   C16 7533   3.039   2.896   7.752  0.2465 -0.2842  0.6047
   69CHL1  H16A 7534   2.990   2.812   7.808  1.0240  0.5796  2.6108
   69CHL1  H16B 7535   3.126   2.929   7.812  1.7379 -0.9908 -1.1401
   69CHL1   C17 7536   2.952   3.026   7.751  0.4179  0.8590  0.0704
   69CHL1   H17 7537   3.021   3.109   7.776  1.1271 -0.9897  4.8215
   69CHL1   C13 7538   2.920   3.042   7.594 -0.6008  0.3829  0.4779
   69CHL1   C18 7539   2.799   2.938   7.566 -0.1889 -0.5646  0.1570
   69CHL1  H18A 7540   2.780   2.925   7.457 -0.6767 -4.7870  0.6700
   69CHL1  H18B 7541   2.826   2.847   7.624  1.4006  0.8239  1.6232
   69CHL1  H18C 7542   2.710   2.977   7.620  1.3205  0.9177  1.6309
   69CHL1   C12 7543   2.887   3.184   7.542  0.9259 -0.0858 -0.3757
   69CHL1  H12A 7544   2.808   3.243   7.594  1.8330  0.5995  0.2413
   69CHL1  H12B 7545   2.975   3.250   7.554 -0.2080  1.2482  0.7452
   69CHL1   C11 7546   2.870   3.171   7.394  0.6246 -0.4816 -0.6508
   69CHL1  H11A 7547   2.784   3.107   7.365  1.5016 -1.0563 -2.0006
   69CHL1  H11B 7548   2.846   3.270   7.349  1.5025  0.1550  0.2405
   69CHL1    C9 7549   2.994   3.111   7.317 -0.1726 -0.4110 -0.2340
   69CHL1    H9 7550   3.066   3.193   7.336  0.3720 -0.9891  0.1922
   69CHL1   C10 7551   2.990   3.117   7.159 -0.3764 -0.3632 -0.8843
   69CHL1   C19 7552   2.858   3.049   7.117  0.4051  0.4506 -0.4789
   69CHL1  H19A 7553   2.859   2.954   7.175 -1.0120  2.6448  3.2655
   69CHL1  H19B 7554   2.772   3.109   7.153 -0.2311 -0.4035 -0.5542
   69CHL1  H19C 7555   2.864   3.037   7.007  0.2011 -0.9891 -0.3413
   69CHL1    C1 7556   2.992   3.257   7.095  0.2154 -0.3750 -0.0815
   69CHL1   H1A 7557   2.891   3.297   7.116  0.4498  0.7290 -0.9800
   69CHL1   H1B 7558   3.077   3.309   7.145  1.4155 -1.0663 -1.3691
   69CHL1    C2 7559   3.010   3.266   6.946 -0.6300  0.1414  0.5876
   69CHL1   H2A 7560   3.015   3.369   6.903  1.5185 -0.9449 -1.8660
   69CHL1   H2B 7561   2.937   3.202   6.891 -0.8948  0.8243  0.1217
   69CHL1   C20 7562   2.840   3.021   7.850  0.3250 -1.0226  0.1721
   69CHL1   H20 7563   2.775   2.934   7.824  0.5219 -1.2961  0.6026
   69CHL1   C21 7564   2.741   3.133   7.835  0.2168 -0.4584  0.3311
   69CHL1  H21A 7565   2.691   3.140   7.736  0.7804 -0.5383  0.0378
   69CHL1  H21B 7566   2.800   3.224   7.861  0.6692 -0.7854  0.4385
   69CHL1  H21C 7567   2.655   3.123   7.905  0.0504 -1.5643 -0.0219
   69CHL1   C22 7568   2.889   3.016   7.994 -0.3489  0.1164 -0.1530
   69CHL1  H22A 7569   2.962   2.936   8.021 -1.3355 -0.9950 -0.7126
   69CHL1  H22B 7570   2.935   3.114   8.016  0.1142  0.1316 -1.1587
   69CHL1   C23 7571   2.775   2.980   8.095  0.1472  0.4769 -0.0555
   69CHL1  H23A 7572   2.710   3.069   8.113  3.0523  2.6415  0.0457
   69CHL1  H23B 7573   2.713   2.899   8.049  0.7915  0.7264 -1.3802
   69CHL1   C24 7574   2.834   2.932   8.223 -0.2893  1.2553  0.1223
   69CHL1  H24A 7575   2.752   2.908   8.294 -1.2353 -0.4908 -1.5509
   69CHL1  H24B 7576   2.885   2.834   8.209  0.5772  1.4027  1.9635
   69CHL1   C25 7577   2.934   3.023   8.300 -0.5587  1.0693 -0.4778
   69CHL1   H25 7578   3.003   3.067   8.225  1.0845  0.1332  0.4534
   69CHL1   C26 7579   2.865   3.145   8.364  0.8034  0.5890  0.1357
   69CHL1  H26A 7580   2.927   3.217   8.422  1.1973 -0.4568  1.0290
   69CHL1  H26B 7581   2.804   3.197   8.287 -0.3201  2.3066  2.1459
   69CHL1  H26C 7582   2.789   3.112   8.438 -2.4180  1.7916 -2.5046
   69CHL1   C27 7583   3.008   2.944   8.397 -0.8167  0.0169 -0.8081
   69CHL1  H27A 7584   2.937   2.902   8.471  1.6631 -2.8048  0.0803
   69CHL1  H27B 7585   3.069   2.860   8.357 -1.1930  0.1132 -1.5946
   69CHL1  H27C 7586   3.077   3.014   8.450  0.7582 -1.6736 -0.5687
   70CHL1    C3 7587   2.296   0.567   7.127 -0.3388 -0.2939 -0.4226
   70CHL1    H3 7588   2.364   0.480   7.130  1.9859  1.5002  3.0937
   70CHL1    O3 7589   2.281   0.619   6.997  0.0576  0.4277 -0.4631
   70CHL1   H3' 7590   2.203   0.582   6.956  0.9368 -0.3952 -1.4303
   70CHL1    C4 7591   2.154   0.532   7.183 -0.7037 -0.4861  0.3970
   70CHL1   H4A 7592   2.082   0.617   7.181  0.2166  0.3422 -4.4386
   70CHL1   H4B 7593   2.114   0.455   7.114  1.8054 -1.8650  0.4110
   70CHL1    C5 7594   2.160   0.485   7.328 -0.4040  0.0386 -0.1047
   70CHL1    C6 7595   2.124   0.362   7.360  0.5377 -0.2157 -0.6131
   70CHL1    H6 7596   2.072   0.309   7.279  1.1193 -0.3172 -0.9235
   70CHL1    C7 7597   2.120   0.303   7.496 -0.0077  0.1774  0.7972
   70CHL1   H7A 7598   2.025   0.247   7.507  0.1639 -0.3772 -0.4642
   70CHL1   H7B 7599   2.198   0.225   7.511  0.7977  1.4035  3.3940
   70CHL1    C8 7600   2.136   0.409   7.605  0.1807 -0.2330  0.5648
   70CHL1    H8 7601   2.043   0.470   7.607 -0.7483 -1.6861  3.9239
   70CHL1   C14 7602   2.153   0.344   7.741  0.1085  0.8926 -0.3172
   70CHL1   H14 7603   2.250   0.292   7.725 -1.0499 -1.8422  1.2520
   70CHL1   C15 7604   2.051   0.244   7.802 -0.3600  0.2476  0.1971
   70CHL1  H15A 7605   1.949   0.287   7.807 -0.9232 -0.9975 -0.2206
   70CHL1  H15B 7606   2.050   0.141   7.759 -1.1079 -0.3518  1.6266
   70CHL1   C16 7607   2.088   0.238   7.949  0.2999 -0.0405  0.0416
   70CHL1  H16A 7608   1.999   0.264   8.010  0.0364 -2.5601  0.8013
   70CHL1  H16B 7609   2.121   0.137   7.982  2.9841  0.6463 -0.4308
   70CHL1   C17 7610   2.204   0.337   7.974 -0.0442  0.4513  0.4367
   70CHL1   H17 7611   2.299   0.288   7.946 -0.0518  0.2762  0.7144
   70CHL1   C13 7612   2.183   0.439   7.853 -0.2331  0.0684  0.0440
   70CHL1   C18 7613   2.065   0.526   7.885 -0.2124 -0.0957 -0.7814
   70CHL1  H18A 7614   2.007   0.550   7.794 -3.5690 -1.3852  0.9192
   70CHL1  H18B 7615   1.989   0.471   7.946  1.7251 -0.8549  1.0017
   70CHL1  H18C 7616   2.094   0.621   7.934  1.0239  0.0680 -1.8128
   70CHL1   C12 7617   2.308   0.529   7.812  0.4093  0.4232 -0.5319
   70CHL1  H12A 7618   2.338   0.609   7.884  3.0498  0.5177 -1.6526
   70CHL1  H12B 7619   2.398   0.466   7.795  1.6780  2.0473 -0.0239
   70CHL1   C11 7620   2.276   0.607   7.683  1.0154  0.9134 -0.3102
   70CHL1  H11A 7621   2.186   0.671   7.699  0.9661  0.4016  1.5538
   70CHL1  H11B 7622   2.356   0.675   7.646  0.6115  1.8721  0.5179
   70CHL1    C9 7623   2.248   0.506   7.565 -0.2552 -0.0177  0.0725
   70CHL1    H9 7624   2.342   0.448   7.554  1.2127  2.3472 -0.0874
   70CHL1   C10 7625   2.225   0.576   7.428 -0.4908  0.1750 -0.5837
   70CHL1   C19 7626   2.135   0.708   7.439 -0.3820 -0.3062 -0.0008
   70CHL1  H19A 7627   2.040   0.678   7.489  0.1774  0.3705  1.5060
   70CHL1  H19B 7628   2.188   0.781   7.505 -0.1125 -1.0489  0.6088
   70CHL1  H19C 7629   2.100   0.752   7.344 -3.0195  1.9170  1.9136
   70CHL1    C1 7630   2.365   0.617   7.360  0.1557 -0.1419 -0.1146
   70CHL1   H1A 7631   2.411   0.691   7.429 -2.3644  0.3732  1.0633
   70CHL1   H1B 7632   2.429   0.527   7.366  0.8639  0.3020 -0.9734
   70CHL1    C2 7633   2.358   0.675   7.215  0.2610  0.4113  0.3905
   70CHL1   H2A 7634   2.458   0.683   7.168  0.7926 -0.6453  1.3330
   70CHL1   H2B 7635   2.292   0.765   7.216 -2.8061 -1.7690  0.4046
   70CHL1   C20 7636   2.214   0.383   8.118  0.0216 -0.6358  0.6957
   70CHL1   H20 7637   2.123   0.438   8.151  1.2646  0.6373  2.0495
   70CHL1   C21 7638   2.337   0.475   8.128  0.1541  0.2240 -0.0213
   70CHL1  H21A 7639   2.435   0.436   8.094  1.2682  1.4316  1.7203
   70CHL1  H21B 7640   2.359   0.491   8.236  1.2850  0.1877 -0.2473
   70CHL1  H21C 7641   2.329   0.577   8.086  2.8362 -0.4304 -2.2588
   70CHL1   C22 7642   2.245   0.267   8.220  0.5415  0.5429 -0.2291
   70CHL1  H22A 7643   2.165   0.192   8.203  1.7386 -1.1615  1.5251
   70CHL1  H22B 7644   2.345   0.221   8.208  0.9072  1.0750  0.6989
   70CHL1   C23 7645   2.224   0.305   8.369  0.1204  0.3338  0.6159
   70CHL1  H23A 7646   2.260   0.211   8.416 -0.8725 -0.1232  0.4815
   70CHL1  H23B 7647   2.295   0.381   8.407  2.4254 -1.5432  0.1921
   70CHL1   C24 7648   2.079   0.322   8.406  0.1059 -0.4055  0.1785
   70CHL1  H24A 7649   2.038   0.409   8.350 -2.5529 -0.7707  1.4609
   70CHL1  H24B 7650   2.027   0.235   8.361  0.7055  0.9279 -3.2436
   70CHL1   C25 7651   2.046   0.341   8.560 -0.6055 -0.4781  0.0657
   70CHL1   H25 7652   2.120   0.412   8.603 -0.0697 -1.0064  0.0311
   70CHL1   C26 7653   1.906   0.396   8.587 -0.3619 -0.4214 -0.5572
   70CHL1  H26A 7654   1.835   0.317   8.554  0.7275 -1.6081 -0.0727
   70CHL1  H26B 7655   1.885   0.408   8.696  1.5690 -1.9450  0.0140
   70CHL1  H26C 7656   1.895   0.497   8.542 -1.6396 -0.1875  0.2464
   70CHL1   C27 7657   2.063   0.207   8.640  0.3323 -0.0939 -0.3118
   70CHL1  H27A 7658   1.981   0.139   8.607 -0.7262  1.7738 -1.6521
   70CHL1  H27B 7659   2.160   0.154   8.627  2.1925  2.3731  2.8954
   70CHL1  H27C 7660   2.060   0.234   8.748  0.3086  1.6433 -0.7350
   71CHL1    C3 7661   1.284   3.221   6.937 -0.3523  0.1453 -0.0320
   71CHL1    H3 7662   1.218   3.137   6.967  0.6736 -0.9233 -0.7393
   71CHL1    O3 7663   1.281   3.235   6.803 -0.0129 -0.5290  0.1474
   71CHL1   H3' 7664   1.358   3.292   6.792  2.4684 -3.5558  1.2038
   71CHL1    C4 7665   1.240   3.349   7.005  0.1225  0.2824  0.6261
   71CHL1   H4A 7666   1.304   3.434   6.971  1.8794 -0.6869  1.4416
   71CHL1   H4B 7667   1.136   3.370   6.973  1.6147  3.3160 -2.5586
   71CHL1    C5 7668   1.260   3.344   7.158 -0.2478  0.4611 -0.3771
   71CHL1    C6 7669   1.158   3.367   7.243 -0.0477  0.1513  0.1271
   71CHL1    H6 7670   1.057   3.401   7.214 -0.1177  1.2535  1.5698
   71CHL1    C7 7671   1.174   3.363   7.388  0.0482  0.7964 -0.0485
   71CHL1   H7A 7672   1.130   3.450   7.443 -0.0027  0.3198  0.6749
   71CHL1   H7B 7673   1.119   3.274   7.426  0.8546  1.3999  2.6364
   71CHL1    C8 7674   1.318   3.356   7.442 -0.1739 -0.5247 -0.6546
   71CHL1    H8 7675   1.357   3.459   7.429  0.6725 -0.6749  0.6361
   71CHL1   C14 7676   1.324   3.308   7.588  0.3976  0.6176 -0.6739
   71CHL1   H14 7677   1.303   3.200   7.598  0.4812  0.6411 -0.2223
   71CHL1   C15 7678   1.226   3.378   7.679 -0.4607  0.4835 -0.7697
   71CHL1  H15A 7679   1.219   3.488   7.667  0.1279  0.5972 -0.0865
   71CHL1  H15B 7680   1.124   3.335   7.668 -0.6955  0.5960  0.7909
   71CHL1   C16 7681   1.283   3.340   7.811 -0.2252  0.2549 -0.4780
   71CHL1  H16A 7682   1.286   3.431   7.874 -0.7749 -1.2351  1.7586
   71CHL1  H16B 7683   1.207   3.270   7.852  0.6613  0.2861  1.2487
   71CHL1   C17 7684   1.418   3.268   7.790 -0.2333  0.2965  0.0797
   71CHL1   H17 7685   1.396   3.159   7.789 -2.5184  0.7032  0.7791
   71CHL1   C13 7686   1.466   3.318   7.647  0.7840 -0.7317  0.0300
   71CHL1   C18 7687   1.515   3.464   7.633  0.6319 -0.1007  0.4340
   71CHL1  H18A 7688   1.604   3.482   7.697 -0.9434  1.4029  2.2866
   71CHL1  H18B 7689   1.534   3.491   7.527 -2.2489 -0.6916 -0.2681
   71CHL1  H18C 7690   1.437   3.535   7.668 -0.9726 -1.0825 -1.0995
   71CHL1   C12 7691   1.541   3.214   7.565 -1.0469  0.1611  0.3037
   71CHL1  H12A 7692   1.647   3.210   7.597 -1.0572 -0.4780  0.2750
   71CHL1  H12B 7693   1.490   3.115   7.570  1.6691 -1.2339  1.2316
   71CHL1   C11 7694   1.548   3.248   7.413 -0.0562 -0.3672  0.4174
   71CHL1  H11A 7695   1.609   3.340   7.405 -1.3090  0.4182 -0.2088
   71CHL1  H11B 7696   1.601   3.166   7.361 -2.4366 -0.2819 -2.2353
   71CHL1    C9 7697   1.402   3.265   7.353 -0.5361  0.1849 -0.4012
   71CHL1    H9 7698   1.356   3.164   7.356 -0.8512  0.2854 -1.7177
   71CHL1   C10 7699   1.410   3.308   7.199  0.3857 -0.0668 -0.0512
   71CHL1   C19 7700   1.510   3.423   7.189  0.1818 -0.1009  0.4201
   71CHL1  H19A 7701   1.512   3.462   7.084 -1.0690 -1.6449 -0.1924
   71CHL1  H19B 7702   1.500   3.500   7.269 -0.3049 -2.8855  3.1107
   71CHL1  H19C 7703   1.608   3.373   7.200  0.1337 -0.8132 -2.0699
   71CHL1    C1 7704   1.457   3.183   7.113  0.5683 -0.5019 -0.0562
   71CHL1   H1A 7705   1.557   3.158   7.155 -1.2390 -4.1211  2.3497
   71CHL1   H1B 7706   1.388   3.103   7.148  1.4303 -1.2958 -0.1753
   71CHL1    C2 7707   1.428   3.192   6.960 -0.6755  0.5450 -0.4936
   71CHL1   H2A 7708   1.470   3.101   6.913  0.2852  0.4512  0.5202
   71CHL1   H2B 7709   1.489   3.281   6.930 -2.0625  1.3848 -0.8712
   71CHL1   C20 7710   1.515   3.292   7.913  0.4529  0.0879  0.7512
   71CHL1   H20 7711   1.540   3.400   7.901 -1.8134  0.4200 -1.3090
   71CHL1   C21 7712   1.635   3.199   7.894  0.3749 -0.2665  0.0120
   71CHL1  H21A 7713   1.602   3.094   7.879 -2.6297  0.3708  1.7489
   71CHL1  H21B 7714   1.712   3.203   7.974 -0.6122 -0.2937  0.9641
   71CHL1  H21C 7715   1.696   3.226   7.804  0.8307 -0.7260  0.1833
   71CHL1   C22 7716   1.441   3.265   8.047 -0.3666  0.2224  0.1403
   71CHL1  H22A 7717   1.390   3.358   8.080 -0.9757 -0.3296  0.7481
   71CHL1  H22B 7718   1.363   3.186   8.046  1.6982 -1.8841  0.8778
   71CHL1   C23 7719   1.541   3.222   8.160  0.4149  0.3272  0.4447
   71CHL1  H23A 7720   1.594   3.130   8.126 -0.2716  0.5307 -1.2378
   71CHL1  H23B 7721   1.619   3.300   8.167  0.1770  0.8717 -2.4349
   71CHL1   C24 7722   1.462   3.223   8.294 -0.3657 -0.5105 -0.0077
   71CHL1  H24A 7723   1.447   3.327   8.329  1.4629 -0.2399  0.0107
   71CHL1  H24B 7724   1.361   3.175   8.296 -0.8175  0.4363  0.2329
   71CHL1   C25 7725   1.540   3.165   8.418  0.5388  0.1908  0.1112
   71CHL1   H25 7726   1.647   3.192   8.404  0.4273  0.9684  0.7063
   71CHL1   C26 7727   1.498   3.231   8.556  0.7810  0.0146 -0.0395
   71CHL1  H26A 7728   1.518   3.340   8.548 -1.1893  0.3739 -0.3645
   71CHL1  H26B 7729   1.394   3.220   8.594  1.0891 -2.7838  0.0667
   71CHL1  H26C 7730   1.563   3.181   8.631  1.1237  1.2815  0.5278
   71CHL1   C27 7731   1.520   3.014   8.426  0.3092 -0.0383  0.1430
   71CHL1  H27A 7732   1.552   2.976   8.525  1.5675 -1.0672 -0.6394
   71CHL1  H27B 7733   1.413   2.984   8.423  0.0235  1.0118 -0.5054
   71CHL1  H27C 7734   1.578   2.955   8.351  0.8082  0.5251  0.0852
   72CHL1    C3 7735   2.330   1.076   7.202  0.0451  0.3254  0.4396
   72CHL1    H3 7736   2.295   0.975   7.172 -1.8572 -0.1614  3.9673
   72CHL1    O3 7737   2.357   1.152   7.085  0.2707  0.3121 -0.1852
   72CHL1   H3' 7738   2.288   1.127   7.024 -0.1945  1.0522  0.0353
   72CHL1    C4 7739   2.228   1.155   7.282  0.1338 -0.2024 -0.2038
   72CHL1   H4A 7740   2.266   1.260   7.278 -1.4582  0.3715 -0.3951
   72CHL1   H4B 7741   2.136   1.145   7.221  0.0222  0.4035 -0.1424
   72CHL1    C5 7742   2.211   1.113   7.427  0.8368 -0.0239 -0.7764
   72CHL1    C6 7743   2.091   1.082   7.473 -0.1114 -1.0623 -0.4794
   72CHL1    H6 7744   2.010   1.093   7.399  1.6334 -1.4823 -2.4947
   72CHL1    C7 7745   2.061   1.046   7.610 -0.0169  0.2258  0.1430
   72CHL1   H7A 7746   1.981   1.110   7.652 -1.3050 -1.7815  0.8225
   72CHL1   H7B 7747   2.022   0.942   7.602 -0.9858  0.3415  2.7450
   72CHL1    C8 7748   2.187   1.071   7.710 -0.5018 -0.1336  0.0493
   72CHL1    H8 7749   2.178   1.179   7.733  0.2504 -0.0718  0.0625
   72CHL1   C14 7750   2.187   0.980   7.830 -0.0213  0.2222 -0.7995
   72CHL1   H14 7751   2.212   0.877   7.796  2.8781  1.0200 -1.2719
   72CHL1   C15 7752   2.051   0.973   7.900 -0.5920  0.4306  0.1752
   72CHL1  H15A 7753   2.013   1.076   7.916 -0.6542  0.8264 -2.3907
   72CHL1  H15B 7754   1.971   0.920   7.843  1.0038  0.4575 -2.1606
   72CHL1   C16 7755   2.082   0.919   8.044  0.0618  0.0585 -0.3075
   72CHL1  H16A 7756   2.043   0.993   8.117 -2.9492  1.7087 -3.4189
   72CHL1  H16B 7757   2.043   0.816   8.057 -0.0890  0.2657  0.9005
   72CHL1   C17 7758   2.242   0.910   8.051 -0.4263  0.3472 -0.5010
   72CHL1   H17 7759   2.263   0.808   8.011 -1.4107 -1.0786  2.5277
   72CHL1   C13 7760   2.298   1.002   7.936  0.1540 -0.0787  0.0511
   72CHL1   C18 7761   2.285   1.144   8.000 -1.4548  0.2951 -0.8290
   72CHL1  H18A 7762   2.380   1.162   8.055 -1.6062  0.6577 -0.6856
   72CHL1  H18B 7763   2.272   1.223   7.924 -0.6099 -1.2174 -2.6019
   72CHL1  H18C 7764   2.196   1.142   8.067  0.1204 -0.3277  1.3336
   72CHL1   C12 7765   2.431   0.979   7.873  0.0127  0.0803  0.2420
   72CHL1  H12A 7766   2.511   1.021   7.938  0.4789  2.2766 -1.6754
   72CHL1  H12B 7767   2.450   0.871   7.859 -0.8394 -0.2822  1.8204
   72CHL1   C11 7768   2.442   1.058   7.737 -0.3053 -0.9170  0.3551
   72CHL1  H11A 7769   2.451   1.167   7.757  0.1618 -0.5637 -1.6166
   72CHL1  H11B 7770   2.536   1.031   7.683  0.2684  1.9366 -0.1856
   72CHL1    C9 7771   2.320   1.044   7.641 -0.6179 -0.0616 -0.2420
   72CHL1    H9 7772   2.310   0.935   7.619 -2.6412  0.0682 -0.0197
   72CHL1   C10 7773   2.341   1.104   7.502 -0.5032 -0.4028  0.1761
   72CHL1   C19 7774   2.397   1.251   7.532  0.0804  0.1741 -0.5138
   72CHL1  H19A 7775   2.404   1.313   7.440  0.7333  1.5895  0.4709
   72CHL1  H19B 7776   2.338   1.303   7.610 -2.2308 -1.5134 -1.0630
   72CHL1  H19C 7777   2.500   1.225   7.564  0.0427  2.6524  1.6882
   72CHL1    C1 7778   2.443   1.016   7.417 -0.3908 -0.4675 -0.6696
   72CHL1   H1A 7779   2.541   1.025   7.469 -0.2214  0.8424 -1.1851
   72CHL1   H1B 7780   2.402   0.913   7.416 -1.7827 -0.0176  2.6410
   72CHL1    C2 7781   2.461   1.067   7.274  0.2937  0.2713  0.0752
   72CHL1   H2A 7782   2.541   1.005   7.228 -0.4955  1.4948 -3.0964
   72CHL1   H2B 7783   2.511   1.165   7.286  2.5985 -0.9391  0.7935
   72CHL1   C20 7784   2.315   0.917   8.190  0.1640  0.1163 -0.4022
   72CHL1   H20 7785   2.303   1.021   8.228 -1.7050  0.3275 -1.4771
   72CHL1   C21 7786   2.461   0.889   8.176 -0.3562  0.3714  0.6371
   72CHL1  H21A 7787   2.508   0.985   8.146 -1.5456  1.0342  0.8611
   72CHL1  H21B 7788   2.474   0.807   8.102  0.3455  0.5083  0.6092
   72CHL1  H21C 7789   2.521   0.858   8.263 -0.5582 -0.8311  0.3606
   72CHL1   C22 7790   2.252   0.818   8.289 -0.6685 -0.7785 -0.1660
   72CHL1  H22A 7791   2.145   0.847   8.294  0.1911  2.4936  0.5724
   72CHL1  H22B 7792   2.256   0.712   8.255 -0.8796 -0.4772 -1.1475
   72CHL1   C23 7793   2.308   0.815   8.439  0.1786  0.2287 -0.3310
   72CHL1  H23A 7794   2.414   0.784   8.422  0.4838  0.4343  1.1071
   72CHL1  H23B 7795   2.316   0.923   8.464 -0.6521 -0.2799  2.3471
   72CHL1   C24 7796   2.226   0.741   8.544  0.5717 -0.3185  0.2290
   72CHL1  H24A 7797   2.126   0.788   8.539  1.6869  2.1132  0.2081
   72CHL1  H24B 7798   2.222   0.637   8.505  0.2150  0.2406 -1.2570
   72CHL1   C25 7799   2.293   0.753   8.683  0.4498 -0.5056 -0.3524
   72CHL1   H25 7800   2.316   0.855   8.721 -2.7518  0.4071 -0.7343
   72CHL1   C26 7801   2.197   0.691   8.787 -0.2799 -1.0129  0.5831
   72CHL1  H26A 7802   2.175   0.585   8.763  0.5561 -0.9230 -0.6242
   72CHL1  H26B 7803   2.236   0.701   8.891 -1.7511 -1.0882  1.1531
   72CHL1  H26C 7804   2.103   0.750   8.786 -0.2686 -0.9800 -1.6372
   72CHL1   C27 7805   2.429   0.676   8.696 -0.5110 -0.1189 -0.2726
   72CHL1  H27A 7806   2.416   0.567   8.678  0.7723 -0.7085  2.1838
   72CHL1  H27B 7807   2.520   0.702   8.637  0.0783  0.5388  0.8977
   72CHL1  H27C 7808   2.461   0.692   8.801 -2.3357  1.4998  0.0612
   73CHL1    C3 7809   2.113   4.417   7.159 -0.4156 -0.2948  0.1514
   73CHL1    H3 7810   2.217   4.384   7.180 -0.3200  0.8651  1.5575
   73CHL1    O3 7811   2.083   4.404   7.014  0.5915 -0.1654  0.6897
   73CHL1   H3' 7812   2.093   4.494   6.982  0.3097 -0.1453  0.6574
   73CHL1    C4 7813   2.015   4.336   7.241  0.4375 -0.3806  0.5720
   73CHL1   H4A 7814   1.910   4.370   7.225  1.2345  1.8576 -0.1235
   73CHL1   H4B 7815   2.012   4.233   7.200  0.6364 -0.1407 -0.0526
   73CHL1    C5 7816   2.048   4.354   7.385 -0.5135  0.1093  0.0019
   73CHL1    C6 7817   2.074   4.248   7.461  0.0977  0.0240 -0.4266
   73CHL1    H6 7818   2.096   4.148   7.420  1.2072 -0.2434  0.7662
   73CHL1    C7 7819   2.078   4.252   7.612  0.3334 -0.2354  0.5787
   73CHL1   H7A 7820   2.015   4.177   7.663 -0.8442  1.0465  1.0565
   73CHL1   H7B 7821   2.185   4.237   7.635  0.6367 -0.3359 -0.8474
   73CHL1    C8 7822   2.038   4.391   7.670  0.0164 -0.4272  0.1717
   73CHL1    H8 7823   1.927   4.397   7.680  0.0497  0.0271  0.2822
   73CHL1   C14 7824   2.111   4.414   7.804  0.0999 -0.3180  0.1580
   73CHL1   H14 7825   2.220   4.408   7.782  0.4186 -0.0414  1.5818
   73CHL1   C15 7826   2.097   4.307   7.914  0.1178 -0.6023 -0.0502
   73CHL1  H15A 7827   1.994   4.265   7.916  0.1013 -0.7987 -3.0995
   73CHL1  H15B 7828   2.169   4.223   7.906  0.4257 -0.3197 -0.2066
   73CHL1   C16 7829   2.117   4.376   8.042  0.0074  0.7347 -0.5635
   73CHL1  H16A 7830   2.019   4.378   8.094 -0.4550 -2.2982 -1.2598
   73CHL1  H16B 7831   2.198   4.336   8.107  1.1158  0.8872 -1.8245
   73CHL1   C17 7832   2.150   4.527   8.008 -0.1529 -0.0812  0.3462
   73CHL1   H17 7833   2.261   4.529   7.999 -0.0086 -0.2581  1.9886
   73CHL1   C13 7834   2.084   4.546   7.875  0.2744 -1.1044  0.2599
   73CHL1   C18 7835   1.932   4.562   7.906  0.1862 -1.1393 -0.5268
   73CHL1  H18A 7836   1.882   4.490   7.974 -1.1186  1.5168  1.4127
   73CHL1  H18B 7837   1.925   4.664   7.950  0.7595 -1.5542  0.5494
   73CHL1  H18C 7838   1.875   4.566   7.811 -0.2412 -2.5629 -0.3472
   73CHL1   C12 7839   2.137   4.657   7.779 -0.1812 -0.8357 -0.8370
   73CHL1  H12A 7840   2.122   4.762   7.815  0.8674 -1.4086  1.3393
   73CHL1  H12B 7841   2.247   4.654   7.764 -0.2283 -1.5497 -1.0508
   73CHL1   C11 7842   2.073   4.644   7.642  0.7161 -0.1151 -0.2496
   73CHL1  H11A 7843   1.965   4.670   7.644  0.4254 -1.3425  0.2914
   73CHL1  H11B 7844   2.121   4.718   7.575 -0.0979 -0.1504 -0.8879
   73CHL1    C9 7845   2.085   4.507   7.580 -0.0889 -0.3779 -0.1018
   73CHL1    H9 7846   2.194   4.492   7.562  0.2722 -0.8922  2.2984
   73CHL1   C10 7847   2.037   4.503   7.434 -0.1430  0.4090  0.4606
   73CHL1   C19 7848   1.892   4.554   7.425  0.4344  0.6582  0.0086
   73CHL1  H19A 7849   1.842   4.536   7.328  0.2220 -1.6129  0.5074
   73CHL1  H19B 7850   1.824   4.500   7.495  2.9258 -1.6019  0.7572
   73CHL1  H19C 7851   1.883   4.660   7.456  1.5529  0.1190  2.3136
   73CHL1    C1 7852   2.128   4.587   7.341 -0.9315  0.7148  0.3891
   73CHL1   H1A 7853   2.115   4.692   7.376 -1.4515  0.6440  0.4247
   73CHL1   H1B 7854   2.233   4.560   7.361 -0.6751  0.4685 -1.2072
   73CHL1    C2 7855   2.101   4.563   7.194 -0.2955 -0.0318 -0.2276
   73CHL1   H2A 7856   2.152   4.639   7.132 -1.6491  1.1619  0.0938
   73CHL1   H2B 7857   1.998   4.589   7.164 -0.1825 -0.4548 -0.9771
   73CHL1   C20 7858   2.117   4.620   8.128 -0.5356 -0.3721  0.5504
   73CHL1   H20 7859   2.007   4.640   8.133 -0.9645 -2.1271 -1.1048
   73CHL1   C21 7860   2.202   4.749   8.104  0.0146 -0.0718 -1.0197
   73CHL1  H21A 7861   2.188   4.796   8.004 -1.7862 -0.8328 -1.1451
   73CHL1  H21B 7862   2.308   4.716   8.099  0.4481  0.9153  1.1175
   73CHL1  H21C 7863   2.197   4.831   8.179  0.3709  0.4618 -1.5715
   73CHL1   C22 7864   2.161   4.551   8.265  0.6605 -0.4022  0.7153
   73CHL1  H22A 7865   2.100   4.463   8.295 -1.5528  0.5396 -0.9083
   73CHL1  H22B 7866   2.265   4.522   8.240 -0.0303 -0.2734 -2.5532
   73CHL1   C23 7867   2.170   4.649   8.387  0.4145 -0.3005  0.0997
   73CHL1  H23A 7868   2.253   4.721   8.373 -0.9071  0.7284 -2.7606
   73CHL1  H23B 7869   2.071   4.699   8.389  0.9328  0.7598 -0.4146
   73CHL1   C24 7870   2.178   4.569   8.511  0.1336  0.1753  0.6833
   73CHL1  H24A 7871   2.093   4.498   8.513  0.5123 -0.2822  0.5284
   73CHL1  H24B 7872   2.274   4.514   8.518  0.5170  1.0639  2.8703
   73CHL1   C25 7873   2.184   4.655   8.638 -0.2798  0.0076 -0.0107
   73CHL1   H25 7874   2.095   4.721   8.634 -0.3776  0.0066  1.8131
   73CHL1   C26 7875   2.191   4.571   8.761 -0.0082 -0.1555  0.4840
   73CHL1  H26A 7876   2.206   4.622   8.859 -0.3715 -0.1018  0.5110
   73CHL1  H26B 7877   2.102   4.504   8.764 -0.8448  0.8289 -1.6176
   73CHL1  H26C 7878   2.278   4.502   8.751 -0.3067 -0.4024 -0.4482
   73CHL1   C27 7879   2.304   4.757   8.644  0.2188 -0.3089 -0.3032
   73CHL1  H27A 7880   2.292   4.811   8.740 -0.9270  1.5876 -1.4871
   73CHL1  H27B 7881   2.397   4.696   8.650  0.6800  0.5614  2.0094
   73CHL1  H27C 7882   2.301   4.826   8.557 -1.6198  3.2278  2.4600
   74CHL1    C3 7883   0.864   3.183   6.953 -0.4434  0.9056 -0.0582
   74CHL1    H3 7884   0.944   3.256   6.975  3.4951 -3.5316  1.0464
   74CHL1    O3 7885   0.845   3.197   6.810 -0.0382 -0.0166  0.8184
   74CHL1   H3' 7886   0.779   3.267   6.806 -0.9791 -0.9881 -0.9701
   74CHL1    C4 7887   0.903   3.038   6.990 -0.3243  0.0838  0.0452
   74CHL1   H4A 7888   0.814   2.977   6.962 -1.1998 -0.6423  4.0184
   74CHL1   H4B 7889   0.985   2.991   6.933 -1.2447  0.5162 -1.6800
   74CHL1    C5 7890   0.925   3.021   7.135 -0.3004 -0.2446 -0.3317
   74CHL1    C6 7891   1.045   2.991   7.181  0.0428  0.1973 -0.3854
   74CHL1    H6 7892   1.130   2.986   7.110 -0.1305 -2.0411 -0.4839
   74CHL1    C7 7893   1.085   2.960   7.330 -0.3555 -0.0086 -0.7308
   74CHL1   H7A 7894   1.129   2.859   7.338  2.4397  0.9921 -2.8037
   74CHL1   H7B 7895   1.166   3.033   7.351  0.4969 -0.9444 -0.7218
   74CHL1    C8 7896   0.955   2.961   7.417  0.1256 -0.8486  0.8789
   74CHL1    H8 7897   0.900   2.864   7.411 -0.1842 -0.5328 -1.8452
   74CHL1   C14 7898   0.987   2.991   7.567  0.1052 -0.7017  0.2532
   74CHL1   H14 7899   1.015   3.097   7.549  0.3438 -0.9227 -0.7384
   74CHL1   C15 7900   1.105   2.918   7.634 -0.0779  0.2645 -0.2853
   74CHL1  H15A 7901   1.107   2.813   7.599  1.6022 -0.2712  1.3486
   74CHL1  H15B 7902   1.201   2.965   7.602  1.3157 -1.8617  0.6724
   74CHL1   C16 7903   1.085   2.923   7.779 -0.0209 -1.1112 -0.9387
   74CHL1  H16A 7904   1.061   2.823   7.820 -1.1184 -0.0591  1.0787
   74CHL1  H16B 7905   1.170   2.967   7.835  2.3161 -4.3541 -1.8290
   74CHL1   C17 7906   0.958   3.016   7.793 -0.2196  0.6238 -0.0981
   74CHL1   H17 7907   0.986   3.123   7.781 -0.9629  0.6640 -1.5416
   74CHL1   C13 7908   0.874   2.987   7.665 -0.4391  0.5721  0.1797
   74CHL1   C18 7909   0.814   2.844   7.690  0.4796  0.2908  0.3600
   74CHL1  H18A 7910   0.779   2.794   7.598  1.3756 -0.5796  0.4821
   74CHL1  H18B 7911   0.875   2.773   7.750  1.2610 -1.5288 -2.5199
   74CHL1  H18C 7912   0.724   2.851   7.755  0.2042 -2.3966  0.3025
   74CHL1   C12 7913   0.778   3.100   7.620  0.4598  0.6776 -0.0239
   74CHL1  H12A 7914   0.687   3.084   7.683 -0.4491 -1.9446 -1.8959
   74CHL1  H12B 7915   0.818   3.203   7.628 -0.7827  1.1770 -0.0837
   74CHL1   C11 7916   0.738   3.079   7.475 -0.3583 -0.0129  0.3231
   74CHL1  H11A 7917   0.685   2.981   7.474  0.3925 -0.4277 -0.5473
   74CHL1  H11B 7918   0.670   3.154   7.430  1.4202  1.6755  0.3664
   74CHL1    C9 7919   0.857   3.072   7.373  0.4803  0.0576 -0.0867
   74CHL1    H9 7920   0.916   3.166   7.381  0.3061  0.1717 -0.1491
   74CHL1   C10 7921   0.813   3.063   7.225  0.1416  0.2329 -0.2935
   74CHL1   C19 7922   0.708   2.949   7.214 -0.4235  0.2110  0.4274
   74CHL1  H19A 7923   0.686   2.925   7.108 -2.9005 -0.7342  1.1395
   74CHL1  H19B 7924   0.749   2.852   7.248 -1.3922 -0.5615 -0.5571
   74CHL1  H19C 7925   0.611   2.970   7.264 -0.4298  0.0839  0.4677
   74CHL1    C1 7926   0.753   3.206   7.179 -0.4766  0.9266 -0.8174
   74CHL1   H1A 7927   0.659   3.224   7.236  0.3916  0.6776  0.7148
   74CHL1   H1B 7928   0.835   3.275   7.209  2.2882 -1.5287 -2.4183
   74CHL1    C2 7929   0.739   3.218   7.030  0.2410 -0.3071  0.2254
   74CHL1   H2A 7930   0.708   3.320   7.001  0.4103 -0.5675 -0.8878
   74CHL1   H2B 7931   0.666   3.149   6.982  1.3647 -0.8829 -0.6972
   74CHL1   C20 7932   0.903   3.007   7.938  0.0187  0.0259  0.3593
   74CHL1   H20 7933   0.901   2.901   7.971  1.7154  1.1124  4.2967
   74CHL1   C21 7934   0.762   3.071   7.934  1.0581  0.7263  0.6407
   74CHL1  H21A 7935   0.760   3.175   7.897 -0.8667  0.0986 -1.0844
   74CHL1  H21B 7936   0.720   3.070   8.037 -0.0778 -4.0756  0.2586
   74CHL1  H21C 7937   0.695   3.001   7.880  1.1486  1.0766  0.0794
   74CHL1   C22 7938   0.992   3.075   8.042 -0.2269  0.4609  0.3334
   74CHL1  H22A 7939   1.091   3.026   8.048 -0.3467  0.1421 -0.2878
   74CHL1  H22B 7940   1.007   3.173   7.993  0.5957 -0.4532 -1.2799
   74CHL1   C23 7941   0.925   3.100   8.180 -0.0926 -0.0492  0.1477
   74CHL1  H23A 7942   0.836   3.164   8.166 -0.7725 -1.1983 -0.8989
   74CHL1  H23B 7943   0.910   3.002   8.230  0.5602  0.0223  0.4845
   74CHL1   C24 7944   1.014   3.197   8.273  0.8293  0.0071 -0.2232
   74CHL1  H24A 7945   1.109   3.149   8.302  0.6331  0.8048  1.8143
   74CHL1  H24B 7946   1.058   3.277   8.209 -0.7364  0.1491 -1.1501
   74CHL1   C25 7947   0.950   3.253   8.398  0.6551 -0.0280  0.1770
   74CHL1   H25 7948   0.863   3.317   8.371  2.2287  1.7562 -0.7914
   74CHL1   C26 7949   0.892   3.146   8.478  0.2173  0.5733 -0.0206
   74CHL1  H26A 7950   0.867   3.187   8.578  0.4930 -1.5644  0.9461
   74CHL1  H26B 7951   0.797   3.107   8.434  1.2420 -0.2274 -1.5535
   74CHL1  H26C 7952   0.967   3.066   8.492  2.8995  3.0386  0.1005
   74CHL1   C27 7953   1.051   3.347   8.468 -0.1748  0.2458 -0.0322
   74CHL1  H27A 7954   1.125   3.286   8.525 -2.1656 -1.3630  0.9023
   74CHL1  H27B 7955   1.108   3.406   8.394  3.0429 -0.4336  1.8144
   74CHL1  H27C 7956   0.997   3.415   8.537  0.6495  0.3979  0.4638
   75CHL1    C3 7957   4.122   4.137   6.958  0.4531  0.0372  0.1149
   75CHL1    H3 7958   4.062   4.046   6.942  0.4987  0.0486 -0.1330
   75CHL1    O3 7959   4.165   4.180   6.827  0.4006  0.0601 -0.0951
   75CHL1   H3' 7960   4.230   4.247   6.849 -0.8917  1.1079  0.6548
   75CHL1    C4 7961   4.051   4.261   7.029  0.3943  0.4083 -0.1197
   75CHL1   H4A 7962   4.111   4.354   7.039 -1.9214  1.8497  0.8561
   75CHL1   H4B 7963   3.959   4.293   6.977 -0.3173 -0.1264  0.7914
   75CHL1    C5 7964   4.007   4.215   7.166  0.4876  0.9006  0.1716
   75CHL1    C6 7965   3.877   4.215   7.201 -0.8162 -0.2909  0.8298
   75CHL1    H6 7966   3.797   4.232   7.127 -1.6742 -0.8495  1.6132
   75CHL1    C7 7967   3.833   4.162   7.335 -0.3208  0.9178  0.0949
   75CHL1   H7A 7968   3.745   4.222   7.365 -0.8092  0.7179 -0.9277
   75CHL1   H7B 7969   3.808   4.054   7.328 -2.3616  1.4475 -0.8405
   75CHL1    C8 7970   3.943   4.173   7.442  0.0125 -0.4936  1.3796
   75CHL1    H8 7971   3.959   4.280   7.466  1.0166  0.0903 -1.7476
   75CHL1   C14 7972   3.905   4.092   7.575 -0.0673 -0.1058  0.4607
   75CHL1   H14 7973   3.887   3.989   7.537  2.9016 -1.2083  1.8595
   75CHL1   C15 7974   3.769   4.132   7.641  0.2326 -0.4695 -0.1529
   75CHL1  H15A 7975   3.743   4.240   7.648 -2.2636 -0.8832 -2.1646
   75CHL1  H15B 7976   3.691   4.088   7.575 -0.7134 -0.1994  0.7633
   75CHL1   C16 7977   3.771   4.053   7.776 -0.1846 -0.1817 -0.6008
   75CHL1  H16A 7978   3.742   4.122   7.858 -1.1889 -0.6028 -0.5913
   75CHL1  H16B 7979   3.715   3.956   7.773 -0.8144  0.1947 -1.4004
   75CHL1   C17 7980   3.925   4.010   7.795  0.1550  0.0471  0.1366
   75CHL1   H17 7981   3.919   3.907   7.754 -0.8858  0.7619 -1.5396
   75CHL1   C13 7982   4.008   4.094   7.687  0.1282  0.2353 -0.2701
   75CHL1   C18 7983   4.028   4.240   7.736  0.6027 -0.4704  0.5252
   75CHL1  H18A 7984   4.050   4.316   7.658  0.2608  1.4017  2.2117
   75CHL1  H18B 7985   3.931   4.271   7.781  0.0568 -2.2072  0.6141
   75CHL1  H18C 7986   4.119   4.220   7.795  1.4709 -1.7127 -1.1853
   75CHL1   C12 7987   4.139   4.035   7.634 -0.0940  0.2272 -0.4591
   75CHL1  H12A 7988   4.222   4.061   7.702 -0.3113  0.4868 -0.2887
   75CHL1  H12B 7989   4.143   3.925   7.622  0.1059 -0.1098  2.4449
   75CHL1   C11 7990   4.188   4.103   7.503  0.2676 -0.2657 -0.0836
   75CHL1  H11A 7991   4.228   4.204   7.527 -0.4308  0.1293 -0.5719
   75CHL1  H11B 7992   4.271   4.042   7.462  0.4693 -0.8502  1.1667
   75CHL1    C9 7993   4.078   4.119   7.395  0.2366  0.6430 -0.2686
   75CHL1    H9 7994   4.053   4.013   7.374  0.2392  0.8253 -1.2319
   75CHL1   C10 7995   4.121   4.185   7.257  1.1869  0.2357  0.1070
   75CHL1   C19 7996   4.193   4.311   7.283 -0.5874 -0.0156 -0.0081
   75CHL1  H19A 7997   4.284   4.302   7.346  0.8046 -0.4682 -2.0317
   75CHL1  H19B 7998   4.237   4.354   7.191  0.3558 -2.3091 -0.6640
   75CHL1  H19C 7999   4.140   4.388   7.344  2.7635  3.6640 -1.5525
   75CHL1    C1 8000   4.210   4.072   7.193 -0.0100 -0.4699  1.5858
   75CHL1   H1A 8001   4.301   4.043   7.248  1.1781  0.4975  0.1557
   75CHL1   H1B 8002   4.148   3.980   7.197 -2.1106  0.7962 -0.5321
   75CHL1    C2 8003   4.247   4.098   7.044 -0.7053  0.5002  0.0942
   75CHL1   H2A 8004   4.300   4.010   7.001 -2.3963 -0.0224 -0.9633
   75CHL1   H2B 8005   4.331   4.170   7.039 -0.1897 -0.1080 -0.1247
   75CHL1   C20 8006   3.977   4.005   7.936 -0.4548  0.1407  0.3444
   75CHL1   H20 8007   3.989   4.107   7.978 -0.1683  0.4466 -0.4602
   75CHL1   C21 8008   4.121   3.934   7.945  0.2741  0.3613  0.6131
   75CHL1  H21A 8009   4.146   3.936   8.053  1.6001  0.5275  0.3124
   75CHL1  H21B 8010   4.205   3.992   7.901  0.2409 -0.4324 -0.5247
   75CHL1  H21C 8011   4.140   3.830   7.909 -0.0471  0.8179 -0.9310
   75CHL1   C22 8012   3.877   3.936   8.038 -0.6633 -0.1050  0.4882
   75CHL1  H22A 8013   3.918   3.940   8.141 -2.8093 -0.8547  1.4172
   75CHL1  H22B 8014   3.788   4.004   8.037 -0.6164 -0.0510 -0.3090
   75CHL1   C23 8015   3.845   3.792   8.008 -0.0102  0.1135 -0.3801
   75CHL1  H23A 8016   3.780   3.790   7.917  2.3423 -0.7658 -2.0856
   75CHL1  H23B 8017   3.940   3.740   7.986 -0.4047 -0.2131 -1.3646
   75CHL1   C24 8018   3.775   3.724   8.126  0.1059 -0.3096  0.5299
   75CHL1  H24A 8019   3.834   3.732   8.220 -0.1557 -0.3958  0.7001
   75CHL1  H24B 8020   3.680   3.780   8.142  0.9132  0.8059  1.5767
   75CHL1   C25 8021   3.752   3.570   8.113 -0.3412  0.5893 -0.6828
   75CHL1   H25 8022   3.854   3.526   8.106  1.2220  3.7270  1.2049
   75CHL1   C26 8023   3.686   3.527   8.246 -0.4831  0.0828  0.4044
   75CHL1  H26A 8024   3.741   3.567   8.335 -0.3648 -0.2044  0.4605
   75CHL1  H26B 8025   3.589   3.579   8.259 -0.0511  1.0183 -0.0477
   75CHL1  H26C 8026   3.682   3.417   8.260 -0.4424  0.1912  1.3151
   75CHL1   C27 8027   3.664   3.533   7.995 -0.3122  0.0987  0.1582
   75CHL1  H27A 8028   3.563   3.576   8.012  0.0437  1.6396 -1.4065
   75CHL1  H27B 8029   3.702   3.578   7.901 -2.9246  0.8166 -0.5894
   75CHL1  H27C 8030   3.675   3.423   7.988  2.2199  0.4164 -1.4794
   76CHL1    C3 8031   1.563   6.762   7.354 -0.6001 -0.3126 -0.7288
   76CHL1    H3 8032   1.523   6.663   7.382 -1.7337  0.0894 -0.8763
   76CHL1    O3 8033   1.540   6.784   7.222 -0.0832  0.1845  0.2862
   76CHL1   H3' 8034   1.551   6.701   7.173 -0.6710  1.8229 -2.7663
   76CHL1    C4 8035   1.476   6.854   7.440  0.1714  1.0097 -0.6800
   76CHL1   H4A 8036   1.481   6.959   7.405 -1.4959  1.2781 -0.1431
   76CHL1   H4B 8037   1.374   6.814   7.422 -0.4819  1.4199  1.8765
   76CHL1    C5 8038   1.491   6.827   7.588  0.1535 -0.1622 -0.8347
   76CHL1    C6 8039   1.388   6.801   7.673 -0.4536 -0.2137  0.6723
   76CHL1    H6 8040   1.287   6.799   7.628 -0.0140  0.5036 -0.3527
   76CHL1    C7 8041   1.414   6.768   7.820  0.6302  0.2597 -0.4279
   76CHL1   H7A 8042   1.332   6.808   7.884 -1.8101 -3.4199 -1.1025
   76CHL1   H7B 8043   1.400   6.658   7.830 -0.1479  0.4961  1.1987
   76CHL1    C8 8044   1.560   6.797   7.874  0.2316 -0.4365 -0.3984
   76CHL1    H8 8045   1.568   6.907   7.884 -1.2306 -0.4098  0.6930
   76CHL1   C14 8046   1.577   6.727   8.005  0.2271 -0.1318 -0.6728
   76CHL1   H14 8047   1.594   6.618   7.990  2.0832  0.0284  0.1835
   76CHL1   C15 8048   1.464   6.745   8.111 -0.2433  0.2961 -0.5786
   76CHL1  H15A 8049   1.439   6.850   8.135 -1.0960 -0.4565  1.9935
   76CHL1  H15B 8050   1.370   6.686   8.099  0.5041 -1.8361  3.2434
   76CHL1   C16 8051   1.537   6.681   8.227  0.4284  0.3714 -0.1744
   76CHL1  H16A 8052   1.516   6.750   8.312 -0.3388 -0.2775  0.1713
   76CHL1  H16B 8053   1.499   6.580   8.254  1.9768 -1.2370 -3.7326
   76CHL1   C17 8054   1.692   6.676   8.203 -0.1539 -0.2136 -0.2955
   76CHL1   H17 8055   1.716   6.570   8.176 -1.2409 -0.0742 -1.8369
   76CHL1   C13 8056   1.719   6.760   8.069  0.1339 -0.0506 -0.7162
   76CHL1   C18 8057   1.734   6.917   8.111  0.1241  0.9600 -0.6383
   76CHL1  H18A 8058   1.841   6.942   8.130  0.4129  0.2789 -1.3073
   76CHL1  H18B 8059   1.710   6.988   8.029  0.2200 -0.1879 -1.6795
   76CHL1  H18C 8060   1.673   6.938   8.201  0.5486 -0.0209 -0.1238
   76CHL1   C12 8061   1.825   6.702   7.966  0.0728  0.0425 -0.0241
   76CHL1  H12A 8062   1.934   6.708   7.990  0.0258 -0.6127  0.3636
   76CHL1  H12B 8063   1.812   6.592   7.967 -2.7685  0.3195 -2.0566
   76CHL1   C11 8064   1.812   6.772   7.829  0.3806 -0.3559  0.1785
   76CHL1  H11A 8065   1.824   6.881   7.845 -0.1124 -0.5319  1.8994
   76CHL1  H11B 8066   1.878   6.728   7.751 -0.5768 -1.2054 -0.1755
   76CHL1    C9 8067   1.664   6.753   7.769 -0.3289 -0.2227  0.1054
   76CHL1    H9 8068   1.654   6.643   7.755  1.8940 -0.2923 -1.2089
   76CHL1   C10 8069   1.646   6.822   7.632 -0.0422  0.1580  0.2214
   76CHL1   C19 8070   1.700   6.975   7.632  0.2782 -0.0059 -0.5940
   76CHL1  H19A 8071   1.810   6.990   7.636 -0.1934  3.8837  0.1030
   76CHL1  H19B 8072   1.659   7.016   7.537 -1.4841 -0.4259 -0.0396
   76CHL1  H19C 8073   1.658   7.038   7.714  2.8898 -0.0940  0.8450
   76CHL1    C1 8074   1.735   6.737   7.535 -0.5672 -0.8825  0.6671
   76CHL1   H1A 8075   1.841   6.768   7.550 -0.0282 -1.7431 -1.2589
   76CHL1   H1B 8076   1.724   6.629   7.558  0.1367 -1.2646 -0.7441
   76CHL1    C2 8077   1.711   6.773   7.388 -0.2818 -0.2218 -0.0377
   76CHL1   H2A 8078   1.777   6.711   7.323 -1.4826 -1.9406  0.3578
   76CHL1   H2B 8079   1.743   6.876   7.361 -0.7297  0.1451  0.8299
   76CHL1   C20 8080   1.784   6.701   8.326 -0.0764  0.6116  0.3034
   76CHL1   H20 8081   1.770   6.808   8.354 -0.1905  0.5093  0.6392
   76CHL1   C21 8082   1.934   6.695   8.287 -0.0269 -0.0099 -0.4250
   76CHL1  H21A 8083   1.962   6.590   8.260 -0.1739 -0.3392  0.6656
   76CHL1  H21B 8084   2.001   6.712   8.374 -0.1945  0.8519 -0.4645
   76CHL1  H21C 8085   1.959   6.769   8.209  0.4877  0.0641 -0.1893
   76CHL1   C22 8086   1.765   6.614   8.453 -0.3666 -0.1190 -0.3392
   76CHL1  H22A 8087   1.814   6.670   8.535 -0.7912  1.9179 -1.4420
   76CHL1  H22B 8088   1.661   6.613   8.490  0.6280  0.6237  2.5505
   76CHL1   C23 8089   1.805   6.469   8.447  0.3363 -0.1795  0.3545
   76CHL1  H23A 8090   1.753   6.412   8.367  0.9483 -0.0903 -0.1174
   76CHL1  H23B 8091   1.915   6.462   8.434  0.0865 -0.9214 -1.5519
   76CHL1   C24 8092   1.772   6.397   8.576 -0.2646  0.7086  0.7945
   76CHL1  H24A 8093   1.815   6.433   8.672  2.7306  0.6460 -0.4681
   76CHL1  H24B 8094   1.662   6.400   8.592 -0.2740 -0.5268  1.0595
   76CHL1   C25 8095   1.786   6.244   8.562 -0.1780  0.7040  0.3455
   76CHL1   H25 8096   1.754   6.223   8.458  0.8207  2.4313 -0.3301
   76CHL1   C26 8097   1.936   6.199   8.572 -0.3898 -0.4641 -0.5559
   76CHL1  H26A 8098   1.988   6.242   8.661 -1.3617 -1.1906  0.3867
   76CHL1  H26B 8099   1.942   6.090   8.593 -0.0007 -0.0933  1.3827
   76CHL1  H26C 8100   1.995   6.226   8.482  1.1352  1.1020  0.8824
   76CHL1   C27 8101   1.696   6.169   8.660 -0.0547 -0.3214  0.3480
   76CHL1  H27A 8102   1.589   6.196   8.649 -0.3179 -1.0432  1.1071
   76CHL1  H27B 8103   1.696   6.058   8.653  0.5628 -0.2680 -0.7088
   76CHL1  H27C 8104   1.737   6.199   8.759 -1.5779  2.2117  0.2566
   77CHL1    C3 8105   1.707   5.053   6.963  0.5481  0.4754  0.4755
   77CHL1    H3 8106   1.642   5.144   6.957 -2.0796 -1.2356  2.1443
   77CHL1    O3 8107   1.720   4.991   6.828 -0.9039 -0.7773 -0.7744
   77CHL1   H3' 8108   1.719   5.064   6.766 -1.8947  2.3317  2.6614
   77CHL1    C4 8109   1.851   5.090   7.016  0.0652  0.1092  0.0383
   77CHL1   H4A 8110   1.909   4.996   7.013  1.4153  0.7690  2.9171
   77CHL1   H4B 8111   1.903   5.161   6.948 -0.5543  2.3049  1.7695
   77CHL1    C5 8112   1.850   5.125   7.161 -0.4319  0.1510  0.3424
   77CHL1    C6 8113   1.906   5.238   7.199  1.2116 -0.1800  0.6036
   77CHL1    H6 8114   1.956   5.307   7.128 -1.0224  2.1831  1.2437
   77CHL1    C7 8115   1.899   5.285   7.343 -1.0283 -0.7832  0.0153
   77CHL1   H7A 8116   1.991   5.339   7.374 -1.2694  0.2929 -1.0875
   77CHL1   H7B 8117   1.821   5.363   7.364  2.0774  1.9977  1.6880
   77CHL1    C8 8118   1.870   5.160   7.440 -0.2802  0.5110  0.9044
   77CHL1    H8 8119   1.963   5.099   7.443 -0.3926  0.2310 -0.7234
   77CHL1   C14 8120   1.839   5.213   7.576 -0.3710  0.1358  0.5899
   77CHL1   H14 8121   1.746   5.275   7.574  0.1225  0.8756  0.4145
   77CHL1   C15 8122   1.930   5.326   7.634  0.1918  0.1386  0.3030
   77CHL1  H15A 8123   2.035   5.297   7.612  0.3565  1.0872 -0.2086
   77CHL1  H15B 8124   1.906   5.431   7.605 -3.2814 -0.6433  0.0973
   77CHL1   C16 8125   1.903   5.320   7.790 -0.8962 -0.0470  0.6098
   77CHL1  H16A 8126   1.999   5.300   7.841 -0.0881  0.0446 -0.8603
   77CHL1  H16B 8127   1.855   5.414   7.826  1.0221  0.2567  2.4694
   77CHL1   C17 8128   1.800   5.201   7.815 -0.4967  0.7609 -0.0719
   77CHL1   H17 8129   1.700   5.248   7.801 -0.9981  0.2010  1.5213
   77CHL1   C13 8130   1.813   5.111   7.684 -0.6521 -0.0065 -0.9371
   77CHL1   C18 8131   1.938   5.012   7.702 -0.2004 -0.0092 -0.0500
   77CHL1  H18A 8132   1.983   4.956   7.618 -0.0069  0.4259 -0.2387
   77CHL1  H18B 8133   2.021   5.080   7.732 -1.6068  1.3311  0.8904
   77CHL1  H18C 8134   1.916   4.944   7.787  0.0765  1.7324  1.4666
   77CHL1   C12 8135   1.677   5.038   7.642 -0.1635  0.2304 -0.2478
   77CHL1  H12A 8136   1.652   4.951   7.707  0.6363  0.1232 -0.0788
   77CHL1  H12B 8137   1.596   5.114   7.636 -3.0137 -2.6712 -0.1453
   77CHL1   C11 8138   1.696   4.977   7.500  0.4087  0.0139  0.1108
   77CHL1  H11A 8139   1.771   4.896   7.511  0.9841  0.6340  0.8073
   77CHL1  H11B 8140   1.598   4.932   7.473  0.5327 -0.2347  0.0811
   77CHL1    C9 8141   1.750   5.079   7.387  0.7487  0.0193  1.0169
   77CHL1    H9 8142   1.662   5.146   7.378 -1.2594 -2.6998 -0.5762
   77CHL1   C10 8143   1.767   5.028   7.244  0.4545 -0.7537 -0.8481
   77CHL1   C19 8144   1.844   4.896   7.258  0.3147 -1.0213  0.1267
   77CHL1  H19A 8145   1.950   4.897   7.292  0.2061  0.2146  0.4197
   77CHL1  H19B 8146   1.788   4.824   7.322 -1.9231 -0.5790 -1.2809
   77CHL1  H19C 8147   1.835   4.851   7.157 -2.0010 -0.5894  0.1103
   77CHL1    C1 8148   1.626   5.008   7.186 -0.1466  0.7379  0.6487
   77CHL1   H1A 8149   1.561   4.942   7.247  0.9981  1.2541  2.4916
   77CHL1   H1B 8150   1.572   5.104   7.201 -1.8777 -0.1536  0.2084
   77CHL1    C2 8151   1.633   4.956   7.046 -0.9521 -0.4981  0.2442
   77CHL1   H2A 8152   1.531   4.935   7.007  0.3274  0.1097 -3.6260
   77CHL1   H2B 8153   1.671   4.852   7.050 -0.1351 -0.1878  0.6188
   77CHL1   C20 8154   1.794   5.131   7.956  0.1481  0.5100  0.1475
   77CHL1   H20 8155   1.849   5.034   7.955 -0.5766  0.0930 -1.2017
   77CHL1   C21 8156   1.647   5.095   7.977 -0.4081 -0.8671  0.0938
   77CHL1  H21A 8157   1.608   5.042   7.887  1.3311 -1.6885 -0.2006
   77CHL1  H21B 8158   1.604   5.195   7.995  2.0675  0.4130 -0.7838
   77CHL1  H21C 8159   1.636   5.023   8.061  0.0223 -0.8612  0.1573
   77CHL1   C22 8160   1.846   5.224   8.069 -0.3178 -0.4736 -0.1400
   77CHL1  H22A 8161   1.957   5.224   8.064 -0.3341  1.2039 -1.0598
   77CHL1  H22B 8162   1.805   5.325   8.045  0.0392 -0.4657 -0.7400
   77CHL1   C23 8163   1.789   5.200   8.209 -0.7533 -0.1556 -0.0320
   77CHL1  H23A 8164   1.681   5.224   8.220 -0.8346 -0.1964 -0.7415
   77CHL1  H23B 8165   1.803   5.091   8.229 -3.6671 -0.8014 -1.2988
   77CHL1   C24 8166   1.876   5.273   8.318 -0.4591  0.7290 -0.0456
   77CHL1  H24A 8167   1.981   5.236   8.325 -0.0260  1.9137 -0.2604
   77CHL1  H24B 8168   1.879   5.380   8.290  0.9670  0.5496 -0.6073
   77CHL1   C25 8169   1.819   5.249   8.461  0.1396 -0.2436  0.2767
   77CHL1   H25 8170   1.715   5.287   8.468  1.0343  2.7102 -1.5909
   77CHL1   C26 8171   1.800   5.104   8.503  0.3577 -0.0095  0.2765
   77CHL1  H26A 8172   1.902   5.065   8.523  0.2160  0.0057  1.0497
   77CHL1  H26B 8173   1.736   5.106   8.594 -0.8258  1.2780 -0.5582
   77CHL1  H26C 8174   1.748   5.041   8.428 -2.5883 -0.5594  2.6609
   77CHL1   C27 8175   1.903   5.331   8.567 -0.4835  0.5232 -0.0591
   77CHL1  H27A 8176   1.849   5.334   8.664 -2.4098  1.0285 -1.1182
   77CHL1  H27B 8177   2.010   5.304   8.580 -0.0174  2.4587  0.2586
   77CHL1  H27C 8178   1.920   5.431   8.522  0.2793 -0.7056 -2.6053
   78CHL1    C3 8179   3.628   5.652   6.746 -0.9419  0.0973 -0.5549
   78CHL1    H3 8180   3.572   5.578   6.808  0.4012  0.0536  0.6222
   78CHL1    O3 8181   3.577   5.657   6.613 -0.5112  0.2873  0.0769
   78CHL1   H3' 8182   3.646   5.685   6.553 -0.4917 -0.9876 -0.5102
   78CHL1    C4 8183   3.638   5.796   6.805 -0.1526  0.8989 -0.5596
   78CHL1   H4A 8184   3.712   5.852   6.745  0.1325  2.3961  1.1348
   78CHL1   H4B 8185   3.543   5.854   6.800 -2.0007 -1.9708  0.4254
   78CHL1    C5 8186   3.681   5.803   6.950 -0.6734  0.5994  0.0728
   78CHL1    C6 8187   3.614   5.861   7.047 -0.0693  0.6442  0.6149
   78CHL1    H6 8188   3.515   5.901   7.019 -1.5823 -3.1790  0.1468
   78CHL1    C7 8189   3.653   5.868   7.188  0.2464  0.2780  0.2251
   78CHL1   H7A 8190   3.635   5.969   7.228 -1.1618  0.2244 -0.2281
   78CHL1   H7B 8191   3.601   5.792   7.250  2.8809 -0.4478  1.6132
   78CHL1    C8 8192   3.798   5.819   7.217  0.0133  0.1542  0.7690
   78CHL1    H8 8193   3.866   5.904   7.198 -1.9638  1.0616 -2.6835
   78CHL1   C14 8194   3.809   5.773   7.358  0.3108 -0.0084 -1.2170
   78CHL1   H14 8195   3.759   5.674   7.354  0.9266 -0.3296 -0.8934
   78CHL1   C15 8196   3.741   5.852   7.481 -0.5766 -0.2455 -0.0963
   78CHL1  H15A 8197   3.732   5.960   7.454 -2.6486 -0.4247 -0.1708
   78CHL1  H15B 8198   3.637   5.820   7.499 -0.5182 -0.5166 -0.2400
   78CHL1   C16 8199   3.829   5.833   7.602 -0.4233  0.3766  0.1087
   78CHL1  H16A 8200   3.895   5.923   7.599 -1.5750  1.1708 -2.2252
   78CHL1  H16B 8201   3.786   5.822   7.704  1.9298 -1.1957  0.9720
   78CHL1   C17 8202   3.923   5.715   7.556  0.0511  0.7805 -0.4090
   78CHL1   H17 8203   3.860   5.624   7.566 -1.2500  1.6566 -0.4483
   78CHL1   C13 8204   3.949   5.731   7.402  0.2913 -0.1566 -0.2446
   78CHL1   C18 8205   4.037   5.845   7.379 -0.0843 -0.2597 -0.5630
   78CHL1  H18A 8206   4.000   5.944   7.414  2.1822 -0.3139  2.1665
   78CHL1  H18B 8207   4.129   5.838   7.440 -0.5408  2.8418  0.6128
   78CHL1  H18C 8208   4.069   5.856   7.274 -0.6202  2.3086 -0.5103
   78CHL1   C12 8209   3.990   5.616   7.316  0.0511  0.5635 -0.1409
   78CHL1  H12A 8210   4.094   5.584   7.336  0.4066  0.9357 -1.3873
   78CHL1  H12B 8211   3.914   5.536   7.336 -0.9433  1.6048  0.3111
   78CHL1   C11 8212   3.977   5.647   7.162  0.5474 -0.1286  0.0575
   78CHL1  H11A 8213   4.059   5.716   7.130  2.4711 -1.8326  1.2160
   78CHL1  H11B 8214   3.999   5.549   7.115 -0.3292 -0.5229  0.4570
   78CHL1    C9 8215   3.837   5.701   7.129 -0.6407  0.3947 -0.4008
   78CHL1    H9 8216   3.780   5.612   7.164 -0.4499 -0.4956 -2.2412
   78CHL1   C10 8217   3.811   5.722   6.975 -0.7584 -0.1753 -0.1147
   78CHL1   C19 8218   3.925   5.803   6.909  0.3744  0.1516  0.8479
   78CHL1  H19A 8219   3.923   5.908   6.945 -1.1043  1.4451 -2.7663
   78CHL1  H19B 8220   4.025   5.757   6.921 -0.5601 -1.6237  2.0492
   78CHL1  H19C 8221   3.912   5.837   6.804  0.4845 -0.4597  0.6334
   78CHL1    C1 8222   3.813   5.584   6.901 -0.1708 -0.1188 -0.5994
   78CHL1   H1A 8223   3.913   5.536   6.901 -0.0014  0.2239 -1.8503
   78CHL1   H1B 8224   3.743   5.521   6.960 -1.8939 -0.2638 -2.7148
   78CHL1    C2 8225   3.770   5.590   6.749  0.3253 -0.1919  0.1059
   78CHL1   H2A 8226   3.771   5.486   6.712 -2.3118 -0.4440  0.6250
   78CHL1   H2B 8227   3.830   5.653   6.680 -0.6046 -0.7542 -1.2231
   78CHL1   C20 8228   4.039   5.695   7.660 -0.7282 -0.1659  0.1778
   78CHL1   H20 8229   4.111   5.775   7.631  0.6604 -1.1272  0.9875
   78CHL1   C21 8230   4.109   5.555   7.628 -0.1193 -0.3490  0.1485
   78CHL1  H21A 8231   4.152   5.556   7.526 -1.5372  2.2132 -0.4792
   78CHL1  H21B 8232   4.029   5.478   7.631  1.0137 -1.5131  1.6246
   78CHL1  H21C 8233   4.189   5.522   7.698 -0.4076 -0.0975  0.5999
   78CHL1   C22 8234   4.012   5.705   7.804  0.6417 -0.3437  0.6022
   78CHL1  H22A 8235   3.954   5.796   7.831  1.2773  0.1921  0.1659
   78CHL1  H22B 8236   3.955   5.615   7.834  1.8513 -2.0368 -2.0585
   78CHL1   C23 8237   4.142   5.702   7.886 -0.9364  0.2294 -1.4016
   78CHL1  H23A 8238   4.181   5.598   7.890  1.5174  1.0172 -3.6064
   78CHL1  H23B 8239   4.223   5.764   7.842 -2.0000  1.3128 -1.8470
   78CHL1   C24 8240   4.136   5.759   8.038  0.2617 -0.3439 -0.3245
   78CHL1  H24A 8241   4.236   5.741   8.082  0.0399  1.9533  1.2172
   78CHL1  H24B 8242   4.108   5.866   8.026 -3.5359 -0.9288  2.6416
   78CHL1   C25 8243   4.022   5.711   8.138 -0.5226  0.0641 -0.0855
   78CHL1   H25 8244   3.930   5.739   8.083  0.7716  0.0063 -2.3413
   78CHL1   C26 8245   4.021   5.556   8.141  0.2366  0.1536  0.6375
   78CHL1  H26A 8246   4.118   5.524   8.185  0.5815 -0.9717 -0.9055
   78CHL1  H26B 8247   3.933   5.515   8.196 -1.9669  3.0750 -0.5959
   78CHL1  H26C 8248   4.022   5.516   8.037 -0.8425  1.0378  0.2713
   78CHL1   C27 8249   4.019   5.779   8.277  0.1940 -0.0254  0.1608
   78CHL1  H27A 8250   3.944   5.725   8.338  0.7342  0.1194  0.9694
   78CHL1  H27B 8251   4.118   5.769   8.327  0.7046 -1.0534 -1.0433
   78CHL1  H27C 8252   3.993   5.887   8.278 -0.8459 -0.2167  3.9275
   79CHL1    C3 8253   2.394   6.054   7.098  1.0861 -0.5370 -0.7013
   79CHL1    H3 8254   2.486   5.992   7.096 -0.2363 -2.6643  0.8860
   79CHL1    O3 8255   2.333   6.038   6.976 -0.1222 -0.8635  0.3213
   79CHL1   H3' 8256   2.264   5.971   6.979 -0.3857 -0.5712  1.1901
   79CHL1    C4 8257   2.315   6.002   7.221 -0.0184  0.1720  1.1471
   79CHL1   H4A 8258   2.207   6.030   7.218  0.3420  1.4059 -2.2203
   79CHL1   H4B 8259   2.315   5.894   7.197  0.1723  0.4560 -0.1915
   79CHL1    C5 8260   2.380   6.015   7.358 -0.1258  0.3680 -0.1342
   79CHL1    C6 8261   2.404   5.907   7.440  0.2428 -0.3695  0.5221
   79CHL1    H6 8262   2.365   5.808   7.413 -1.3875  0.7314 -1.2402
   79CHL1    C7 8263   2.463   5.935   7.573 -0.4419  0.3943  0.4364
   79CHL1   H7A 8264   2.410   5.882   7.655 -1.7568  1.3289  0.2048
   79CHL1   H7B 8265   2.568   5.900   7.559 -1.0578 -1.7894  1.2106
   79CHL1    C8 8266   2.452   6.079   7.625 -0.0202 -1.0211  0.1746
   79CHL1    H8 8267   2.343   6.091   7.642 -0.4917 -1.8400 -2.1488
   79CHL1   C14 8268   2.538   6.091   7.750 -0.1978 -0.0465 -0.4907
   79CHL1   H14 8269   2.639   6.067   7.710 -1.0533 -0.4799 -2.4170
   79CHL1   C15 8270   2.517   5.983   7.867  0.0913  0.8149  0.2198
   79CHL1  H15A 8271   2.408   5.986   7.886  0.0529 -0.4650  0.2024
   79CHL1  H15B 8272   2.542   5.880   7.833  1.0672  1.6127 -1.5913
   79CHL1   C16 8273   2.605   6.042   7.976 -0.0896  0.3226  0.1191
   79CHL1  H16A 8274   2.539   6.059   8.064  0.9518  2.9588  0.4621
   79CHL1  H16B 8275   2.673   5.960   8.008  0.7021  1.2007  0.7538
   79CHL1   C17 8276   2.659   6.181   7.925 -0.2804 -0.4755 -0.2818
   79CHL1   H17 8277   2.759   6.168   7.877 -0.5956  0.1238 -1.1036
   79CHL1   C13 8278   2.555   6.230   7.811  0.3173  0.0940 -0.6686
   79CHL1   C18 8279   2.416   6.274   7.875  0.9643  0.2934  0.3268
   79CHL1  H18A 8280   2.404   6.377   7.913  2.8911 -0.4898  3.1942
   79CHL1  H18B 8281   2.339   6.265   7.796  2.7598 -1.2426 -1.3302
   79CHL1  H18C 8282   2.387   6.201   7.954 -0.3471  1.4407  0.9184
   79CHL1   C12 8283   2.606   6.327   7.703  0.6679 -0.7901 -0.0151
   79CHL1  H12A 8284   2.603   6.425   7.755 -1.3137 -1.0465  0.3819
   79CHL1  H12B 8285   2.710   6.292   7.684  1.4186 -0.3053  2.9223
   79CHL1   C11 8286   2.517   6.319   7.571 -0.3314  0.1818 -1.0843
   79CHL1  H11A 8287   2.421   6.366   7.600 -1.6847 -3.6604  1.0073
   79CHL1  H11B 8288   2.570   6.372   7.489  2.6743  0.1285  0.7423
   79CHL1    C9 8289   2.498   6.172   7.522  0.2393  0.1659  0.2100
   79CHL1    H9 8290   2.602   6.145   7.496  0.1753  0.2523 -0.1401
   79CHL1   C10 8291   2.415   6.157   7.393 -0.0154 -0.1727 -0.7276
   79CHL1   C19 8292   2.290   6.242   7.405  0.1301  0.0824 -0.6307
   79CHL1  H19A 8293   2.204   6.206   7.344  0.9778 -0.2973 -1.6069
   79CHL1  H19B 8294   2.267   6.247   7.514 -1.1350  1.4342 -0.9328
   79CHL1  H19C 8295   2.321   6.340   7.362  1.7261 -1.0481 -2.0872
   79CHL1    C1 8296   2.496   6.205   7.268 -0.6807 -0.4796  0.4188
   79CHL1   H1A 8297   2.514   6.313   7.285 -1.4706 -0.4393  1.0253
   79CHL1   H1B 8298   2.597   6.161   7.278 -0.7185 -0.4846  0.7739
   79CHL1    C2 8299   2.427   6.194   7.131  0.0145  0.1877  0.7797
   79CHL1   H2A 8300   2.488   6.239   7.050 -1.7943  0.5894 -0.3924
   79CHL1   H2B 8301   2.337   6.259   7.136 -0.6493 -0.6514  0.1208
   79CHL1   C20 8302   2.689   6.283   8.044  0.4469  0.4919  0.3720
   79CHL1   H20 8303   2.590   6.291   8.093  1.2592  0.9178  1.9748
   79CHL1   C21 8304   2.726   6.422   7.987  0.0609 -0.1956  0.3373
   79CHL1  H21A 8305   2.634   6.484   7.975  0.1893 -0.4044 -1.9660
   79CHL1  H21B 8306   2.771   6.419   7.886  0.3834 -1.0742  0.5082
   79CHL1  H21C 8307   2.788   6.474   8.064  0.4713 -1.4182  0.8373
   79CHL1   C22 8308   2.784   6.220   8.155 -0.4220  0.2892 -0.4070
   79CHL1  H22A 8309   2.742   6.120   8.176 -0.7886  0.0147 -2.3699
   79CHL1  H22B 8310   2.887   6.211   8.112  0.3799  2.3312  1.0039
   79CHL1   C23 8311   2.777   6.302   8.282 -0.3208  0.1876 -0.4043
   79CHL1  H23A 8312   2.805   6.408   8.262 -2.1058  0.6557 -0.4898
   79CHL1  H23B 8313   2.676   6.305   8.327 -0.5448 -1.5302 -0.7443
   79CHL1   C24 8314   2.882   6.267   8.390 -0.1571 -0.0354 -0.2037
   79CHL1  H24A 8315   2.854   6.160   8.408 -0.8184  0.0126 -0.9123
   79CHL1  H24B 8316   2.986   6.272   8.351  0.6189 -2.3444  1.4450
   79CHL1   C25 8317   2.870   6.358   8.515 -0.2407  0.6604 -0.6467
   79CHL1   H25 8318   2.770   6.341   8.562  0.9511 -3.7286  0.4712
   79CHL1   C26 8319   2.972   6.323   8.622  0.2441  0.1156  0.1840
   79CHL1  H26A 8320   3.077   6.331   8.588  0.2667 -0.1686  0.1840
   79CHL1  H26B 8321   2.951   6.374   8.719 -0.2967 -0.4044  0.3417
   79CHL1  H26C 8322   2.950   6.220   8.658  0.8618  0.2594  0.9952
   79CHL1   C27 8323   2.894   6.506   8.479  0.2732 -0.3728  0.1232
   79CHL1  H27A 8324   2.979   6.513   8.409 -1.0272 -0.6996 -1.5205
   79CHL1  H27B 8325   2.801   6.550   8.437  0.0671 -0.9054  0.0199
   79CHL1  H27C 8326   2.905   6.560   8.575 -0.8602 -0.3737  0.2594
   80CHL1    C3 8327   0.822   3.730   7.163 -0.1247  0.3794 -0.2726
   80CHL1    H3 8328   0.915   3.670   7.169 -0.8727 -0.7251  0.3046
   80CHL1    O3 8329   0.789   3.745   7.029 -0.1036 -0.0965  0.2093
   80CHL1   H3' 8330   0.790   3.840   7.015 -1.1808 -0.3791 -1.9834
   80CHL1    C4 8331   0.708   3.660   7.231 -0.2281 -0.5177 -0.0702
   80CHL1   H4A 8332   0.625   3.735   7.229  0.9876  0.9237  1.8019
   80CHL1   H4B 8333   0.686   3.568   7.173  1.4906 -0.1426 -1.3478
   80CHL1    C5 8334   0.748   3.637   7.376 -1.1272 -0.7115 -0.4951
   80CHL1    C6 8335   0.761   3.517   7.423  0.6322  0.2160  0.9449
   80CHL1    H6 8336   0.719   3.438   7.360 -3.3480  2.4536  0.6364
   80CHL1    C7 8337   0.806   3.481   7.562  1.3000 -0.7867  0.1683
   80CHL1   H7A 8338   0.733   3.406   7.597 -0.7778  0.6716 -0.8783
   80CHL1   H7B 8339   0.905   3.433   7.547 -0.0371 -3.1442 -1.4021
   80CHL1    C8 8340   0.795   3.600   7.649 -0.5373 -0.0825  0.4910
   80CHL1    H8 8341   0.693   3.602   7.694 -0.5493 -2.2228  0.5956
   80CHL1   C14 8342   0.873   3.573   7.782  0.0369 -0.4030 -0.2466
   80CHL1   H14 8343   0.980   3.562   7.754  0.8604 -0.6018  2.8569
   80CHL1   C15 8344   0.859   3.435   7.850 -0.2438 -0.6612  0.5060
   80CHL1  H15A 8345   0.761   3.386   7.832 -0.2967 -0.6608  0.7910
   80CHL1  H15B 8346   0.934   3.365   7.809  1.5075  1.3969  0.1185
   80CHL1   C16 8347   0.892   3.467   7.996  0.1680  0.0139 -0.5797
   80CHL1  H16A 8348   0.794   3.463   8.049 -0.2439  1.9139 -1.1465
   80CHL1  H16B 8349   0.957   3.397   8.053 -0.2372  0.4982  0.4928
   80CHL1   C17 8350   0.945   3.611   7.997  0.3573  0.3953 -0.1760
   80CHL1   H17 8351   1.043   3.603   7.947  1.1990 -1.3201  1.7218
   80CHL1   C13 8352   0.860   3.679   7.884  0.5868 -0.2389 -0.2232
   80CHL1   C18 8353   0.714   3.704   7.930 -0.6436 -0.0009 -0.3337
   80CHL1  H18A 8354   0.671   3.608   7.968 -0.8657  0.3586  0.3416
   80CHL1  H18B 8355   0.702   3.788   8.001  0.5582  0.6414 -0.8894
   80CHL1  H18C 8356   0.652   3.739   7.845 -0.9827  2.9799  1.0694
   80CHL1   C12 8357   0.912   3.815   7.831 -0.0629  0.3817 -0.4147
   80CHL1  H12A 8358   0.897   3.894   7.907 -1.1494  0.1630 -0.3957
   80CHL1  H12B 8359   1.019   3.793   7.810  0.0215 -1.6202  1.8612
   80CHL1   C11 8360   0.849   3.854   7.698  0.1862 -0.1620 -0.4946
   80CHL1  H11A 8361   0.746   3.891   7.717 -1.0530 -3.4075 -0.6641
   80CHL1  H11B 8362   0.903   3.945   7.663 -1.9420  0.4389 -2.3681
   80CHL1    C9 8363   0.845   3.735   7.597 -0.3146 -0.0156  0.2453
   80CHL1    H9 8364   0.952   3.713   7.578 -0.4107  1.2081 -1.8883
   80CHL1   C10 8365   0.783   3.763   7.455  0.0385  0.1383  0.3364
   80CHL1   C19 8366   0.651   3.852   7.470 -0.2490  0.1692  0.0032
   80CHL1  H19A 8367   0.589   3.805   7.550  0.2802 -1.0286 -0.2748
   80CHL1  H19B 8368   0.686   3.954   7.494  3.3088 -0.7300 -1.0540
   80CHL1  H19C 8369   0.589   3.862   7.379  1.0212 -0.4719 -0.9555
   80CHL1    C1 8370   0.887   3.852   7.367 -0.3543  0.4233  0.2812
   80CHL1   H1A 8371   0.897   3.952   7.416  1.3604  0.0602  0.7252
   80CHL1   H1B 8372   0.986   3.802   7.372  0.3389  1.7787  0.3644
   80CHL1    C2 8373   0.857   3.868   7.222  0.0432 -0.2652  0.2614
   80CHL1   H2A 8374   0.952   3.892   7.170  1.1362 -0.6687  2.0384
   80CHL1   H2B 8375   0.786   3.952   7.210  1.0033  0.9379  2.6645
   80CHL1   C20 8376   0.982   3.678   8.129 -0.3149  0.0261  0.0188
   80CHL1   H20 8377   1.011   3.782   8.103 -1.2029 -0.1389 -1.6939
   80CHL1   C21 8378   1.109   3.600   8.178  0.5259  0.6072  0.9076
   80CHL1  H21A 8379   1.075   3.497   8.202 -1.8478  1.4201  1.1816
   80CHL1  H21B 8380   1.156   3.650   8.266  0.7704  0.1349  1.0487
   80CHL1  H21C 8381   1.179   3.595   8.092 -1.8128 -2.6236 -0.9006
   80CHL1   C22 8382   0.873   3.676   8.239  0.8255 -0.2809  0.2435
   80CHL1  H22A 8383   0.782   3.718   8.190  1.2237  0.7207  0.3461
   80CHL1  H22B 8384   0.859   3.568   8.258 -1.0025 -0.1718 -0.3456
   80CHL1   C23 8385   0.911   3.761   8.357  0.3259  0.5988  0.3955
   80CHL1  H23A 8386   1.012   3.744   8.400 -1.0754  1.1607  4.0508
   80CHL1  H23B 8387   0.888   3.869   8.343 -1.1287  0.4155  1.2547
   80CHL1   C24 8388   0.812   3.731   8.472 -0.2015  0.3634  0.1742
   80CHL1  H24A 8389   0.712   3.748   8.427  0.5908  1.2767 -1.2773
   80CHL1  H24B 8390   0.816   3.622   8.495  0.6162 -0.1369 -2.1831
   80CHL1   C25 8391   0.843   3.817   8.597 -0.0177  0.2606  0.5161
   80CHL1   H25 8392   0.859   3.922   8.563  0.7178  0.3054  0.9929
   80CHL1   C26 8393   0.719   3.818   8.680  0.3373 -0.2552  0.0694
   80CHL1  H26A 8394   0.707   3.712   8.712  1.2203 -0.0882  0.9860
   80CHL1  H26B 8395   0.724   3.871   8.778 -0.9938  0.7257 -0.3748
   80CHL1  H26C 8396   0.630   3.843   8.618  0.5399 -1.7524 -0.8316
   80CHL1   C27 8397   0.956   3.768   8.678 -0.7153  0.2351  0.8290
   80CHL1  H27A 8398   0.978   3.832   8.766 -0.2350  0.1467  0.7767
   80CHL1  H27B 8399   0.955   3.660   8.703 -0.0252 -0.4031 -1.7389
   80CHL1  H27C 8400   1.042   3.780   8.607  1.2931 -2.6168  2.6865
   81CHL1    C3 8401   5.018   3.204   6.760 -0.7963  0.6994 -0.7898
   81CHL1    H3 8402   5.115   3.248   6.790 -0.9193  0.8380 -0.5943
   81CHL1    O3 8403   5.018   3.179   6.622 -0.6667 -0.6531  0.2538
   81CHL1   H3' 8404   5.043   3.087   6.607 -2.1300 -1.2234  1.2037
   81CHL1    C4 8405   5.005   3.066   6.827 -0.6242 -0.3559  1.2525
   81CHL1   H4A 8406   4.919   3.009   6.786  0.9349 -2.2056  0.4638
   81CHL1   H4B 8407   5.087   2.992   6.810 -0.1136 -0.1871  2.9157
   81CHL1    C5 8408   5.008   3.080   6.974  0.9590  0.6682 -0.4500
   81CHL1    C6 8409   5.109   3.039   7.053  0.2082 -0.3647 -0.2481
   81CHL1    H6 8410   5.185   2.976   7.005 -0.7743 -1.8002  0.0590
   81CHL1    C7 8411   5.113   3.066   7.207  0.5662  0.7013 -0.3414
   81CHL1   H7A 8412   5.158   2.984   7.268 -0.1957 -0.2029 -0.9760
   81CHL1   H7B 8413   5.181   3.152   7.226 -0.0312  0.6961  1.9708
   81CHL1    C8 8414   4.973   3.118   7.263 -0.6649 -0.0973  0.6021
   81CHL1    H8 8415   4.907   3.029   7.260 -2.2937  1.1413 -1.2404
   81CHL1   C14 8416   4.984   3.177   7.404  0.9714  0.9489 -0.2079
   81CHL1   H14 8417   5.040   3.270   7.382  0.6735  1.4901  1.2986
   81CHL1   C15 8418   5.060   3.097   7.516 -0.4246  0.0832 -0.6179
   81CHL1  H15A 8419   5.026   2.991   7.517 -1.6904  0.4852  1.3605
   81CHL1  H15B 8420   5.169   3.094   7.495 -0.4818 -1.5529 -0.7515
   81CHL1   C16 8421   5.012   3.162   7.648  0.0356 -0.5096 -0.6603
   81CHL1  H16A 8422   4.994   3.077   7.717 -0.9589  0.7298  0.6285
   81CHL1  H16B 8423   5.098   3.218   7.692 -0.3341 -0.3956 -0.0788
   81CHL1   C17 8424   4.891   3.250   7.608  0.1734 -0.2073 -0.2523
   81CHL1   H17 8425   4.941   3.350   7.601  0.4566 -0.3281  0.0253
   81CHL1   C13 8426   4.848   3.211   7.465  0.9038 -0.8413 -0.5636
   81CHL1   C18 8427   4.753   3.087   7.481 -0.0188 -0.2608  0.1748
   81CHL1  H18A 8428   4.736   3.030   7.386 -1.7007  0.3968  0.0673
   81CHL1  H18B 8429   4.803   3.018   7.552  1.9212  1.5002  0.5634
   81CHL1  H18C 8430   4.656   3.124   7.520 -1.0566 -1.4784 -1.1645
   81CHL1   C12 8431   4.782   3.319   7.380  0.0323  0.2306 -0.0860
   81CHL1  H12A 8432   4.681   3.344   7.421  0.0646 -0.0890  0.1955
   81CHL1  H12B 8433   4.842   3.412   7.387  1.1751 -0.4511 -0.7157
   81CHL1   C11 8434   4.767   3.266   7.241 -1.0621 -0.0612  0.2702
   81CHL1  H11A 8435   4.702   3.176   7.244 -0.6961 -0.2826  2.1508
   81CHL1  H11B 8436   4.730   3.347   7.174 -0.8332 -0.5662 -0.4691
   81CHL1    C9 8437   4.903   3.220   7.174  0.6353 -0.2378 -0.3651
   81CHL1    H9 8438   4.965   3.312   7.167 -4.0901  3.1931  0.0172
   81CHL1   C10 8439   4.891   3.176   7.025  0.1089 -0.0255 -0.2257
   81CHL1   C19 8440   4.772   3.084   7.008  0.1495 -0.3191  0.1184
   81CHL1  H19A 8441   4.783   2.992   7.070 -0.5303 -0.8549 -0.5601
   81CHL1  H19B 8442   4.679   3.138   7.034 -0.5796 -2.4548  2.0721
   81CHL1  H19C 8443   4.753   3.065   6.900 -0.1180  1.3639 -0.1362
   81CHL1    C1 8444   4.880   3.307   6.939  0.2006 -0.1214  0.5135
   81CHL1   H1A 8445   4.791   3.369   6.964  1.4231  1.8446  0.0727
   81CHL1   H1B 8446   4.958   3.373   6.981 -0.0401  0.3521  0.2231
   81CHL1    C2 8447   4.901   3.294   6.791  0.1345 -0.0299 -0.1612
   81CHL1   H2A 8448   4.929   3.397   6.761 -0.0470  0.4248  1.1728
   81CHL1   H2B 8449   4.810   3.264   6.734  0.6197 -0.5559 -0.6702
   81CHL1   C20 8450   4.778   3.262   7.715  0.0364 -0.1040 -0.4311
   81CHL1   H20 8451   4.711   3.173   7.719 -0.5475  0.3058 -1.0387
   81CHL1   C21 8452   4.682   3.379   7.686  0.5237  0.4251 -0.3778
   81CHL1  H21A 8453   4.740   3.468   7.653 -1.2142  1.1955 -1.4026
   81CHL1  H21B 8454   4.623   3.393   7.780 -1.0536  0.9656 -1.4242
   81CHL1  H21C 8455   4.613   3.344   7.607 -1.2823  3.5807 -0.2665
   81CHL1   C22 8456   4.822   3.268   7.863 -0.3804  0.0078 -0.0282
   81CHL1  H22A 8457   4.733   3.260   7.930 -0.3510 -1.2916 -0.1301
   81CHL1  H22B 8458   4.878   3.176   7.891 -0.7132 -0.1828  0.0256
   81CHL1   C23 8459   4.909   3.391   7.895  0.1183  0.3262  0.2939
   81CHL1  H23A 8460   4.991   3.385   7.820 -1.0643 -1.0158 -0.9304
   81CHL1  H23B 8461   4.856   3.485   7.871  0.0866 -0.0484 -1.1736
   81CHL1   C24 8462   4.983   3.411   8.032 -0.0272  0.5838 -0.3738
   81CHL1  H24A 8463   5.060   3.334   8.052  0.1680  1.1267  0.9764
   81CHL1  H24B 8464   5.036   3.508   8.024  0.8055  0.1712  0.1482
   81CHL1   C25 8465   4.894   3.415   8.154  0.1201 -0.1569 -0.9169
   81CHL1   H25 8466   4.848   3.314   8.156 -0.0702 -0.0530  0.3576
   81CHL1   C26 8467   4.955   3.439   8.289 -0.5314  0.7028 -0.4358
   81CHL1  H26A 8468   5.029   3.361   8.318 -0.6376  0.4041 -0.9456
   81CHL1  H26B 8469   5.020   3.529   8.286  2.4348 -1.3916 -0.8947
   81CHL1  H26C 8470   4.873   3.450   8.363 -0.9009 -2.0855 -0.3820
   81CHL1   C27 8471   4.778   3.528   8.136 -0.2589  0.4552  0.2234
   81CHL1  H27A 8472   4.824   3.629   8.129  1.6955 -0.3774  0.7053
   81CHL1  H27B 8473   4.717   3.516   8.044  0.7863  0.7495 -0.5249
   81CHL1  H27C 8474   4.712   3.514   8.224  1.0030 -2.2470  0.7982
   82CHL1    C3 8475   6.179   4.486   6.803 -0.2834  0.0306 -0.8835
   82CHL1    H3 8476   6.245   4.574   6.815 -0.2172 -0.3941  2.0465
   82CHL1    O3 8477   6.142   4.467   6.669 -0.0568  0.6429 -0.2641
   82CHL1   H3' 8478   6.107   4.378   6.662  1.0662  0.1099  0.5788
   82CHL1    C4 8479   6.249   4.355   6.850  0.4539  0.2729 -0.1238
   82CHL1   H4A 8480   6.187   4.266   6.825  0.7014  0.6152 -2.0495
   82CHL1   H4B 8481   6.349   4.353   6.801  0.2230 -0.3000 -0.5826
   82CHL1    C5 8482   6.269   4.343   7.001  0.3668  0.2528  0.3838
   82CHL1    C6 8483   6.386   4.312   7.060 -0.6053  0.4584 -1.2031
   82CHL1    H6 8484   6.476   4.291   7.001 -0.4276  4.0399 -2.3003
   82CHL1    C7 8485   6.411   4.295   7.204 -0.4000 -0.2477 -0.5910
   82CHL1   H7A 8486   6.483   4.212   7.221 -0.7313 -0.4992 -0.3923
   82CHL1   H7B 8487   6.454   4.394   7.228 -0.3477 -0.9955  2.6250
   82CHL1    C8 8488   6.285   4.287   7.297 -0.4854 -0.3286  0.2394
   82CHL1    H8 8489   6.252   4.181   7.291 -0.9605 -0.0966 -1.3415
   82CHL1   C14 8490   6.310   4.314   7.447 -0.5015  0.7519  0.3776
   82CHL1   H14 8491   6.342   4.420   7.454 -1.2134  0.8903  1.7171
   82CHL1   C15 8492   6.418   4.221   7.508  0.2209 -0.2817 -0.6174
   82CHL1  H15A 8493   6.425   4.119   7.465 -0.4736 -0.9058  0.7253
   82CHL1  H15B 8494   6.516   4.271   7.494  1.0689 -1.3035  1.6241
   82CHL1   C16 8495   6.390   4.228   7.657 -0.3685  0.2485 -0.4309
   82CHL1  H16A 8496   6.365   4.132   7.708  1.1292  0.3930  0.5916
   82CHL1  H16B 8497   6.470   4.275   7.717 -0.7720 -1.2610  1.3123
   82CHL1   C17 8498   6.252   4.304   7.676 -0.8978  0.2486  0.2542
   82CHL1   H17 8499   6.294   4.407   7.685 -0.5839  0.2413 -1.0460
   82CHL1   C13 8500   6.191   4.292   7.536  0.0851 -0.1771  0.0093
   82CHL1   C18 8501   6.137   4.145   7.527 -0.2382 -0.8440 -0.1111
   82CHL1  H18A 8502   6.224   4.077   7.538  1.0737  0.6088 -1.1805
   82CHL1  H18B 8503   6.058   4.125   7.602 -0.0791 -3.4028 -0.5840
   82CHL1  H18C 8504   6.109   4.117   7.423  3.6324  2.7143 -2.3096
   82CHL1   C12 8505   6.084   4.398   7.491 -0.5674 -0.1577  0.7495
   82CHL1  H12A 8506   5.991   4.379   7.548 -1.0310 -0.5608 -0.1375
   82CHL1  H12B 8507   6.121   4.500   7.513  3.6117 -1.0594 -1.4657
   82CHL1   C11 8508   6.052   4.389   7.336  0.0027  0.6265  0.4018
   82CHL1  H11A 8509   5.993   4.296   7.319  1.9364 -0.4920 -0.4487
   82CHL1  H11B 8510   5.991   4.477   7.306 -0.9383  0.4117  1.6751
   82CHL1    C9 8511   6.182   4.387   7.245  0.3776 -0.6193  0.0431
   82CHL1    H9 8512   6.235   4.485   7.251  1.6574 -1.2289 -1.0334
   82CHL1   C10 8513   6.139   4.365   7.089  0.2529 -0.1160  0.3262
   82CHL1   C19 8514   6.036   4.256   7.075  0.9699 -0.6533  0.4780
   82CHL1  H19A 8515   5.941   4.278   7.129  1.5042 -2.2742  2.1172
   82CHL1  H19B 8516   6.005   4.247   6.968  0.1225 -1.6828  0.8100
   82CHL1  H19C 8517   6.068   4.154   7.102  0.5210 -0.5859  1.2985
   82CHL1    C1 8518   6.074   4.493   7.034  0.9464 -0.3201 -0.2973
   82CHL1   H1A 8519   5.971   4.503   7.074  0.8494  1.9347 -1.0352
   82CHL1   H1B 8520   6.125   4.584   7.074  1.4867  0.1901 -2.1053
   82CHL1    C2 8521   6.054   4.507   6.880 -0.0026 -0.1788 -0.3508
   82CHL1   H2A 8522   6.015   4.609   6.863 -0.7901  0.3709  4.0606
   82CHL1   H2B 8523   5.977   4.436   6.843  1.9096 -0.8537 -3.1363
   82CHL1   C20 8524   6.173   4.281   7.799 -0.2420 -0.3319 -0.2075
   82CHL1   H20 8525   6.135   4.177   7.807 -1.9304  0.1701 -1.4823
   82CHL1   C21 8526   6.037   4.359   7.806  0.7282  0.2026 -0.5498
   82CHL1  H21A 8527   6.033   4.463   7.765 -0.3491  0.8996  1.2710
   82CHL1  H21B 8528   6.000   4.370   7.910 -0.4908  0.2861 -0.9809
   82CHL1  H21C 8529   5.953   4.314   7.749 -0.7983  0.5838  1.3169
   82CHL1   C22 8530   6.265   4.302   7.927  0.0884  0.5614 -0.1524
   82CHL1  H22A 8531   6.355   4.237   7.922  0.4885  1.0658  0.3498
   82CHL1  H22B 8532   6.309   4.403   7.916 -1.8356  1.4149 -0.1973
   82CHL1   C23 8533   6.191   4.284   8.062  0.6822  0.3176  0.9033
   82CHL1  H23A 8534   6.088   4.324   8.070 -0.0909 -1.0024 -1.8981
   82CHL1  H23B 8535   6.160   4.178   8.063  0.4198  0.4035  1.9043
   82CHL1   C24 8536   6.278   4.314   8.177 -0.4762 -0.4880  0.2423
   82CHL1  H24A 8537   6.377   4.263   8.169 -1.4187 -2.6648  1.9302
   82CHL1  H24B 8538   6.295   4.421   8.155  0.5186 -0.1884  2.2869
   82CHL1   C25 8539   6.219   4.276   8.307  0.3366 -0.1066  0.7231
   82CHL1   H25 8540   6.112   4.304   8.298 -0.4545 -3.7862 -2.1972
   82CHL1   C26 8541   6.225   4.128   8.332  0.6318 -0.1850  0.1405
   82CHL1  H26A 8542   6.328   4.091   8.315 -1.0234 -3.3383 -4.0783
   82CHL1  H26B 8543   6.213   4.107   8.440  0.8888 -0.6516  0.0775
   82CHL1  H26C 8544   6.148   4.074   8.272  0.6601 -0.9214  0.7581
   82CHL1   C27 8545   6.283   4.355   8.424 -0.1610  1.4000 -0.8276
   82CHL1  H27A 8546   6.254   4.462   8.412 -0.6447  1.3114 -0.4733
   82CHL1  H27B 8547   6.255   4.315   8.524  0.9728  0.0755 -1.0274
   82CHL1  H27C 8548   6.393   4.349   8.419 -0.2605 -0.2029 -1.4692
   83CHL1    C3 8549   2.276   5.466   6.989 -0.2173 -0.1222 -0.4914
   83CHL1    H3 8550   2.238   5.370   7.032  0.7222  0.9115  2.8033
   83CHL1    O3 8551   2.208   5.488   6.866  0.2440 -0.2302 -0.4995
   83CHL1   H3' 8552   2.199   5.582   6.852  1.3646  0.1940  1.4082
   83CHL1    C4 8553   2.266   5.587   7.092 -0.1010 -0.7014  0.5499
   83CHL1   H4A 8554   2.307   5.680   7.046 -1.2670 -1.5735 -2.3680
   83CHL1   H4B 8555   2.159   5.604   7.115 -0.7039 -1.4782 -1.5926
   83CHL1    C5 8556   2.339   5.558   7.214 -0.0388 -0.6377  0.3064
   83CHL1    C6 8557   2.286   5.567   7.336 -0.5008 -0.2073  0.3233
   83CHL1    H6 8558   2.180   5.596   7.348 -1.0389 -1.8928 -0.2618
   83CHL1    C7 8559   2.356   5.546   7.466 -0.7081 -0.4014  0.0427
   83CHL1   H7A 8560   2.324   5.620   7.542  0.0724  0.9016 -0.8770
   83CHL1   H7B 8561   2.325   5.444   7.499 -1.3746  0.1199  1.0454
   83CHL1    C8 8562   2.510   5.545   7.447  0.0817 -0.3450 -0.2541
   83CHL1    H8 8563   2.549   5.648   7.438 -0.5442  0.1011  1.7650
   83CHL1   C14 8564   2.582   5.489   7.570  0.0866  0.6102  0.1500
   83CHL1   H14 8565   2.559   5.380   7.561 -0.4141  0.7945 -0.9963
   83CHL1   C15 8566   2.536   5.546   7.696 -0.5032  0.0351 -0.3112
   83CHL1  H15A 8567   2.517   5.655   7.692 -0.9881  0.0736  1.9946
   83CHL1  H15B 8568   2.445   5.495   7.735 -1.8431  2.9735  0.6210
   83CHL1   C16 8569   2.653   5.509   7.795  0.3840 -0.1168 -0.4836
   83CHL1  H16A 8570   2.694   5.603   7.838  0.9819 -2.0493  3.3659
   83CHL1  H16B 8571   2.614   5.443   7.875  2.8104 -1.0567 -0.0408
   83CHL1   C17 8572   2.755   5.430   7.716 -0.0854  0.0059 -0.1246
   83CHL1   H17 8573   2.729   5.322   7.712  0.1885  0.0036 -2.6035
   83CHL1   C13 8574   2.734   5.487   7.567 -0.3468  0.2711 -0.3490
   83CHL1   C18 8575   2.798   5.631   7.556 -0.0503  0.4502  0.5697
   83CHL1  H18A 8576   2.908   5.621   7.563  0.3017  2.7494 -1.3142
   83CHL1  H18B 8577   2.774   5.677   7.458  0.3915  0.7075  0.5802
   83CHL1  H18C 8578   2.760   5.707   7.627 -2.0262  1.1273 -1.1777
   83CHL1   C12 8579   2.774   5.387   7.451 -0.2334  0.0266  1.0491
   83CHL1  H12A 8580   2.882   5.387   7.423 -1.0346  0.5001 -2.3059
   83CHL1  H12B 8581   2.742   5.284   7.477  2.2910 -1.6207 -1.9912
   83CHL1   C11 8582   2.711   5.440   7.316  0.6440 -0.5641 -0.1820
   83CHL1  H11A 8583   2.760   5.540   7.310  1.1359 -0.8280 -0.6552
   83CHL1  H11B 8584   2.745   5.384   7.226  2.2254 -1.6872  1.0782
   83CHL1    C9 8585   2.553   5.462   7.320  0.4235 -0.3749  0.5822
   83CHL1    H9 8586   2.516   5.359   7.334 -0.3564 -0.2376 -0.3996
   83CHL1   C10 8587   2.488   5.523   7.190  0.1560  0.0010  0.3201
   83CHL1   C19 8588   2.557   5.654   7.149  1.1408 -0.2101  0.1823
   83CHL1  H19A 8589   2.538   5.729   7.229 -0.9452 -0.5913  0.0924
   83CHL1  H19B 8590   2.665   5.640   7.129  1.0153  0.4646 -1.0197
   83CHL1  H19C 8591   2.524   5.689   7.049  1.7759  0.8272  0.3306
   83CHL1    C1 8592   2.498   5.410   7.082 -0.1851 -0.1797  0.2435
   83CHL1   H1A 8593   2.608   5.403   7.066  0.3472 -0.8363  3.7716
   83CHL1   H1B 8594   2.466   5.312   7.122  0.3764  0.2283  1.7265
   83CHL1    C2 8595   2.418   5.434   6.955 -1.1127  0.3652 -0.7000
   83CHL1   H2A 8596   2.428   5.339   6.899  0.3151 -0.9187  1.6926
   83CHL1   H2B 8597   2.472   5.507   6.890  0.8745 -0.0432  0.4472
   83CHL1   C20 8598   2.903   5.445   7.775 -0.0571 -0.2268  0.3740
   83CHL1   H20 8599   2.937   5.551   7.775  1.2078 -0.6099 -1.3273
   83CHL1   C21 8600   2.996   5.357   7.691 -0.3904  0.3132  0.5399
   83CHL1  H21A 8601   3.019   5.399   7.591 -0.3885  0.5205  0.6282
   83CHL1  H21B 8602   2.948   5.258   7.674 -1.4252  0.6835  1.2419
   83CHL1  H21C 8603   3.090   5.339   7.746  0.5600 -1.0801 -1.4749
   83CHL1   C22 8604   2.912   5.396   7.918  0.0712  0.3831 -0.2208
   83CHL1  H22A 8605   2.814   5.423   7.963 -0.0515 -1.1144  0.4255
   83CHL1  H22B 8606   2.923   5.286   7.910  1.4598  0.6194 -1.7886
   83CHL1   C23 8607   3.038   5.450   7.983 -0.1176  0.2696 -0.1131
   83CHL1  H23A 8608   3.123   5.379   7.977 -0.1570  0.2988 -1.0536
   83CHL1  H23B 8609   3.057   5.547   7.933 -0.5653 -0.2978 -1.4015
   83CHL1   C24 8610   3.029   5.473   8.136  0.4119 -0.7911 -0.3653
   83CHL1  H24A 8611   2.946   5.540   8.168  1.1338  0.3862 -0.9398
   83CHL1  H24B 8612   3.006   5.371   8.175  2.7687 -0.6809  1.4099
   83CHL1   C25 8613   3.164   5.508   8.205  0.3777  0.1043 -0.3119
   83CHL1   H25 8614   3.243   5.443   8.161  0.7319  0.9491 -0.9446
   83CHL1   C26 8615   3.215   5.655   8.184 -0.5227 -0.1944 -0.3397
   83CHL1  H26A 8616   3.263   5.665   8.084  1.3031 -0.6496  0.4574
   83CHL1  H26B 8617   3.135   5.729   8.201  0.2491  0.2952  1.2696
   83CHL1  H26C 8618   3.302   5.678   8.249 -1.4485 -1.7559  1.5329
   83CHL1   C27 8619   3.137   5.495   8.358  0.1998 -0.7004  0.1831
   83CHL1  H27A 8620   3.230   5.507   8.418 -0.9614 -2.1374  2.3107
   83CHL1  H27B 8621   3.064   5.572   8.391 -0.2027 -0.4405 -1.2873
   83CHL1  H27C 8622   3.104   5.390   8.372 -2.5037 -0.3040 -2.7633
   84CHL1    C3 8623   4.725   1.743   7.094 -0.2014  0.3403  0.2303
   84CHL1    H3 8624   4.796   1.827   7.082 -1.2744  1.3546  0.8753
   84CHL1    O3 8625   4.719   1.671   6.968  0.6564 -0.0708  0.3587
   84CHL1   H3' 8626   4.635   1.625   6.973 -0.2983  1.2675 -2.6952
   84CHL1    C4 8627   4.768   1.644   7.207 -0.1841 -0.4497  0.8181
   84CHL1   H4A 8628   4.714   1.547   7.206  0.3478 -0.7596  1.7870
   84CHL1   H4B 8629   4.875   1.623   7.187  0.2496  2.9609 -0.9573
   84CHL1    C5 8630   4.747   1.691   7.349  0.4078 -0.7911  0.5270
   84CHL1    C6 8631   4.839   1.683   7.449  0.0005  0.4086  0.0262
   84CHL1    H6 8632   4.928   1.623   7.426 -1.1677 -1.1591 -0.4511
   84CHL1    C7 8633   4.827   1.725   7.589  0.0380  0.1157  0.1742
   84CHL1   H7A 8634   4.859   1.644   7.658  3.9001  1.4898  0.1346
   84CHL1   H7B 8635   4.881   1.821   7.603 -1.1913  0.7871  0.4087
   84CHL1    C8 8636   4.682   1.742   7.624 -0.3287 -0.0551  0.6368
   84CHL1    H8 8637   4.631   1.645   7.639 -1.3074  0.3169 -0.1991
   84CHL1   C14 8638   4.669   1.810   7.763 -0.1606  0.1962  0.0295
   84CHL1   H14 8639   4.716   1.910   7.746  0.4453  0.0723  0.9201
   84CHL1   C15 8640   4.743   1.759   7.883 -0.0016 -0.1149  0.0792
   84CHL1  H15A 8641   4.737   1.648   7.878  0.9773 -0.1245 -0.9623
   84CHL1  H15B 8642   4.851   1.784   7.878  0.1425 -0.9333 -1.1711
   84CHL1   C16 8643   4.665   1.812   8.004  0.5730  0.0299 -0.7955
   84CHL1  H16A 8644   4.627   1.720   8.054 -2.0991  1.5189  0.0322
   84CHL1  H16B 8645   4.734   1.877   8.063 -1.8017  2.6912 -0.8558
   84CHL1   C17 8646   4.548   1.898   7.950  0.5607  0.0824  0.1169
   84CHL1   H17 8647   4.580   2.004   7.945 -1.0616  0.5665 -0.3106
   84CHL1   C13 8648   4.525   1.839   7.805  0.3953  0.0606  0.1469
   84CHL1   C18 8649   4.442   1.707   7.815  0.0359  0.1064  0.2343
   84CHL1  H18A 8650   4.336   1.721   7.845  0.7150  0.1129  2.8032
   84CHL1  H18B 8651   4.445   1.648   7.722 -1.6454  0.8007 -0.2749
   84CHL1  H18C 8652   4.494   1.647   7.892 -0.6466  2.4189  2.5897
   84CHL1   C12 8653   4.466   1.935   7.699 -0.1710 -0.6629 -0.5663
   84CHL1  H12A 8654   4.362   1.958   7.731  0.1798  0.2668 -0.0639
   84CHL1  H12B 8655   4.516   2.033   7.713 -0.6720 -0.6127  0.9333
   84CHL1   C11 8656   4.467   1.862   7.560 -0.3373 -0.1112 -0.4471
   84CHL1  H11A 8657   4.395   1.778   7.562 -0.1985 -0.2336 -0.5438
   84CHL1  H11B 8658   4.428   1.938   7.488  0.0723  1.2097  0.7018
   84CHL1    C9 8659   4.602   1.816   7.516 -0.0377 -0.9667 -0.0225
   84CHL1    H9 8660   4.659   1.909   7.494  0.8159 -1.8789 -1.7892
   84CHL1   C10 8661   4.611   1.762   7.368 -0.0907  0.3186  0.0126
   84CHL1   C19 8662   4.505   1.659   7.354 -0.1404 -0.3128  0.1468
   84CHL1  H19A 8663   4.485   1.617   7.253 -3.8147  0.0305  0.6776
   84CHL1  H19B 8664   4.516   1.580   7.431  0.8330 -0.3509 -0.0282
   84CHL1  H19C 8665   4.402   1.699   7.365  0.1513  0.1252  1.3044
   84CHL1    C1 8666   4.584   1.874   7.266 -0.7022 -0.4095 -0.3857
   84CHL1   H1A 8667   4.485   1.921   7.281 -1.0514 -1.7073  1.5747
   84CHL1   H1B 8668   4.662   1.954   7.272 -2.1563  1.0476 -0.5919
   84CHL1    C2 8669   4.599   1.824   7.124 -0.0484 -0.2054 -0.4778
   84CHL1   H2A 8670   4.588   1.899   7.043 -0.5355  0.1318 -0.1045
   84CHL1   H2B 8671   4.521   1.748   7.101 -0.5110  0.2366 -0.3878
   84CHL1   C20 8672   4.424   1.897   8.047 -0.5480 -0.4823  0.4552
   84CHL1   H20 8673   4.335   1.912   7.982  0.6468 -2.7721 -1.7929
   84CHL1   C21 8674   4.446   2.026   8.136  0.6075 -0.0857  0.6200
   84CHL1  H21A 8675   4.538   2.024   8.198  0.8831 -1.1658  0.1855
   84CHL1  H21B 8676   4.360   2.043   8.205  0.2428  4.1395 -0.7413
   84CHL1  H21C 8677   4.440   2.116   8.072  1.1333 -1.9825 -2.1700
   84CHL1   C22 8678   4.391   1.775   8.144 -0.2067 -0.1250  0.0873
   84CHL1  H22A 8679   4.402   1.673   8.099 -0.4808 -0.0685 -0.1073
   84CHL1  H22B 8680   4.451   1.763   8.236  2.6544 -1.0764 -1.8042
   84CHL1   C23 8681   4.234   1.785   8.183 -0.7400  0.0859  1.0870
   84CHL1  H23A 8682   4.217   1.877   8.243 -0.2902  0.5989  0.4365
   84CHL1  H23B 8683   4.185   1.795   8.084 -3.2546 -1.7051  2.1085
   84CHL1   C24 8684   4.183   1.655   8.252 -0.0194 -0.9901 -0.6242
   84CHL1  H24A 8685   4.072   1.648   8.250 -0.0879  0.3656 -1.6958
   84CHL1  H24B 8686   4.226   1.576   8.187 -1.0484 -3.1757  1.2627
   84CHL1   C25 8687   4.247   1.623   8.387  0.7649  0.5590  0.7813
   84CHL1   H25 8688   4.356   1.624   8.364  0.6342  0.8341  0.1572
   84CHL1   C26 8689   4.237   1.725   8.499  0.5222  0.2717 -0.1093
   84CHL1  H26A 8690   4.132   1.750   8.525  0.4253 -1.3508  1.1087
   84CHL1  H26B 8691   4.297   1.689   8.585 -2.4589  1.0699  2.4135
   84CHL1  H26C 8692   4.280   1.819   8.458  1.2755 -1.0975 -2.5768
   84CHL1   C27 8693   4.216   1.482   8.433 -0.2797 -0.6413  0.6755
   84CHL1  H27A 8694   4.289   1.439   8.505  0.0101 -2.3247 -0.5948
   84CHL1  H27B 8695   4.114   1.479   8.478 -0.4918 -0.8977  0.1829
   84CHL1  H27C 8696   4.222   1.419   8.342  2.1586 -0.9235  1.0092
   85CHL1    C3 8697   4.429   5.616   6.669  0.4121 -0.3883 -0.1809
   85CHL1    H3 8698   4.509   5.638   6.742 -1.4823 -1.4284  2.2805
   85CHL1    O3 8699   4.434   5.689   6.552  1.0666 -0.6134 -0.2173
   85CHL1   H3' 8700   4.521   5.674   6.513  1.1467  0.6081 -0.5467
   85CHL1    C4 8701   4.451   5.466   6.647  0.4235  0.8451 -0.0519
   85CHL1   H4A 8702   4.371   5.428   6.580 -0.1563  1.0446  0.5237
   85CHL1   H4B 8703   4.548   5.453   6.595 -0.4104 -3.6113 -0.7060
   85CHL1    C5 8704   4.443   5.393   6.779  0.0544  0.5506  1.4494
   85CHL1    C6 8705   4.546   5.309   6.810  0.2982  0.0733 -0.2321
   85CHL1    H6 8706   4.628   5.290   6.739  0.3159 -1.1791  0.1074
   85CHL1    C7 8707   4.556   5.225   6.942  0.4551 -0.4707  0.4090
   85CHL1   H7A 8708   4.596   5.122   6.928  2.6232  0.2355  1.1978
   85CHL1   H7B 8709   4.625   5.288   7.002 -0.4964 -0.3247  1.3745
   85CHL1    C8 8710   4.426   5.241   7.026  0.1062  0.0616  0.3542
   85CHL1    H8 8711   4.355   5.172   6.975  1.2890 -0.5998 -0.4114
   85CHL1   C14 8712   4.450   5.192   7.163  0.0474  0.2576  0.8913
   85CHL1   H14 8713   4.531   5.259   7.197  0.6639 -0.4515  0.8232
   85CHL1   C15 8714   4.521   5.054   7.185 -0.0258 -0.5848  0.0205
   85CHL1  H15A 8715   4.469   4.977   7.124  1.4038 -1.8908  0.4115
   85CHL1  H15B 8716   4.625   5.067   7.146 -0.8015  2.3218 -1.1638
   85CHL1   C16 8717   4.508   5.032   7.335  0.6383 -0.4872  0.6149
   85CHL1  H16A 8718   4.478   4.926   7.352 -1.3235  0.0821  0.7892
   85CHL1  H16B 8719   4.611   5.036   7.377  1.2974 -1.6507 -0.7959
   85CHL1   C17 8720   4.410   5.144   7.386  0.0138  0.6194  0.2489
   85CHL1   H17 8721   4.464   5.233   7.424  0.9557  0.7250 -1.3071
   85CHL1   C13 8722   4.335   5.189   7.259  0.0876 -0.2381 -0.8772
   85CHL1   C18 8723   4.224   5.090   7.211 -0.4149  0.7849  0.1232
   85CHL1  H18A 8724   4.146   5.083   7.290 -1.1059 -2.4302 -0.7804
   85CHL1  H18B 8725   4.177   5.113   7.113 -0.0487  0.7677 -0.0557
   85CHL1  H18C 8726   4.281   4.997   7.193  1.6768  2.1501 -0.4758
   85CHL1   C12 8727   4.274   5.330   7.265  1.0702 -0.8043 -0.0828
   85CHL1  H12A 8728   4.180   5.335   7.324  1.0466  1.7361 -0.2544
   85CHL1  H12B 8729   4.358   5.389   7.307 -0.9410  2.8646 -0.9839
   85CHL1   C11 8730   4.246   5.387   7.127 -0.5540  0.8316  0.1338
   85CHL1  H11A 8731   4.173   5.316   7.083  1.4950 -1.0922 -0.2405
   85CHL1  H11B 8732   4.210   5.490   7.149  0.7856  0.4098  5.0915
   85CHL1    C9 8733   4.361   5.382   7.017 -0.4636  0.1056  0.1901
   85CHL1    H9 8734   4.443   5.451   7.046 -0.6945  0.2341  0.5295
   85CHL1   C10 8735   4.328   5.433   6.870  0.1579 -0.0744  0.2636
   85CHL1   C19 8736   4.209   5.347   6.811 -0.1791 -0.4168  0.8149
   85CHL1  H19A 8737   4.211   5.239   6.838 -2.3953 -0.4231  1.0777
   85CHL1  H19B 8738   4.124   5.388   6.870  1.0632  1.7346  1.1609
   85CHL1  H19C 8739   4.196   5.364   6.702 -1.6361 -0.7400  0.9236
   85CHL1    C1 8740   4.294   5.585   6.874 -0.2151 -0.4803 -0.5566
   85CHL1   H1A 8741   4.206   5.590   6.942 -0.3031  0.7014 -0.7412
   85CHL1   H1B 8742   4.377   5.641   6.920 -1.1419  2.0191 -1.8397
   85CHL1    C2 8743   4.290   5.650   6.734 -0.5620 -0.2061 -0.8250
   85CHL1   H2A 8744   4.290   5.761   6.741  2.0516 -0.0256 -3.0642
   85CHL1   H2B 8745   4.195   5.624   6.683 -0.5177 -1.0297 -0.4852
   85CHL1   C20 8746   4.324   5.088   7.500  0.8532 -0.8879  0.4110
   85CHL1   H20 8747   4.268   5.003   7.456 -3.4611  0.8142  2.3247
   85CHL1   C21 8748   4.211   5.177   7.557  0.1228 -0.3218  0.1466
   85CHL1  H21A 8749   4.244   5.277   7.592 -0.0362 -0.6309  1.2051
   85CHL1  H21B 8750   4.155   5.112   7.627  0.5017 -1.7495 -0.8380
   85CHL1  H21C 8751   4.138   5.202   7.478  0.4173  1.1540  0.3411
   85CHL1   C22 8752   4.413   5.031   7.618 -0.3707 -0.0669 -0.9800
   85CHL1  H22A 8753   4.349   4.967   7.682 -0.1056  0.0350 -0.6166
   85CHL1  H22B 8754   4.486   4.959   7.576  0.6843  0.1302  0.5087
   85CHL1   C23 8755   4.497   5.146   7.686  0.2507 -0.0851  0.1169
   85CHL1  H23A 8756   4.548   5.205   7.607 -0.3145  0.6957  0.3289
   85CHL1  H23B 8757   4.423   5.209   7.741  0.1439 -1.3042  1.4037
   85CHL1   C24 8758   4.600   5.089   7.777 -0.7056 -0.3736 -0.7764
   85CHL1  H24A 8759   4.546   5.042   7.862 -1.3420 -2.6632 -2.3900
   85CHL1  H24B 8760   4.655   5.008   7.724  1.7430 -0.8467  2.3452
   85CHL1   C25 8761   4.699   5.192   7.835  0.0890  0.1842  0.5242
   85CHL1   H25 8762   4.639   5.274   7.879  0.3599  0.5071  0.3041
   85CHL1   C26 8763   4.793   5.121   7.947  0.8366  0.2664 -0.3049
   85CHL1  H26A 8764   4.859   5.056   7.886  1.6810  1.4570 -0.6871
   85CHL1  H26B 8765   4.861   5.196   7.993 -3.2135  3.9306  0.0822
   85CHL1  H26C 8766   4.739   5.055   8.018 -0.6860 -2.6225 -3.9936
   85CHL1   C27 8767   4.789   5.254   7.715 -0.5812 -0.1323 -0.4280
   85CHL1  H27A 8768   4.861   5.323   7.764  1.0866 -1.3589 -1.1129
   85CHL1  H27B 8769   4.860   5.183   7.666  0.2251 -0.2137  0.8532
   85CHL1  H27C 8770   4.733   5.304   7.633  0.6314  2.7560  0.4495
   86CHL1    C3 8771   6.465   3.461   6.832 -0.2101  0.5837 -0.5721
   86CHL1    H3 8772   6.555   3.524   6.845  1.8317 -2.4258  0.5994
   86CHL1    O3 8773   6.425   3.466   6.693 -0.1302 -0.1553 -0.1152
   86CHL1   H3' 8774   6.332   3.487   6.691  0.1148  0.9514 -1.0013
   86CHL1    C4 8775   6.522   3.321   6.860 -0.2567  1.1074 -0.1356
   86CHL1   H4A 8776   6.447   3.247   6.826  1.0577 -2.5356  4.4215
   86CHL1   H4B 8777   6.610   3.294   6.798 -1.4313 -2.0998 -0.5140
   86CHL1    C5 8778   6.544   3.289   7.006  0.1829  0.5123  0.1262
   86CHL1    C6 8779   6.649   3.223   7.057 -0.0983 -0.6109  0.5338
   86CHL1    H6 8780   6.727   3.196   6.985  1.0531 -0.7483  1.8136
   86CHL1    C7 8781   6.675   3.191   7.198 -0.3004 -0.2500  0.4177
   86CHL1   H7A 8782   6.702   3.084   7.216 -2.0241 -0.5576  1.3361
   86CHL1   H7B 8783   6.766   3.248   7.226 -0.3137  0.3797 -0.8117
   86CHL1    C8 8784   6.563   3.224   7.296  0.0242  0.7701 -0.4260
   86CHL1    H8 8785   6.512   3.126   7.287  2.0049 -0.3292  0.0299
   86CHL1   C14 8786   6.623   3.250   7.435 -0.3574 -0.2520 -0.3256
   86CHL1   H14 8787   6.681   3.344   7.422 -0.1307 -0.5238 -1.3501
   86CHL1   C15 8788   6.719   3.148   7.499 -0.5787 -0.1230 -0.1349
   86CHL1  H15A 8789   6.702   3.043   7.465  4.2972 -1.8715  2.4185
   86CHL1  H15B 8790   6.823   3.178   7.475 -0.7611  0.2598 -0.4578
   86CHL1   C16 8791   6.705   3.168   7.651  0.2737  0.4500 -0.2209
   86CHL1  H16A 8792   6.661   3.073   7.691  0.2305  0.6355  0.1787
   86CHL1  H16B 8793   6.806   3.189   7.691  0.6002 -1.9181  0.3036
   86CHL1   C17 8794   6.594   3.280   7.672  0.2320 -0.4105 -0.5619
   86CHL1   H17 8795   6.650   3.376   7.669 -1.4806  0.6175 -0.3750
   86CHL1   C13 8796   6.511   3.278   7.543 -0.5493 -0.2028  0.1560
   86CHL1   C18 8797   6.411   3.152   7.543  0.1595  0.2554  1.2621
   86CHL1  H18A 8798   6.328   3.155   7.617 -0.3548  0.6026  0.6774
   86CHL1  H18B 8799   6.373   3.140   7.439  0.6771  2.0213  0.8404
   86CHL1  H18C 8800   6.462   3.058   7.573 -0.6354 -0.7879 -0.5680
   86CHL1   C12 8801   6.436   3.409   7.502  0.2523 -0.3757 -0.1581
   86CHL1  H12A 8802   6.352   3.436   7.571 -0.8945 -0.4102 -1.5036
   86CHL1  H12B 8803   6.505   3.496   7.500 -1.4150  1.0249  1.0175
   86CHL1   C11 8804   6.379   3.406   7.355 -0.4588 -0.2361  0.3658
   86CHL1  H11A 8805   6.283   3.351   7.345 -1.7052  1.6827  1.6500
   86CHL1  H11B 8806   6.361   3.512   7.327 -0.6957  0.0288  1.5117
   86CHL1    C9 8807   6.489   3.349   7.252 -0.2819 -0.5178  0.4849
   86CHL1    H9 8808   6.570   3.425   7.251 -2.0851  1.4374 -2.5632
   86CHL1   C10 8809   6.446   3.344   7.104  0.1056  0.4328 -0.0282
   86CHL1   C19 8810   6.317   3.252   7.093 -0.0978  0.1936 -1.4211
   86CHL1  H19A 8811   6.288   3.236   6.987  0.9804 -1.3130 -1.5052
   86CHL1  H19B 8812   6.338   3.150   7.132 -0.2599  0.6921 -0.0107
   86CHL1  H19C 8813   6.231   3.291   7.150 -0.1349  0.1538 -1.4498
   86CHL1    C1 8814   6.392   3.484   7.066 -0.0937 -0.0701  0.0035
   86CHL1   H1A 8815   6.298   3.520   7.114  0.2912  1.8799 -0.6534
   86CHL1   H1B 8816   6.471   3.561   7.084 -0.7261  1.3722 -3.0345
   86CHL1    C2 8817   6.350   3.503   6.917 -0.2764 -0.1524 -0.5863
   86CHL1   H2A 8818   6.328   3.610   6.897  0.1144 -0.1830 -1.1750
   86CHL1   H2B 8819   6.254   3.459   6.880  0.7407 -2.0748 -0.9925
   86CHL1   C20 8820   6.520   3.276   7.803  0.4032  0.1447 -0.3775
   86CHL1   H20 8821   6.437   3.203   7.810  0.3821  0.1849 -0.2242
   86CHL1   C21 8822   6.447   3.406   7.844 -0.0683  0.0918  0.0105
   86CHL1  H21A 8823   6.350   3.403   7.790  0.1371 -0.7482 -0.3249
   86CHL1  H21B 8824   6.520   3.487   7.823  0.1754 -0.7096 -2.4150
   86CHL1  H21C 8825   6.429   3.390   7.952 -0.5573 -3.5476 -0.5480
   86CHL1   C22 8826   6.613   3.233   7.918 -0.4302 -0.5543 -0.2048
   86CHL1  H22A 8827   6.552   3.216   8.009 -1.4472  0.3872 -0.6975
   86CHL1  H22B 8828   6.658   3.133   7.900  1.2133  0.0201  0.6637
   86CHL1   C23 8829   6.725   3.326   7.954 -0.2982 -0.3565  0.0222
   86CHL1  H23A 8830   6.790   3.341   7.865  1.3409  0.4723  1.3338
   86CHL1  H23B 8831   6.691   3.428   7.981 -0.2812 -0.5843  0.9169
   86CHL1   C24 8832   6.811   3.270   8.075  0.1006  0.0837 -0.7311
   86CHL1  H24A 8833   6.748   3.215   8.149 -0.9891  0.5056 -1.3274
   86CHL1  H24B 8834   6.873   3.192   8.026 -1.0051 -1.1553 -0.1896
   86CHL1   C25 8835   6.887   3.367   8.156 -0.3697 -0.1286 -0.1252
   86CHL1   H25 8836   6.949   3.428   8.087  0.9020  0.7453  1.7679
   86CHL1   C26 8837   6.796   3.477   8.223 -0.3147 -0.2518 -0.0555
   86CHL1  H26A 8838   6.749   3.536   8.141  0.1594  0.5324  0.2364
   86CHL1  H26B 8839   6.726   3.427   8.294 -0.3667 -1.9605 -1.2882
   86CHL1  H26C 8840   6.868   3.543   8.275 -0.9611  2.3964 -2.3965
   86CHL1   C27 8841   6.975   3.297   8.260  0.3275  0.1707  0.3124
   86CHL1  H27A 8842   7.035   3.215   8.215 -1.2656 -1.5035  1.1827
   86CHL1  H27B 8843   7.046   3.372   8.302 -0.4714  0.4796  1.1241
   86CHL1  H27C 8844   6.923   3.251   8.346 -0.4102 -2.8197 -1.6612
   87CHL1    C3 8845   0.060   1.724   7.044 -0.6040 -0.2502 -0.5181
   87CHL1    H3 8846   0.130   1.666   7.107  0.6869  2.3606  0.5649
   87CHL1    O3 8847   0.072   1.682   6.909 -0.4802 -0.1716 -0.0694
   87CHL1   H3' 8848   0.092   1.766   6.867 -0.3999  0.2773  0.8630
   87CHL1    C4 8849  -0.081   1.725   7.103  0.5056 -0.1097  0.5221
   87CHL1   H4A 8850  -0.150   1.767   7.026  0.0124 -2.5242 -0.3759
   87CHL1   H4B 8851  -0.107   1.618   7.110 -1.2963  0.2796  0.1406
   87CHL1    C5 8852  -0.091   1.794   7.236  0.1174  0.8038 -0.3005
   87CHL1    C6 8853  -0.142   1.736   7.345  0.2952 -0.2201 -0.0270
   87CHL1    H6 8854  -0.185   1.636   7.326 -0.1820 -0.0434  0.1098
   87CHL1    C7 8855  -0.161   1.793   7.482 -0.1404  0.9414 -0.1945
   87CHL1   H7A 8856  -0.264   1.777   7.519  1.2646 -0.8048  3.2056
   87CHL1   H7B 8857  -0.090   1.741   7.550  0.3851  0.6479 -0.9536
   87CHL1    C8 8858  -0.118   1.943   7.488  1.0501  0.5013 -0.1642
   87CHL1    H8 8859  -0.209   1.993   7.449  1.6152  0.2155 -1.8826
   87CHL1   C14 8860  -0.103   1.978   7.635 -0.9224 -0.1253  0.4274
   87CHL1   H14 8861  -0.017   1.919   7.673  0.1953  1.0788 -0.1997
   87CHL1   C15 8862  -0.213   1.953   7.733 -0.0607  0.2792 -0.3580
   87CHL1  H15A 8863  -0.316   1.972   7.697 -0.3427 -0.9614 -0.2432
   87CHL1  H15B 8864  -0.215   1.846   7.764  1.3877  0.0186 -1.1466
   87CHL1   C16 8865  -0.169   2.035   7.850 -0.5838 -0.3701 -0.1350
   87CHL1  H16A 8866  -0.245   2.109   7.881 -0.1864  0.5349 -1.3044
   87CHL1  H16B 8867  -0.152   1.967   7.937  0.3223  2.0829  1.6685
   87CHL1   C17 8868  -0.042   2.111   7.814  0.0012  0.3030 -0.1087
   87CHL1   H17 8869   0.032   2.035   7.849 -1.1595 -0.2797  1.1250
   87CHL1   C13 8870  -0.054   2.115   7.659 -0.3251 -1.0430 -0.4566
   87CHL1   C18 8871  -0.157   2.231   7.618  0.6276  0.2941 -0.2501
   87CHL1  H18A 8872  -0.251   2.216   7.676  0.6109  2.9827  0.4820
   87CHL1  H18B 8873  -0.122   2.336   7.629 -2.2818  1.4993 -1.8035
   87CHL1  H18C 8874  -0.191   2.220   7.513 -1.1924 -1.8917  0.5242
   87CHL1   C12 8875   0.074   2.142   7.576  0.1019 -0.1949 -0.9990
   87CHL1  H12A 8876   0.110   2.246   7.591  0.8197 -0.6480  0.4035
   87CHL1  H12B 8877   0.155   2.076   7.614 -2.2533 -1.0149  2.7908
   87CHL1   C11 8878   0.051   2.117   7.427 -0.3050 -0.1147  0.3665
   87CHL1  H11A 8879  -0.020   2.192   7.387 -1.7869 -1.7172 -0.0532
   87CHL1  H11B 8880   0.152   2.124   7.381 -0.1590  0.8373  0.8192
   87CHL1    C9 8881  -0.006   1.974   7.395  0.0533  0.3027  0.3198
   87CHL1    H9 8882   0.073   1.912   7.442  0.8218  0.8711 -0.1951
   87CHL1   C10 8883  -0.032   1.932   7.249 -0.2899 -0.3470  0.5437
   87CHL1   C19 8884  -0.138   2.024   7.186 -0.1916 -0.4247 -0.2855
   87CHL1  H19A 8885  -0.234   2.025   7.242 -0.0704  0.7652 -0.0992
   87CHL1  H19B 8886  -0.094   2.126   7.181 -3.4815  1.0518 -0.1829
   87CHL1  H19C 8887  -0.156   2.003   7.078  0.1648  2.6492 -0.9783
   87CHL1    C1 8888   0.107   1.941   7.179  0.0219  0.6102  0.0946
   87CHL1   H1A 8889   0.121   2.051   7.173 -1.5212  0.7481 -1.2994
   87CHL1   H1B 8890   0.182   1.895   7.247 -1.4810 -0.3508  1.1261
   87CHL1    C2 8891   0.112   1.871   7.042 -0.6654  0.0423  0.0328
   87CHL1   H2A 8892   0.219   1.879   7.011 -0.7252  0.1637 -0.1427
   87CHL1   H2B 8893   0.047   1.927   6.972 -1.1674 -2.3898 -1.5138
   87CHL1   C20 8894  -0.011   2.239   7.884 -0.3108  0.2908  0.0525
   87CHL1   H20 8895  -0.071   2.322   7.841  1.9773  1.7183 -0.4945
   87CHL1   C21 8896   0.142   2.266   7.863  0.2702 -0.0942  0.0831
   87CHL1  H21A 8897   0.213   2.182   7.881  1.6954  1.2218  0.6255
   87CHL1  H21B 8898   0.171   2.339   7.941 -0.6019  1.5671 -1.1381
   87CHL1  H21C 8899   0.157   2.326   7.771 -2.8828  0.4909 -0.0879
   87CHL1   C22 8900  -0.027   2.229   8.039 -0.2517 -1.0124  0.3822
   87CHL1  H22A 8901  -0.112   2.162   8.064  1.2550 -2.8588  0.7491
   87CHL1  H22B 8902   0.056   2.162   8.070 -1.2961 -2.0656  0.9705
   87CHL1   C23 8903  -0.037   2.356   8.133  0.7676 -0.2981 -0.1578
   87CHL1  H23A 8904   0.057   2.413   8.120  1.9903 -2.2646 -0.1299
   87CHL1  H23B 8905  -0.127   2.412   8.099  0.4978 -0.9725 -0.5729
   87CHL1   C24 8906  -0.058   2.321   8.280  0.3079 -0.1605 -0.4730
   87CHL1  H24A 8907  -0.130   2.236   8.281 -0.9258  0.8880 -0.1400
   87CHL1  H24B 8908   0.040   2.281   8.314 -0.1885 -0.9738  0.0236
   87CHL1   C25 8909  -0.106   2.427   8.390 -0.4902  0.6781  0.1533
   87CHL1   H25 8910  -0.128   2.373   8.485 -1.6642  0.0022 -0.4973
   87CHL1   C26 8911   0.001   2.535   8.421  0.0088 -0.1465 -0.3493
   87CHL1  H26A 8912  -0.053   2.629   8.444 -1.9426 -1.0009 -1.2780
   87CHL1  H26B 8913   0.062   2.513   8.510  0.5945 -1.4020 -1.0518
   87CHL1  H26C 8914   0.063   2.543   8.329  1.6103 -1.1049  0.6351
   87CHL1   C27 8915  -0.237   2.495   8.342  0.1460  0.4090  0.6735
   87CHL1  H27A 8916  -0.220   2.563   8.255  0.2329 -0.1364  0.2630
   87CHL1  H27B 8917  -0.316   2.420   8.320  1.8261 -1.8841  2.2474
   87CHL1  H27C 8918  -0.269   2.561   8.425  0.6622 -1.8350  2.7066
   88CHL1    C3 8919   4.325   6.102   6.952  0.2397  0.1910  0.2892
   88CHL1    H3 8920   4.332   6.212   6.937 -1.8957  0.3263  0.1851
   88CHL1    O3 8921   4.256   6.038   6.845 -0.0174  0.0282  0.2767
   88CHL1   H3' 8922   4.167   6.075   6.852  0.1452  0.6059 -0.7138
   88CHL1    C4 8923   4.466   6.048   6.977 -0.2836  0.6219 -0.1108
   88CHL1   H4A 8924   4.449   5.939   6.990  0.6742  0.2475 -1.8437
   88CHL1   H4B 8925   4.535   6.054   6.890 -1.4138  2.9659 -0.8856
   88CHL1    C5 8926   4.517   6.097   7.111 -0.7560  0.3185  0.5437
   88CHL1    C6 8927   4.628   6.168   7.130  0.2814 -0.6621  0.1737
   88CHL1    H6 8928   4.698   6.188   7.048  0.3254  0.1625  0.4048
   88CHL1    C7 8929   4.685   6.218   7.257  0.1239  0.0537 -0.6456
   88CHL1   H7A 8930   4.796   6.228   7.256  0.0059  1.5988 -3.0353
   88CHL1   H7B 8931   4.653   6.323   7.270 -0.4841 -0.0436 -1.3122
   88CHL1    C8 8932   4.629   6.140   7.378 -0.0635  0.6387 -0.1317
   88CHL1    H8 8933   4.659   6.034   7.368 -1.3156  0.3885 -1.4261
   88CHL1   C14 8934   4.659   6.212   7.503  0.2420  0.0480  0.2379
   88CHL1   H14 8935   4.596   6.303   7.501  0.1458 -0.0366 -1.5811
   88CHL1   C15 8936   4.802   6.267   7.532 -0.3862  0.0309  0.3066
   88CHL1  H15A 8937   4.876   6.186   7.518 -1.1150 -0.2481 -2.1446
   88CHL1  H15B 8938   4.828   6.360   7.477 -1.9618  0.2013 -0.1790
   88CHL1   C16 8939   4.800   6.296   7.687  0.6192  0.2541 -0.1406
   88CHL1  H16A 8940   4.879   6.228   7.724  0.9206  1.0409  0.6900
   88CHL1  H16B 8941   4.811   6.404   7.711  0.0640  0.6611 -1.6875
   88CHL1   C17 8942   4.661   6.251   7.737  0.0918  0.2834 -0.3255
   88CHL1   H17 8943   4.598   6.342   7.727 -0.6141 -0.3173 -1.3275
   88CHL1   C13 8944   4.606   6.156   7.630 -0.8679  0.3322 -0.2612
   88CHL1   C18 8945   4.674   6.018   7.647  0.9251  0.6471  0.6175
   88CHL1  H18A 8946   4.637   5.979   7.744 -1.6469  3.4390  0.8321
   88CHL1  H18B 8947   4.639   5.954   7.564  0.2561 -0.5778  1.8194
   88CHL1  H18C 8948   4.785   6.018   7.637  1.2086 -1.4981  3.2563
   88CHL1   C12 8949   4.450   6.138   7.619 -0.2444  0.0767 -0.3755
   88CHL1  H12A 8950   4.407   6.082   7.705  1.2952 -0.0814  0.3263
   88CHL1  H12B 8951   4.404   6.238   7.612 -0.4799 -0.1099 -1.6450
   88CHL1   C11 8952   4.407   6.070   7.496 -0.1559 -0.6693 -0.2278
   88CHL1  H11A 8953   4.431   5.963   7.511  1.7517 -0.3371 -0.8332
   88CHL1  H11B 8954   4.299   6.093   7.480  0.0802  1.4920  1.0454
   88CHL1    C9 8955   4.471   6.131   7.370 -0.4343 -0.1097  0.8047
   88CHL1    H9 8956   4.442   6.238   7.372  3.6861  1.2483 -3.0674
   88CHL1   C10 8957   4.421   6.069   7.235  0.1476  0.4154  0.0649
   88CHL1   C19 8958   4.409   5.918   7.249  0.5473 -0.3158 -0.4451
   88CHL1  H19A 8959   4.510   5.885   7.281  0.1423 -0.6433  0.5087
   88CHL1  H19B 8960   4.338   5.883   7.327  1.1489 -0.8884 -0.1448
   88CHL1  H19C 8961   4.373   5.865   7.159  0.4694  0.7306 -1.0379
   88CHL1    C1 8962   4.283   6.130   7.209 -0.8562  0.2319  0.2778
   88CHL1   H1A 8963   4.209   6.117   7.290 -0.0009  1.7781  1.3379
   88CHL1   H1B 8964   4.291   6.241   7.206  0.1704  0.1631  0.2208
   88CHL1    C2 8965   4.230   6.086   7.076 -0.3335  0.0224 -0.2863
   88CHL1   H2A 8966   4.139   6.147   7.056 -1.0251 -0.8369  0.1883
   88CHL1   H2B 8967   4.198   5.980   7.081  0.0627 -0.0625  0.4341
   88CHL1   C20 8968   4.662   6.230   7.884 -0.1983  0.1735 -0.3462
   88CHL1   H20 8969   4.723   6.139   7.903  0.0682  0.5163  0.4570
   88CHL1   C21 8970   4.519   6.198   7.934  0.5196  0.7115  0.1196
   88CHL1  H21A 8971   4.441   6.262   7.887 -1.1166  1.1226  3.2421
   88CHL1  H21B 8972   4.524   6.208   8.045 -2.0588  0.1320  0.3349
   88CHL1  H21C 8973   4.488   6.094   7.912  0.9721  0.5252  0.3578
   88CHL1   C22 8974   4.717   6.354   7.959  0.2329 -0.1522  0.0094
   88CHL1  H22A 8975   4.815   6.381   7.914  0.7882 -0.5206  0.9771
   88CHL1  H22B 8976   4.633   6.426   7.949 -0.4748 -1.0238 -0.3604
   88CHL1   C23 8977   4.748   6.329   8.106  0.2511 -0.3825  0.2670
   88CHL1  H23A 8978   4.771   6.428   8.151  0.6674  0.0067 -0.7998
   88CHL1  H23B 8979   4.653   6.297   8.155 -0.5297  0.3676 -0.7250
   88CHL1   C24 8980   4.870   6.241   8.121 -0.4111  0.2665 -0.2499
   88CHL1  H24A 8981   4.855   6.134   8.096 -0.1346  0.3421 -0.7404
   88CHL1  H24B 8982   4.939   6.264   8.037 -0.4268  2.6609  0.3560
   88CHL1   C25 8983   4.950   6.261   8.251  0.4731  0.0687 -0.3061
   88CHL1   H25 8984   4.972   6.368   8.272 -0.1468 -0.1514  1.5557
   88CHL1   C26 8985   4.866   6.215   8.375 -0.4523  0.3970  0.0226
   88CHL1  H26A 8986   4.770   6.270   8.375  0.1589  1.5172 -1.6441
   88CHL1  H26B 8987   4.845   6.106   8.383 -0.4929  0.1566 -2.7196
   88CHL1  H26C 8988   4.916   6.249   8.468  1.5541  0.1609 -0.9231
   88CHL1   C27 8989   5.081   6.185   8.233  0.2971 -0.1768 -0.1672
   88CHL1  H27A 8990   5.127   6.181   8.334  0.5835  0.9897 -0.2462
   88CHL1  H27B 8991   5.064   6.078   8.207 -0.9919 -0.3833  1.4406
   88CHL1  H27C 8992   5.149   6.233   8.160  1.0778 -0.3767  0.4267
   89CHL1    C3 8993   0.337   3.235   6.955 -0.0391  0.1533 -0.0847
   89CHL1    H3 8994   0.443   3.205   6.971  0.0645  0.4211 -0.2603
   89CHL1    O3 8995   0.303   3.178   6.827 -0.0373 -0.0080  0.7009
   89CHL1   H3' 8996   0.210   3.155   6.830  0.3026 -1.4785  0.4918
   89CHL1    C4 8997   0.228   3.189   7.047 -0.1367 -0.3708 -0.2913
   89CHL1   H4A 8998   0.128   3.225   7.012 -0.0452  0.6151  0.4175
   89CHL1   H4B 8999   0.220   3.079   7.047 -3.1213 -0.2083  1.1527
   89CHL1    C5 9000   0.254   3.232   7.192 -0.8437  0.7522  1.0908
   89CHL1    C6 9001   0.271   3.140   7.296 -0.3385 -0.6453  0.1065
   89CHL1    H6 9002   0.268   3.032   7.275 -1.7609 -0.7104  0.5863
   89CHL1    C7 9003   0.307   3.186   7.436 -0.3261  0.2832 -0.4733
   89CHL1   H7A 9004   0.264   3.120   7.514  0.3634 -1.6221 -1.6744
   89CHL1   H7B 9005   0.417   3.178   7.447 -0.5664 -0.9674  1.0988
   89CHL1    C8 9006   0.277   3.335   7.456 -0.3979  0.0742 -0.7164
   89CHL1    H8 9007   0.166   3.334   7.454 -0.3883 -2.3277 -1.5303
   89CHL1   C14 9008   0.321   3.382   7.589  0.3019 -0.1423 -0.3571
   89CHL1   H14 9009   0.432   3.385   7.587  0.2674  0.9371 -1.4928
   89CHL1   C15 9010   0.283   3.295   7.718  0.7932  0.5050  0.5908
   89CHL1  H15A 9011   0.190   3.234   7.710  0.8538  0.6261 -1.1985
   89CHL1  H15B 9012   0.370   3.226   7.724  1.1116  0.6912 -1.5019
   89CHL1   C16 9013   0.275   3.395   7.830  0.3027  0.0374  0.1488
   89CHL1  H16A 9014   0.173   3.422   7.866  0.3995  1.4011 -0.5645
   89CHL1  H16B 9015   0.339   3.363   7.915 -0.4982  1.8143  1.4610
   89CHL1   C17 9016   0.326   3.528   7.766 -0.0537  0.2620 -0.5575
   89CHL1   H17 9017   0.437   3.528   7.758 -0.0543  0.2688 -0.5657
   89CHL1   C13 9018   0.281   3.527   7.624  0.4216  0.2424 -0.6188
   89CHL1   C18 9019   0.123   3.548   7.625 -0.7412  0.1593 -0.4828
   89CHL1  H18A 9020   0.095   3.653   7.650 -2.3497 -0.3894  0.1313
   89CHL1  H18B 9021   0.079   3.532   7.525 -2.7123  0.9056  0.2157
   89CHL1  H18C 9022   0.063   3.478   7.688 -1.9762 -0.3291 -2.1666
   89CHL1   C12 9023   0.360   3.615   7.520  0.0803 -0.5225 -0.3524
   89CHL1  H12A 9024   0.351   3.724   7.537 -3.2141 -1.0057  1.3291
   89CHL1  H12B 9025   0.470   3.597   7.524 -0.2490 -2.5333  0.6685
   89CHL1   C11 9026   0.316   3.581   7.378 -0.3902 -0.0910  0.8385
   89CHL1  H11A 9027   0.215   3.628   7.383  0.2176  1.3448 -0.1742
   89CHL1  H11B 9028   0.379   3.642   7.310 -0.1587 -2.4056 -1.1288
   89CHL1    C9 9029   0.327   3.427   7.345 -0.5459 -0.1884 -0.0419
   89CHL1    H9 9030   0.438   3.419   7.341 -0.4770  1.3667 -2.5864
   89CHL1   C10 9031   0.274   3.387   7.206  0.5309  1.2030  0.0424
   89CHL1   C19 9032   0.134   3.448   7.203  0.5288 -0.2040  0.4296
   89CHL1  H19A 9033   0.062   3.402   7.274 -0.2112 -0.0300 -0.1931
   89CHL1  H19B 9034   0.144   3.559   7.208 -0.8487 -0.0126 -0.5242
   89CHL1  H19C 9035   0.095   3.416   7.104  3.0069 -1.1387 -0.2702
   89CHL1    C1 9036   0.368   3.444   7.095 -0.0510  0.7881  0.0756
   89CHL1   H1A 9037   0.352   3.553   7.097  1.1521  0.9759 -0.1866
   89CHL1   H1B 9038   0.470   3.412   7.125 -0.2316 -0.1590 -0.2882
   89CHL1    C2 9039   0.340   3.388   6.951  0.1153 -0.4829 -0.4703
   89CHL1   H2A 9040   0.425   3.413   6.883 -0.8517  0.7369 -1.2680
   89CHL1   H2B 9041   0.245   3.429   6.910  0.4329  0.9484  0.1920
   89CHL1   C20 9042   0.296   3.650   7.858  0.6563  0.6022 -0.5291
   89CHL1   H20 9043   0.185   3.654   7.865  0.6665 -2.1905  2.0656
   89CHL1   C21 9044   0.341   3.787   7.800  0.0827 -0.5771  0.1272
   89CHL1  H21A 9045   0.347   3.860   7.883 -0.6193  0.0312 -0.3588
   89CHL1  H21B 9046   0.290   3.829   7.711 -0.3527  1.2390  1.2256
   89CHL1  H21C 9047   0.449   3.770   7.778  1.0678  1.1971  3.2982
   89CHL1   C22 9048   0.351   3.625   7.999 -0.0338  0.0740  0.1925
   89CHL1  H22A 9049   0.316   3.532   8.049  0.3994 -0.4406 -0.4671
   89CHL1  H22B 9050   0.462   3.626   7.997 -0.0466 -1.0955 -1.5603
   89CHL1   C23 9051   0.312   3.730   8.104 -0.8189 -0.0530  0.1686
   89CHL1  H23A 9052   0.362   3.826   8.079 -0.2969  0.0620  1.6642
   89CHL1  H23B 9053   0.202   3.744   8.110 -0.8675 -0.0156 -0.7174
   89CHL1   C24 9054   0.352   3.677   8.245 -0.4671  0.1929  0.1555
   89CHL1  H24A 9055   0.285   3.591   8.270 -1.5951  1.2289  0.7560
   89CHL1  H24B 9056   0.455   3.638   8.233  0.3085  2.1927  0.1986
   89CHL1   C25 9057   0.331   3.782   8.349 -0.9247 -0.0691 -0.1234
   89CHL1   H25 9058   0.228   3.823   8.358 -0.4824  1.0271  0.0402
   89CHL1   C26 9059   0.344   3.718   8.491  0.1820  0.1880  0.4333
   89CHL1  H26A 9060   0.299   3.788   8.565  0.2885  2.7833 -1.8736
   89CHL1  H26B 9061   0.287   3.623   8.494 -0.1413  0.2969 -1.4237
   89CHL1  H26C 9062   0.450   3.700   8.519  0.0453 -2.8800 -0.8050
   89CHL1   C27 9063   0.429   3.900   8.338 -0.0697  0.0485 -0.5481
   89CHL1  H27A 9064   0.535   3.865   8.338  0.7501  2.4171 -1.7827
   89CHL1  H27B 9065   0.416   3.954   8.242 -1.2800  1.8738  0.6257
   89CHL1  H27C 9066   0.404   3.973   8.418 -0.6920  2.8974 -3.2462
   90CHL1    C3 9067   6.485   4.770   6.768 -0.1667 -0.1585 -0.2646
   90CHL1    H3 9068   6.378   4.777   6.736 -0.0006 -0.9447 -1.0127
   90CHL1    O3 9069   6.553   4.747   6.642 -0.1166 -0.2202 -0.3888
   90CHL1   H3' 9070   6.505   4.802   6.580  1.4742  0.0206 -1.4220
   90CHL1    C4 9071   6.522   4.906   6.828 -0.3344  0.1568 -0.2890
   90CHL1   H4A 9072   6.632   4.910   6.821 -0.2992 -0.8861 -0.4290
   90CHL1   H4B 9073   6.492   4.988   6.759 -0.9983 -1.6776 -2.2277
   90CHL1    C5 9074   6.462   4.917   6.966  0.0818  0.0994  0.3870
   90CHL1    C6 9075   6.373   5.014   6.993 -0.1395  0.3314  0.1732
   90CHL1    H6 9076   6.338   5.091   6.923 -0.4475  0.4111  0.4179
   90CHL1    C7 9077   6.295   5.035   7.119  0.6849  0.3895 -0.3149
   90CHL1   H7A 9078   6.303   5.145   7.137 -0.7073  0.3309  0.7257
   90CHL1   H7B 9079   6.186   5.017   7.110  0.5191  0.1554  1.8108
   90CHL1    C8 9080   6.361   4.954   7.231  0.1326 -0.5183  0.5319
   90CHL1    H8 9081   6.447   5.019   7.257 -0.9495  1.2575 -0.2674
   90CHL1   C14 9082   6.272   4.942   7.357  0.2874 -0.3086  0.1726
   90CHL1   H14 9083   6.180   4.884   7.331 -0.1131  0.6350 -0.5534
   90CHL1   C15 9084   6.222   5.075   7.418  0.2021  0.0587 -0.0126
   90CHL1  H15A 9085   6.299   5.155   7.426 -0.5428  0.9039 -1.2237
   90CHL1  H15B 9086   6.129   5.105   7.366  0.2114  0.0737 -0.0207
   90CHL1   C16 9087   6.171   5.027   7.554 -0.2069  0.5254  1.4867
   90CHL1  H16A 9088   6.210   5.082   7.642  0.6525 -0.2081  1.5746
   90CHL1  H16B 9089   6.060   5.020   7.549 -0.1996  1.8617 -1.1444
   90CHL1   C17 9090   6.230   4.881   7.582  0.0154 -0.7182 -0.2298
   90CHL1   H17 9091   6.150   4.806   7.564 -3.4534  2.2452  2.2060
   90CHL1   C13 9092   6.339   4.866   7.468  0.0424  0.0233  0.4211
   90CHL1   C18 9093   6.468   4.936   7.515 -0.0365  0.2429 -0.1246
   90CHL1  H18A 9094   6.539   4.950   7.431  0.3483 -1.2344 -0.0614
   90CHL1  H18B 9095   6.448   5.033   7.565  0.8114  0.2458  0.2232
   90CHL1  H18C 9096   6.510   4.876   7.598 -0.4064 -0.0303 -0.1342
   90CHL1   C12 9097   6.366   4.720   7.430  0.2946  0.3900  0.7792
   90CHL1  H12A 9098   6.417   4.649   7.498  0.0738  1.3166  1.9258
   90CHL1  H12B 9099   6.266   4.688   7.394  1.6587 -1.3484 -1.6136
   90CHL1   C11 9100   6.464   4.730   7.302 -0.6420  0.5865  0.4848
   90CHL1  H11A 9101   6.562   4.764   7.343 -0.4522 -1.4879  1.8372
   90CHL1  H11B 9102   6.478   4.625   7.268 -1.9334 -0.0839  1.9471
   90CHL1    C9 9103   6.399   4.817   7.187 -0.1469  0.0686 -0.0498
   90CHL1    H9 9104   6.298   4.776   7.164  0.1757 -1.4321  1.1444
   90CHL1   C10 9105   6.494   4.803   7.065 -0.0847 -0.2092  0.5149
   90CHL1   C19 9106   6.647   4.808   7.107  0.0323  0.1820  0.0044
   90CHL1  H19A 9107   6.678   4.721   7.168 -0.7587 -0.4518 -0.4900
   90CHL1  H19B 9108   6.728   4.808   7.031 -0.3080  3.0551 -0.4196
   90CHL1  H19C 9109   6.659   4.906   7.158  1.4922 -0.3517  0.7154
   90CHL1    C1 9110   6.452   4.671   6.995  0.1462  0.0259  0.5299
   90CHL1   H1A 9111   6.482   4.584   7.058 -1.2798 -0.9614 -0.1265
   90CHL1   H1B 9112   6.342   4.656   6.991  0.0682  0.2708  1.7443
   90CHL1    C2 9113   6.520   4.652   6.861 -0.7249 -0.1188  0.1037
   90CHL1   H2A 9114   6.485   4.557   6.815  0.2993 -0.7668  0.6343
   90CHL1   H2B 9115   6.628   4.634   6.874 -1.1597 -2.0394  1.3463
   90CHL1   C20 9116   6.269   4.856   7.723 -0.0982  0.2131  0.7118
   90CHL1   H20 9117   6.351   4.928   7.747 -0.1837  1.4209 -2.4076
   90CHL1   C21 9118   6.311   4.708   7.750  0.0332  0.0035  0.0355
   90CHL1  H21A 9119   6.304   4.673   7.855 -1.5009 -2.5446 -0.8583
   90CHL1  H21B 9120   6.414   4.699   7.711  0.1369 -0.5393  0.4272
   90CHL1  H21C 9121   6.249   4.652   7.676 -0.5347  2.6760 -1.5942
   90CHL1   C22 9122   6.153   4.882   7.823  0.4776 -0.9170 -0.1302
   90CHL1  H22A 9123   6.095   4.975   7.805  1.0558  0.0045  2.5336
   90CHL1  H22B 9124   6.089   4.792   7.829 -0.8509  0.1029  1.4324
   90CHL1   C23 9125   6.213   4.904   7.963  0.1239  0.4667 -0.1182
   90CHL1  H23A 9126   6.288   4.826   7.987 -1.0120 -0.6227 -0.0680
   90CHL1  H23B 9127   6.262   5.003   7.958 -3.0005  1.9781 -2.9926
   90CHL1   C24 9128   6.105   4.898   8.076 -1.2150  0.3826  0.6766
   90CHL1  H24A 9129   6.163   4.909   8.170  1.2479 -0.0419 -0.7277
   90CHL1  H24B 9130   6.044   4.991   8.077 -0.5992  0.7861  1.0352
   90CHL1   C25 9131   6.023   4.769   8.100 -0.1283 -0.9495 -0.4658
   90CHL1   H25 9132   5.972   4.750   8.003 -0.4434 -1.9526 -0.1067
   90CHL1   C26 9133   6.112   4.647   8.122  0.3284  0.7281  0.0164
   90CHL1  H26A 9134   6.184   4.669   8.204 -0.3340  1.0919  0.5050
   90CHL1  H26B 9135   6.055   4.557   8.151  1.5658 -0.4012 -0.9671
   90CHL1  H26C 9136   6.171   4.629   8.029  0.3709  2.2299 -0.2641
   90CHL1   C27 9137   5.909   4.782   8.199  0.3465 -0.4549  0.0170
   90CHL1  H27A 9138   5.855   4.685   8.204 -0.7523  0.0980 -0.8334
   90CHL1  H27B 9139   5.956   4.807   8.296 -0.1044  1.1733 -0.1748
   90CHL1  H27C 9140   5.831   4.856   8.169 -1.5958 -1.9774  1.1919
   91CHL1    C3 9141   1.217   6.478   7.168 -0.2271  0.4165  0.1667
   91CHL1    H3 9142   1.327   6.469   7.152  0.1004  1.5963  1.6073
   91CHL1    O3 9143   1.141   6.532   7.063  0.4958  0.1046 -0.1070
   91CHL1   H3' 9144   1.160   6.474   6.989 -0.7414 -0.8538  0.3133
   91CHL1    C4 9145   1.161   6.340   7.210  0.1222  0.0376  0.1298
   91CHL1   H4A 9146   1.052   6.344   7.234 -0.4198 -1.8894 -1.8000
   91CHL1   H4B 9147   1.171   6.271   7.123  2.0099  1.1998 -0.5765
   91CHL1    C5 9148   1.238   6.289   7.323  0.1642 -0.8947  0.2104
   91CHL1    C6 9149   1.293   6.164   7.319  0.6379 -0.4686  0.4008
   91CHL1    H6 9150   1.280   6.106   7.226  1.1438 -2.0994  1.3186
   91CHL1    C7 9151   1.360   6.095   7.437 -0.3782 -0.0110  0.6601
   91CHL1   H7A 9152   1.331   5.989   7.453  0.1199 -0.1210  0.8489
   91CHL1   H7B 9153   1.470   6.103   7.422 -0.3315 -2.7270 -0.6750
   91CHL1    C8 9154   1.341   6.179   7.566  0.1274  0.2659 -0.8864
   91CHL1    H8 9155   1.240   6.163   7.609  1.5285 -0.9002  2.1073
   91CHL1   C14 9156   1.440   6.139   7.671 -0.4719  0.2833 -0.4698
   91CHL1   H14 9157   1.538   6.173   7.632 -1.1084  1.6981 -0.8490
   91CHL1   C15 9158   1.450   5.992   7.702 -0.7143  0.3241 -0.4315
   91CHL1  H15A 9159   1.349   5.946   7.713 -1.4614  2.1835  0.7278
   91CHL1  H15B 9160   1.500   5.919   7.636  1.1507  2.4537 -1.4547
   91CHL1   C16 9161   1.513   5.987   7.842 -0.3150 -0.3117 -0.1714
   91CHL1  H16A 9162   1.461   5.914   7.908  0.4326 -1.2642 -0.6050
   91CHL1  H16B 9163   1.616   5.949   7.820 -1.2714 -2.1509 -1.6035
   91CHL1   C17 9164   1.526   6.133   7.892  0.2527 -0.3280  0.2405
   91CHL1   H17 9165   1.629   6.165   7.866  0.7882 -1.7995  0.4618
   91CHL1   C13 9166   1.423   6.214   7.809 -0.1321 -0.9960 -0.0649
   91CHL1   C18 9167   1.285   6.195   7.871 -0.2284 -0.3504  0.5164
   91CHL1  H18A 9168   1.268   6.241   7.971 -1.3886 -0.4176  0.3645
   91CHL1  H18B 9169   1.208   6.244   7.807  0.8631  0.3063 -0.3233
   91CHL1  H18C 9170   1.265   6.086   7.868  2.1611 -0.7726 -1.2435
   91CHL1   C12 9171   1.463   6.357   7.782  0.6040  0.0297  0.1188
   91CHL1  H12A 9172   1.443   6.410   7.878 -0.2828  1.3080 -0.7527
   91CHL1  H12B 9173   1.567   6.378   7.752  0.9299 -1.6670  0.0292
   91CHL1   C11 9174   1.373   6.411   7.667 -0.4731  0.1012 -0.6832
   91CHL1  H11A 9175   1.273   6.439   7.708 -0.6232 -1.3070 -0.0523
   91CHL1  H11B 9176   1.411   6.510   7.634  2.1375 -1.3561 -2.1825
   91CHL1    C9 9177   1.354   6.327   7.543  0.4434 -0.1948 -0.2525
   91CHL1    H9 9178   1.451   6.332   7.489  0.9214 -0.4419  0.5646
   91CHL1   C10 9179   1.248   6.383   7.448  0.0555  0.7062 -0.3578
   91CHL1   C19 9180   1.102   6.388   7.512 -0.1567 -0.2575  0.0280
   91CHL1  H19A 9181   1.097   6.468   7.589  1.3693 -1.0489  0.9726
   91CHL1  H19B 9182   1.024   6.412   7.436 -0.3280  0.3226  0.3790
   91CHL1  H19C 9183   1.079   6.291   7.561  1.9873 -0.3174  0.9599
   91CHL1    C1 9184   1.294   6.520   7.397 -0.7732  0.2570 -0.3341
   91CHL1   H1A 9185   1.297   6.588   7.484  0.5803 -0.8219  0.4653
   91CHL1   H1B 9186   1.397   6.496   7.364  0.3564  2.6432  1.2839
   91CHL1    C2 9187   1.215   6.577   7.278 -0.1740 -0.2110 -0.3006
   91CHL1   H2A 9188   1.263   6.672   7.245 -2.4172  0.8057 -0.7820
   91CHL1   H2B 9189   1.109   6.602   7.300 -0.3090 -1.8140  0.9872
   91CHL1   C20 9190   1.527   6.128   8.050 -0.3230  0.7044 -0.7832
   91CHL1   H20 9191   1.429   6.091   8.086  0.5442 -1.2483 -0.4029
   91CHL1   C21 9192   1.556   6.270   8.110  0.1176  0.6396  0.5278
   91CHL1  H21A 9193   1.539   6.270   8.220  0.7000 -0.5212  0.6287
   91CHL1  H21B 9194   1.483   6.344   8.071 -1.2457 -1.7770 -1.6450
   91CHL1  H21C 9195   1.657   6.308   8.084  0.2181  0.6142  0.8869
   91CHL1   C22 9196   1.638   6.034   8.116  0.3229 -0.1208 -0.4081
   91CHL1  H22A 9197   1.602   5.930   8.098  1.5485 -0.7143  0.5472
   91CHL1  H22B 9198   1.732   6.039   8.058 -0.5550 -1.0067 -1.9606
   91CHL1   C23 9199   1.663   6.056   8.264 -0.5016  0.8555 -0.1499
   91CHL1  H23A 9200   1.734   6.141   8.275  0.3616  0.0735  0.4200
   91CHL1  H23B 9201   1.569   6.086   8.315 -1.2009 -0.7296 -0.4643
   91CHL1   C24 9202   1.745   5.947   8.330 -0.9720  0.2775  0.2912
   91CHL1  H24A 9203   1.827   5.915   8.262  0.7673 -1.9045  3.3183
   91CHL1  H24B 9204   1.773   5.985   8.430 -0.3886  0.2556  0.1382
   91CHL1   C25 9205   1.672   5.816   8.357 -0.3808 -0.1805 -0.3351
   91CHL1   H25 9206   1.636   5.775   8.260  1.0900 -1.0470 -0.5207
   91CHL1   C26 9207   1.763   5.717   8.425  0.2471  0.3675  0.2245
   91CHL1  H26A 9208   1.709   5.628   8.464 -1.3433  0.6853 -1.2287
   91CHL1  H26B 9209   1.840   5.681   8.353 -1.2565 -0.8605 -0.7889
   91CHL1  H26C 9210   1.822   5.768   8.505 -1.7827  1.5359  1.0120
   91CHL1   C27 9211   1.542   5.823   8.443 -0.3098  0.0245 -0.1830
   91CHL1  H27A 9212   1.555   5.881   8.537 -1.2503  0.5619 -0.3812
   91CHL1  H27B 9213   1.473   5.885   8.382 -0.3899  0.0930 -0.0212
   91CHL1  H27C 9214   1.497   5.724   8.466 -0.9387 -0.2285 -2.3705
   92CHL1    C3 9215   4.911   1.249   6.778 -0.5859  0.2450 -0.2239
   92CHL1    H3 9216   4.971   1.333   6.818 -1.6070  1.5083 -1.3010
   92CHL1    O3 9217   4.930   1.227   6.645 -0.0654 -0.3071 -0.0673
   92CHL1   H3' 9218   5.023   1.231   6.621  0.9334 -2.9827  3.0819
   92CHL1    C4 9219   4.948   1.124   6.843 -0.0419 -0.5748 -0.2322
   92CHL1   H4A 9220   4.886   1.039   6.806 -1.4158 -0.5793  2.0374
   92CHL1   H4B 9221   5.057   1.111   6.823  0.0161  0.3906 -0.5656
   92CHL1    C5 9222   4.932   1.128   6.995  0.1622  0.0578 -0.3296
   92CHL1    C6 9223   5.045   1.115   7.075  0.3429  0.6584 -0.2211
   92CHL1    H6 9224   5.142   1.097   7.027  2.0526  0.7531  3.0497
   92CHL1    C7 9225   5.038   1.105   7.222 -0.1087 -0.6561 -0.1809
   92CHL1   H7A 9226   5.083   1.007   7.249  1.3428 -0.4230 -1.6588
   92CHL1   H7B 9227   5.107   1.184   7.258 -1.3600  1.6032 -2.5797
   92CHL1    C8 9228   4.888   1.101   7.277  0.5092  0.7939  0.0771
   92CHL1    H8 9229   4.850   0.996   7.281  1.5899  0.4084  0.3627
   92CHL1   C14 9230   4.885   1.154   7.418  0.0713  0.3114  0.1813
   92CHL1   H14 9231   4.922   1.257   7.404  1.6337 -0.4284 -1.3584
   92CHL1   C15 9232   4.977   1.097   7.524 -0.3274  0.3332 -0.5183
   92CHL1  H15A 9233   4.985   0.988   7.503  0.3504  0.4525 -0.8871
   92CHL1  H15B 9234   5.083   1.127   7.509 -0.5648  1.6295  0.3260
   92CHL1   C16 9235   4.919   1.158   7.650  0.2313  0.0934 -0.1546
   92CHL1  H16A 9236   4.886   1.076   7.717  0.3646  1.0979  1.1409
   92CHL1  H16B 9237   4.991   1.225   7.701  0.7249 -0.8641  0.4311
   92CHL1   C17 9238   4.794   1.242   7.617  0.2020  0.1714 -0.2973
   92CHL1   H17 9239   4.824   1.344   7.587  3.3322 -0.5501  0.2392
   92CHL1   C13 9240   4.748   1.173   7.484 -0.1549  0.3414 -0.2949
   92CHL1   C18 9241   4.694   1.036   7.519 -0.1095 -0.3652  0.3300
   92CHL1  H18A 9242   4.726   0.994   7.617  2.4021  0.7013 -0.0083
   92CHL1  H18B 9243   4.583   1.037   7.508  0.0134 -1.8260 -1.3424
   92CHL1  H18C 9244   4.733   0.974   7.435  1.0630  1.4891 -0.5104
   92CHL1   C12 9245   4.652   1.260   7.392 -0.5410 -0.1604  0.2183
   92CHL1  H12A 9246   4.550   1.247   7.433 -0.3724  0.4659  0.8396
   92CHL1  H12B 9247   4.683   1.366   7.399 -0.7053 -0.0625 -0.5847
   92CHL1   C11 9248   4.653   1.205   7.251 -0.2017  0.3012  0.8696
   92CHL1  H11A 9249   4.588   1.117   7.235  0.4562 -0.1814  0.8563
   92CHL1  H11B 9250   4.603   1.282   7.187  1.7544 -0.0970 -1.2159
   92CHL1    C9 9251   4.796   1.186   7.192 -0.0582 -0.2500 -0.3194
   92CHL1    H9 9252   4.848   1.283   7.208  0.5294 -0.6694  0.3121
   92CHL1   C10 9253   4.790   1.159   7.040  0.0048 -0.0615 -0.0411
   92CHL1   C19 9254   4.686   1.048   7.011  0.6341  0.2554 -0.4309
   92CHL1  H19A 9255   4.701   0.994   6.915  0.3423 -1.3855  0.4264
   92CHL1  H19B 9256   4.698   0.974   7.093  1.3982  2.2935  1.3361
   92CHL1  H19C 9257   4.580   1.083   7.007  0.8489  0.9715  0.0937
   92CHL1    C1 9258   4.755   1.294   6.968  0.4590 -0.2051 -0.1272
   92CHL1   H1A 9259   4.652   1.328   6.989  0.2554 -1.1072  0.3826
   92CHL1   H1B 9260   4.830   1.364   7.011 -0.4480 -0.0044  1.1601
   92CHL1    C2 9261   4.770   1.288   6.815  0.3394  0.4075  0.0380
   92CHL1   H2A 9262   4.741   1.385   6.769  0.9178 -0.1762 -1.6241
   92CHL1   H2B 9263   4.689   1.215   6.789  0.2520  0.8301 -0.9186
   92CHL1   C20 9264   4.698   1.251   7.737 -0.3285  0.6372  0.4520
   92CHL1   H20 9265   4.659   1.151   7.766  0.1270 -0.2326 -1.8738
   92CHL1   C21 9266   4.561   1.320   7.693 -0.2008  0.0541  0.2164
   92CHL1  H21A 9267   4.498   1.260   7.624  0.0318 -0.0252  0.0724
   92CHL1  H21B 9268   4.577   1.418   7.644  2.0864 -0.9294 -1.0681
   92CHL1  H21C 9269   4.499   1.354   7.778  0.1807  0.4986  0.3196
   92CHL1   C22 9270   4.766   1.328   7.852 -0.6401  0.1302  0.4769
   92CHL1  H22A 9271   4.855   1.271   7.885  0.5887  0.9771 -1.2733
   92CHL1  H22B 9272   4.820   1.418   7.815 -0.4165 -0.2276 -0.0731
   92CHL1   C23 9273   4.683   1.369   7.978 -0.1674 -0.0017  0.8562
   92CHL1  H23A 9274   4.603   1.440   7.948  1.1852  0.2492 -2.3867
   92CHL1  H23B 9275   4.632   1.279   8.016  0.5537 -1.2765 -1.1161
   92CHL1   C24 9276   4.773   1.427   8.090 -0.1942 -0.1385  0.5971
   92CHL1  H24A 9277   4.856   1.357   8.115  0.7803  0.2347 -1.4711
   92CHL1  H24B 9278   4.833   1.517   8.063 -0.1447 -0.3345  0.0440
   92CHL1   C25 9279   4.707   1.472   8.221  0.2108  0.9553 -0.0248
   92CHL1   H25 9280   4.609   1.522   8.205 -0.8955 -1.3517 -0.5984
   92CHL1   C26 9281   4.674   1.355   8.316 -0.3191 -0.5786  0.2416
   92CHL1  H26A 9282   4.623   1.398   8.405 -0.9627 -0.5504 -0.1341
   92CHL1  H26B 9283   4.608   1.277   8.272 -1.7308  0.9368 -0.4121
   92CHL1  H26C 9284   4.766   1.300   8.342  0.5555  0.7278 -0.0712
   92CHL1   C27 9285   4.777   1.585   8.292  0.4729  0.1349 -0.1346
   92CHL1  H27A 9286   4.709   1.623   8.372  0.7099 -0.4861  0.3754
   92CHL1  H27B 9287   4.880   1.561   8.327  0.4468 -1.0094 -0.7905
   92CHL1  H27C 9288   4.796   1.669   8.223 -0.0945  0.2297 -0.1717
   93CHL1    C3 9289   3.256   5.554   6.983  0.6056 -0.2721 -0.4567
   93CHL1    H3 9290   3.350   5.594   6.938 -0.2706  0.1243 -1.9875
   93CHL1    O3 9291   3.173   5.513   6.874 -0.4836  0.4374 -0.3082
   93CHL1   H3' 9292   3.134   5.593   6.838 -2.6218  1.0149  3.0273
   93CHL1    C4 9293   3.296   5.435   7.070 -0.5655  0.0981 -0.5592
   93CHL1   H4A 9294   3.207   5.374   7.096  0.6731 -0.7409  1.9062
   93CHL1   H4B 9295   3.363   5.375   7.006 -0.3748 -0.2365 -0.0476
   93CHL1    C5 9296   3.356   5.468   7.208 -0.3916 -0.4276 -0.8188
   93CHL1    C6 9297   3.475   5.422   7.247  0.7562 -0.2230 -0.2029
   93CHL1    H6 9298   3.526   5.354   7.177  0.4851  0.5661 -1.1773
   93CHL1    C7 9299   3.549   5.436   7.376  0.0345 -0.0347  0.1475
   93CHL1   H7A 9300   3.594   5.340   7.409 -0.4530  0.5561  2.6680
   93CHL1   H7B 9301   3.632   5.509   7.366 -0.5227  0.6164  0.1740
   93CHL1    C8 9302   3.448   5.487   7.479  0.4026 -0.3052 -0.4791
   93CHL1    H8 9303   3.376   5.407   7.507 -1.8859  1.5309 -0.9412
   93CHL1   C14 9304   3.532   5.527   7.605 -0.0385  0.2846  0.0854
   93CHL1   H14 9305   3.602   5.606   7.571  1.5969 -1.2669 -0.2100
   93CHL1   C15 9306   3.623   5.423   7.668 -0.4251 -0.4038 -0.2284
   93CHL1  H15A 9307   3.574   5.323   7.675 -3.3043  0.9860 -0.0386
   93CHL1  H15B 9308   3.720   5.403   7.617  0.7569  1.3184  1.2825
   93CHL1   C16 9309   3.650   5.473   7.810  0.2555 -0.6608  1.1300
   93CHL1  H16A 9310   3.622   5.393   7.881 -1.4561 -1.9493 -0.9301
   93CHL1  H16B 9311   3.756   5.506   7.798 -0.7612  2.2224 -0.7105
   93CHL1   C17 9312   3.559   5.606   7.821 -0.0840  0.0466  0.5034
   93CHL1   H17 9313   3.624   5.687   7.780  0.3291 -1.3569 -1.6842
   93CHL1   C13 9314   3.449   5.589   7.717  0.0594 -0.9649  0.0325
   93CHL1   C18 9315   3.346   5.491   7.776  0.8174 -0.2322  0.5561
   93CHL1  H18A 9316   3.276   5.541   7.845  0.1957 -0.2837 -0.0297
   93CHL1  H18B 9317   3.292   5.431   7.700 -2.8846  3.1280  0.3860
   93CHL1  H18C 9318   3.398   5.415   7.837  0.4589 -2.1255 -1.4158
   93CHL1   C12 9319   3.378   5.709   7.657  0.2851  0.3917 -0.5968
   93CHL1  H12A 9320   3.315   5.766   7.729 -0.1878  1.3203 -1.7326
   93CHL1  H12B 9321   3.455   5.784   7.630  1.0213  0.2434  0.9884
   93CHL1   C11 9322   3.282   5.678   7.542 -0.6963  0.1191 -1.0201
   93CHL1  H11A 9323   3.205   5.604   7.572  1.1313 -1.6298 -0.5598
   93CHL1  H11B 9324   3.230   5.768   7.502  2.1813  1.8581 -1.0239
   93CHL1    C9 9325   3.362   5.608   7.421  0.3378  0.2266 -0.0806
   93CHL1    H9 9326   3.437   5.683   7.388 -2.2592  1.1973 -4.0680
   93CHL1   C10 9327   3.279   5.572   7.299 -0.3774  0.6216  0.2111
   93CHL1   C19 9328   3.153   5.491   7.336  0.2681  0.0204  0.6907
   93CHL1  H19A 9329   3.090   5.549   7.406  0.1589  1.7708 -0.8237
   93CHL1  H19B 9330   3.094   5.451   7.251  1.4843 -2.4042  0.9248
   93CHL1  H19C 9331   3.175   5.406   7.404  0.0581 -0.8032 -0.2598
   93CHL1    C1 9332   3.265   5.694   7.205 -0.0238  0.3192 -0.2926
   93CHL1   H1A 9333   3.203   5.773   7.251 -1.0668 -0.0719 -1.0125
   93CHL1   H1B 9334   3.362   5.747   7.195  0.0422  0.4547  0.9776
   93CHL1    C2 9335   3.198   5.662   7.072  0.8084  0.5079  0.0513
   93CHL1   H2A 9336   3.204   5.758   7.016  2.1790 -0.5947 -1.7222
   93CHL1   H2B 9337   3.090   5.644   7.089  0.7637 -1.1408 -1.8924
   93CHL1   C20 9338   3.521   5.651   7.969 -0.0042  0.2044 -0.4741
   93CHL1   H20 9339   3.445   5.575   7.998 -0.3680 -0.1746 -2.3811
   93CHL1   C21 9340   3.475   5.796   7.969  0.4602 -0.2688  0.7785
   93CHL1  H21A 9341   3.382   5.809   7.910  2.2093  1.9689 -1.5560
   93CHL1  H21B 9342   3.559   5.849   7.920 -0.0952 -1.3737 -1.4040
   93CHL1  H21C 9343   3.459   5.834   8.073  0.9703 -0.8242  1.0656
   93CHL1   C22 9344   3.643   5.627   8.068  1.0799 -1.0418 -0.3558
   93CHL1  H22A 9345   3.695   5.533   8.040 -0.2777 -1.9944  0.2781
   93CHL1  H22B 9346   3.725   5.701   8.054  0.5526 -0.5371 -0.7900
   93CHL1   C23 9347   3.617   5.608   8.221  0.8462  0.0469 -0.1265
   93CHL1  H23A 9348   3.715   5.647   8.255  0.5798  0.0361  0.6712
   93CHL1  H23B 9349   3.530   5.669   8.254 -1.1809 -1.7593 -1.9297
   93CHL1   C24 9350   3.579   5.460   8.256  0.6692  0.4617 -0.5318
   93CHL1  H24A 9351   3.481   5.440   8.207 -0.9039  3.9366  1.0555
   93CHL1  H24B 9352   3.654   5.397   8.203 -0.2467  0.7986 -2.2840
   93CHL1   C25 9353   3.587   5.411   8.404  0.6150  0.6948  1.2253
   93CHL1   H25 9354   3.508   5.470   8.455 -0.2875 -0.5984  1.3419
   93CHL1   C26 9355   3.567   5.258   8.408  0.0759 -0.1738  0.0212
   93CHL1  H26A 9356   3.568   5.219   8.512 -0.3718 -0.3589 -0.0420
   93CHL1  H26B 9357   3.473   5.219   8.363 -0.6370  1.0218  0.4505
   93CHL1  H26C 9358   3.659   5.214   8.363  1.9394  2.2550  1.3371
   93CHL1   C27 9359   3.719   5.449   8.473 -0.6965  1.0589 -0.1487
   93CHL1  H27A 9360   3.719   5.403   8.574  0.9961 -0.8019 -0.9578
   93CHL1  H27B 9361   3.800   5.408   8.410 -0.7441 -0.7868  0.9731
   93CHL1  H27C 9362   3.725   5.560   8.482  0.1095  1.1785 -1.9757
   94CHL1    C3 9363   5.244   2.133   6.810  0.6251  0.3396 -0.5061
   94CHL1    H3 9364   5.181   2.223   6.827 -0.7119 -0.6343 -0.2013
   94CHL1    O3 9365   5.266   2.108   6.669 -0.0687  0.5261 -0.1514
   94CHL1   H3' 9366   5.275   2.012   6.670 -1.0570  0.4216 -0.7222
   94CHL1    C4 9367   5.368   2.156   6.893  0.3226  0.3077 -0.4642
   94CHL1   H4A 9368   5.438   2.071   6.881  1.5994  1.2957 -0.0923
   94CHL1   H4B 9369   5.421   2.246   6.854 -1.6309  1.9236  0.4688
   94CHL1    C5 9370   5.340   2.167   7.043 -0.0935  0.2923  0.5069
   94CHL1    C6 9371   5.384   2.266   7.119 -1.0662  0.5148 -0.6347
   94CHL1    H6 9372   5.448   2.348   7.083  2.8441 -1.9487  0.4445
   94CHL1    C7 9373   5.361   2.276   7.272  0.8573  0.4965  0.3433
   94CHL1   H7A 9374   5.453   2.313   7.322  0.6301  2.0618 -0.3821
   94CHL1   H7B 9375   5.277   2.347   7.287 -0.0896 -1.1182  3.0149
   94CHL1    C8 9376   5.312   2.144   7.332 -0.3778  0.5790 -0.3144
   94CHL1    H8 9377   5.394   2.068   7.330 -1.9120 -1.2364  2.3316
   94CHL1   C14 9378   5.274   2.164   7.482  0.4022 -0.5862 -0.2015
   94CHL1   H14 9379   5.195   2.242   7.474 -0.1854 -1.1353  0.2481
   94CHL1   C15 9380   5.371   2.232   7.580  0.0771  0.4774 -0.0991
   94CHL1  H15A 9381   5.475   2.193   7.576 -0.3870 -1.0601  2.1981
   94CHL1  H15B 9382   5.382   2.341   7.560 -0.0614  0.6559  0.7842
   94CHL1   C16 9383   5.314   2.209   7.717 -0.0438 -0.3014 -0.3217
   94CHL1  H16A 9384   5.399   2.175   7.780 -0.4346  0.2939  0.5213
   94CHL1  H16B 9385   5.283   2.309   7.754  0.7674 -0.3403  0.4767
   94CHL1   C17 9386   5.199   2.105   7.703 -0.0821  0.3191  0.2068
   94CHL1   H17 9387   5.103   2.160   7.695 -1.0205 -1.0880  1.7540
   94CHL1   C13 9388   5.216   2.047   7.560 -0.5316 -0.1592  0.0964
   94CHL1   C18 9389   5.325   1.940   7.561  0.5669  0.0055 -0.6145
   94CHL1  H18A 9390   5.296   1.842   7.606  1.6320 -0.2146 -0.4055
   94CHL1  H18B 9391   5.362   1.908   7.462 -0.2035  3.2009 -1.9957
   94CHL1  H18C 9392   5.402   1.976   7.632 -1.8256 -0.9589  2.6193
   94CHL1   C12 9393   5.093   2.004   7.476  1.0658 -0.0052 -0.0403
   94CHL1  H12A 9394   5.028   1.919   7.507 -1.7801  0.7532 -3.6437
   94CHL1  H12B 9395   5.034   2.098   7.470 -0.2161 -0.9682 -3.7726
   94CHL1   C11 9396   5.136   1.978   7.326  1.2104  0.5626  0.1144
   94CHL1  H11A 9397   5.186   1.880   7.318  0.1735 -0.1692  2.1729
   94CHL1  H11B 9398   5.033   1.971   7.285  0.1856  1.5973  2.4264
   94CHL1    C9 9399   5.203   2.089   7.249  0.4598 -0.3403  0.2639
   94CHL1    H9 9400   5.128   2.169   7.232 -1.0966 -1.4633  1.6225
   94CHL1   C10 9401   5.245   2.053   7.099  0.2663 -0.8046  0.7211
   94CHL1   C19 9402   5.319   1.916   7.103 -0.1698  0.1573 -0.2477
   94CHL1  H19A 9403   5.375   1.899   7.008 -2.4102  0.6833 -1.7149
   94CHL1  H19B 9404   5.396   1.912   7.183 -0.8208 -1.0122  0.3261
   94CHL1  H19C 9405   5.254   1.827   7.115  0.2777 -0.3294 -1.3443
   94CHL1    C1 9406   5.115   2.047   7.013  0.5536  0.4920  0.2112
   94CHL1   H1A 9407   5.048   1.963   7.042 -0.5526  1.3558  0.1909
   94CHL1   H1B 9408   5.065   2.145   7.025  1.2543  0.8252  0.4067
   94CHL1    C2 9409   5.150   2.020   6.863 -0.1534  0.3168 -0.1780
   94CHL1   H2A 9410   5.057   2.005   6.804  1.2448  2.0071 -2.9237
   94CHL1   H2B 9411   5.214   1.929   6.864  2.7376  2.2886 -1.1459
   94CHL1   C20 9412   5.200   2.010   7.826 -0.1943 -0.1944  0.2621
   94CHL1   H20 9413   5.295   1.952   7.827 -1.7506 -2.8270  0.5703
   94CHL1   C21 9414   5.082   1.911   7.809  0.4222 -0.2330  0.3353
   94CHL1  H21A 9415   5.077   1.849   7.900 -1.1805 -0.7441 -0.0818
   94CHL1  H21B 9416   5.098   1.844   7.721  0.3105 -0.9936  0.8941
   94CHL1  H21C 9417   4.981   1.955   7.791  0.0594 -1.4245 -0.5989
   94CHL1   C22 9418   5.183   2.079   7.962  1.3371 -0.2664  0.2065
   94CHL1  H22A 9419   5.243   2.173   7.960  0.6539  0.1476 -1.5019
   94CHL1  H22B 9420   5.078   2.113   7.980  1.0965 -0.6694 -0.4336
   94CHL1   C23 9421   5.247   1.992   8.074  0.1052 -0.0097 -0.4882
   94CHL1  H23A 9422   5.210   1.889   8.057  0.6637  0.1735 -2.8561
   94CHL1  H23B 9423   5.355   1.989   8.051  0.1059  0.6470 -0.5729
   94CHL1   C24 9424   5.226   2.052   8.222  0.5780  0.1811 -0.1894
   94CHL1  H24A 9425   5.288   1.994   8.294  1.2847  1.4635  0.2420
   94CHL1  H24B 9426   5.266   2.155   8.217  0.9310  0.1947  2.1100
   94CHL1   C25 9427   5.086   2.045   8.276 -0.4995 -0.4792  0.2895
   94CHL1   H25 9428   5.019   2.101   8.207 -1.8579  1.6088  3.2417
   94CHL1   C26 9429   5.027   1.907   8.259  0.0921  0.5340 -0.7159
   94CHL1  H26A 9430   5.036   1.879   8.152  1.9935  0.7864 -0.6412
   94CHL1  H26B 9431   5.091   1.834   8.313 -0.5443  0.4908 -0.0131
   94CHL1  H26C 9432   4.920   1.906   8.288  0.8254  0.2355  2.1668
   94CHL1   C27 9433   5.085   2.082   8.423  0.2880  0.0082 -0.4057
   94CHL1  H27A 9434   5.149   2.012   8.481  2.9887  3.2917  0.7672
   94CHL1  H27B 9435   5.119   2.186   8.439 -0.7051  0.1805  0.5775
   94CHL1  H27C 9436   4.981   2.057   8.451  1.1464  0.2935  3.2317
   95CHL1    C3 9437   4.737   0.699   6.614  1.2470  0.1965 -0.3845
   95CHL1    H3 9438   4.738   0.809   6.628 -0.1169  0.0650  0.7957
   95CHL1    O3 9439   4.704   0.666   6.476 -0.3798 -0.0684 -0.7367
   95CHL1   H3' 9440   4.718   0.571   6.475  0.1804  0.0168 -0.9015
   95CHL1    C4 9441   4.883   0.647   6.640  0.3229 -0.1526  0.2833
   95CHL1   H4A 9442   4.880   0.542   6.606 -2.2368  0.2772 -0.8980
   95CHL1   H4B 9443   4.945   0.705   6.567  1.1561 -3.4468 -1.7487
   95CHL1    C5 9444   4.933   0.666   6.783  0.2675 -0.4945 -0.0279
   95CHL1    C6 9445   5.040   0.740   6.823 -0.0083 -0.4300 -0.0191
   95CHL1    H6 9446   5.102   0.779   6.741  0.6565  3.0252  2.0278
   95CHL1    C7 9447   5.078   0.755   6.966 -0.8627 -0.1050 -0.3283
   95CHL1   H7A 9448   5.184   0.723   6.967 -0.3106  1.6975 -0.6814
   95CHL1   H7B 9449   5.068   0.861   6.998 -0.5664  0.2974 -1.5590
   95CHL1    C8 9450   4.991   0.666   7.063  0.3556 -0.3992 -0.9788
   95CHL1    H8 9451   5.025   0.561   7.058  0.1902 -0.4927 -0.1566
   95CHL1   C14 9452   5.004   0.705   7.210 -0.3212 -0.1641  0.5202
   95CHL1   H14 9453   4.964   0.808   7.213 -3.6847 -1.3767  0.1917
   95CHL1   C15 9454   5.152   0.713   7.257  0.1812 -0.6607 -0.0802
   95CHL1  H15A 9455   5.218   0.628   7.230  2.0871  0.9289 -0.5138
   95CHL1  H15B 9456   5.194   0.811   7.226  1.3820 -1.1225  0.0843
   95CHL1   C16 9457   5.130   0.718   7.412 -0.4847  0.4042  0.5613
   95CHL1  H16A 9458   5.199   0.644   7.459 -0.2479 -0.3064 -0.8782
   95CHL1  H16B 9459   5.158   0.819   7.451  0.4368  0.2908  0.2021
   95CHL1   C17 9460   4.971   0.698   7.442 -0.0468 -0.2175 -0.2518
   95CHL1   H17 9461   4.928   0.798   7.424  2.6617  1.2026  0.7676
   95CHL1   C13 9462   4.929   0.622   7.316 -0.2246 -0.3397  0.4361
   95CHL1   C18 9463   4.980   0.481   7.324  0.6521  0.2578  0.1924
   95CHL1  H18A 9464   4.923   0.425   7.400  0.1835 -0.5270 -0.7239
   95CHL1  H18B 9465   4.958   0.428   7.228 -0.4959  0.7839  0.1607
   95CHL1  H18C 9466   5.090   0.478   7.344  0.5504  1.6097  1.0002
   95CHL1   C12 9467   4.779   0.637   7.278  0.4762 -0.5422 -0.1003
   95CHL1  H12A 9468   4.715   0.571   7.341 -0.1525  0.7808  0.6690
   95CHL1  H12B 9469   4.742   0.741   7.276  1.2915 -0.1934  2.1435
   95CHL1   C11 9470   4.757   0.591   7.138 -0.2965  0.0106  0.1375
   95CHL1  H11A 9471   4.779   0.483   7.130  2.9711  0.5331  1.2842
   95CHL1  H11B 9472   4.650   0.607   7.112 -0.7342 -2.0128  0.5978
   95CHL1    C9 9473   4.844   0.665   7.032  0.6528 -0.2910  0.1563
   95CHL1    H9 9474   4.809   0.770   7.032 -0.6627 -0.7139  0.6682
   95CHL1   C10 9475   4.818   0.616   6.889  0.0122 -0.4464  0.1643
   95CHL1   C19 9476   4.826   0.464   6.880 -0.0391 -0.4875 -0.2525
   95CHL1  H19A 9477   4.746   0.422   6.945  0.5604 -0.1598  0.7191
   95CHL1  H19B 9478   4.808   0.438   6.774  0.8415 -0.2992 -0.4564
   95CHL1  H19C 9479   4.920   0.418   6.917 -0.0294  0.6323  1.1715
   95CHL1    C1 9480   4.674   0.664   6.845  0.6072  0.0513  0.0321
   95CHL1   H1A 9481   4.595   0.621   6.910 -1.4850 -0.0863 -2.5240
   95CHL1   H1B 9482   4.667   0.774   6.860 -0.5572 -0.1349  0.8751
   95CHL1    C2 9483   4.634   0.632   6.704 -0.1641  0.8708  0.3959
   95CHL1   H2A 9484   4.530   0.665   6.685 -0.7097 -1.6253 -1.1162
   95CHL1   H2B 9485   4.633   0.522   6.686  1.6926  1.2384 -2.2818
   95CHL1   C20 9486   4.936   0.643   7.576  0.4272 -0.3345 -0.0497
   95CHL1   H20 9487   5.002   0.554   7.588  4.9344  3.2647  3.5479
   95CHL1   C21 9488   4.787   0.602   7.589 -0.4647 -0.2314 -0.7144
   95CHL1  H21A 9489   4.770   0.573   7.695  0.1746  2.0875  0.0520
   95CHL1  H21B 9490   4.755   0.505   7.545 -1.7268 -0.5866  0.9006
   95CHL1  H21C 9491   4.701   0.671   7.572 -1.3834 -1.8481 -2.8745
   95CHL1   C22 9492   4.978   0.743   7.687 -0.3923 -0.1445 -1.1238
   95CHL1  H22A 9493   5.071   0.800   7.667 -0.4000  0.6633  1.0047
   95CHL1  H22B 9494   4.905   0.826   7.688 -0.4625 -0.2102 -0.8013
   95CHL1   C23 9495   5.012   0.677   7.820  0.1728 -0.5369  0.5197
   95CHL1  H23A 9496   5.011   0.760   7.894  2.8839  0.9156 -1.0011
   95CHL1  H23B 9497   4.927   0.608   7.842 -1.6376  1.2641 -0.6535
   95CHL1   C24 9498   5.148   0.602   7.817  0.3298  0.3749 -0.3033
   95CHL1  H24A 9499   5.145   0.520   7.742 -0.3780  1.7189 -1.7692
   95CHL1  H24B 9500   5.222   0.678   7.783  1.6891 -0.3480  1.0006
   95CHL1   C25 9501   5.194   0.547   7.954 -0.3049 -0.2305  0.0680
   95CHL1   H25 9502   5.106   0.492   7.994 -0.7848  1.6681  1.7244
   95CHL1   C26 9503   5.315   0.465   7.942 -0.1605  0.7530  0.5733
   95CHL1  H26A 9504   5.398   0.521   7.894 -1.5819 -0.6695 -3.7989
   95CHL1  H26B 9505   5.349   0.416   8.036  1.4616  0.7568  0.0109
   95CHL1  H26C 9506   5.283   0.387   7.870  1.4230  1.3229 -0.7925
   95CHL1   C27 9507   5.221   0.661   8.057 -0.0899  0.5178  0.0559
   95CHL1  H27A 9508   5.234   0.609   8.154 -0.5104 -3.2955 -1.8362
   95CHL1  H27B 9509   5.313   0.718   8.033 -0.2494  0.1735 -1.4280
   95CHL1  H27C 9510   5.141   0.738   8.062 -1.1648 -0.6290  0.9830
   96CHL1    C3 9511   5.346   0.284   6.719 -0.0723  0.7823  0.2001
   96CHL1    H3 9512   5.339   0.173   6.715 -4.4542  0.9313  1.1144
   96CHL1    O3 9513   5.306   0.328   6.587  0.1419 -0.6608 -0.6809
   96CHL1   H3' 9514   5.296   0.423   6.598  0.2807 -0.7443  0.2185
   96CHL1    C4 9515   5.263   0.349   6.825  0.0462  0.3178 -0.3919
   96CHL1   H4A 9516   5.258   0.460   6.823 -0.4205  0.3971  2.8848
   96CHL1   H4B 9517   5.161   0.320   6.790  0.0226 -1.8196  1.3427
   96CHL1    C5 9518   5.299   0.306   6.962 -0.2241 -0.2265  0.2301
   96CHL1    C6 9519   5.212   0.233   7.030  0.3885 -0.8158 -0.2363
   96CHL1    H6 9520   5.111   0.207   6.997  0.3522 -0.0958 -0.6949
   96CHL1    C7 9521   5.231   0.194   7.171 -0.1226 -0.5460 -0.5520
   96CHL1   H7A 9522   5.139   0.222   7.226 -1.2122 -3.1631 -0.9631
   96CHL1   H7B 9523   5.242   0.085   7.188 -1.6009 -0.4971  0.7568
   96CHL1    C8 9524   5.344   0.270   7.238  0.2313 -0.5777 -0.8039
   96CHL1    H8 9525   5.311   0.375   7.246  3.3807  0.4873 -0.9828
   96CHL1   C14 9526   5.378   0.206   7.368  0.5681 -0.1789 -0.6330
   96CHL1   H14 9527   5.429   0.111   7.341  0.8535 -0.6780  1.6036
   96CHL1   C15 9528   5.262   0.180   7.464  0.9889  0.1281 -0.1394
   96CHL1  H15A 9529   5.207   0.275   7.469  0.6420 -0.0297 -0.9487
   96CHL1  H15B 9530   5.193   0.096   7.441 -0.5406  0.7980  1.9298
   96CHL1   C16 9531   5.327   0.155   7.599  0.1322  0.0264 -0.0846
   96CHL1  H16A 9532   5.291   0.223   7.679  1.2729  0.2255  0.2661
   96CHL1  H16B 9533   5.314   0.057   7.648 -1.4421  1.4735  2.4868
   96CHL1   C17 9534   5.479   0.189   7.572 -0.3022 -0.8516  0.1501
   96CHL1   H17 9535   5.527   0.093   7.542 -1.1610 -1.1786 -0.1908
   96CHL1   C13 9536   5.480   0.282   7.449 -0.2114  0.6043 -0.1577
   96CHL1   C18 9537   5.445   0.427   7.468 -0.3078 -0.5121 -0.1336
   96CHL1  H18A 9538   5.348   0.437   7.521 -1.3757  0.2633 -2.1440
   96CHL1  H18B 9539   5.517   0.468   7.541 -0.0527  1.3063 -1.3581
   96CHL1  H18C 9540   5.451   0.498   7.382 -0.6522 -0.3741 -0.0471
   96CHL1   C12 9541   5.611   0.278   7.361  0.3276  0.4325 -0.6857
   96CHL1  H12A 9542   5.687   0.335   7.419  0.8244 -2.2435  1.3638
   96CHL1  H12B 9543   5.647   0.174   7.348 -2.7433 -1.0239  1.7046
   96CHL1   C11 9544   5.592   0.340   7.223 -1.0344  0.0679  0.0816
   96CHL1  H11A 9545   5.579   0.451   7.228  1.4264  0.3629  1.0248
   96CHL1  H11B 9546   5.684   0.327   7.161 -1.0726 -3.2106  0.6523
   96CHL1    C9 9547   5.474   0.275   7.145  0.7942 -0.8537  0.8136
   96CHL1    H9 9548   5.500   0.169   7.125  2.1437 -0.4341  0.3313
   96CHL1   C10 9549   5.442   0.332   7.004  0.1607  0.9994  0.5005
   96CHL1   C19 9550   5.468   0.486   7.014  0.1415 -0.2521 -0.2743
   96CHL1  H19A 9551   5.400   0.537   7.085  1.5307  1.3661 -0.0636
   96CHL1  H19B 9552   5.572   0.514   7.041 -0.1458  2.1935 -1.5569
   96CHL1  H19C 9553   5.448   0.533   6.915  3.7867 -0.4336 -1.1701
   96CHL1    C1 9554   5.523   0.255   6.893  0.1691 -0.2886  0.7681
   96CHL1   H1A 9555   5.630   0.266   6.919 -0.0199  0.1219  1.3898
   96CHL1   H1B 9556   5.492   0.149   6.897 -1.8811  0.3223  2.0784
   96CHL1    C2 9557   5.496   0.306   6.749  0.1440 -0.3994  0.1140
   96CHL1   H2A 9558   5.567   0.261   6.677 -0.8716 -2.1755  0.1959
   96CHL1   H2B 9559   5.514   0.416   6.744 -0.3774 -0.2821  0.6693
   96CHL1   C20 9560   5.557   0.232   7.693  0.3741  0.3039 -0.5618
   96CHL1   H20 9561   5.522   0.334   7.719  0.3417 -0.0633  0.9160
   96CHL1   C21 9562   5.704   0.215   7.665  0.1644 -0.4993  0.0884
   96CHL1  H21A 9563   5.730   0.109   7.647  0.5562 -0.2216 -1.0139
   96CHL1  H21B 9564   5.770   0.251   7.747  1.2602  0.8164 -1.3403
   96CHL1  H21C 9565   5.745   0.277   7.583 -2.3613  1.6197  0.3695
   96CHL1   C22 9566   5.523   0.162   7.822  0.1306  0.6412 -0.1166
   96CHL1  H22A 9567   5.413   0.170   7.836 -0.0041  0.8122 -1.2588
   96CHL1  H22B 9568   5.557   0.057   7.812  3.4188  1.5298  1.0617
   96CHL1   C23 9569   5.596   0.214   7.950  0.9795 -0.5458  0.4690
   96CHL1  H23A 9570   5.706   0.200   7.955  1.0730 -0.4464 -1.0725
   96CHL1  H23B 9571   5.575   0.323   7.955  0.3458 -0.6111 -0.4969
   96CHL1   C24 9572   5.517   0.159   8.079  0.1431  1.0556 -0.3190
   96CHL1  H24A 9573   5.414   0.197   8.070  0.2139  1.1520 -0.7428
   96CHL1  H24B 9574   5.512   0.049   8.063 -2.3864  1.0267  0.4987
   96CHL1   C25 9575   5.582   0.206   8.215 -0.0657  0.4618  0.9748
   96CHL1   H25 9576   5.605   0.314   8.197  2.3377 -0.3052 -0.7319
   96CHL1   C26 9577   5.474   0.183   8.320  0.8269 -0.7508  0.2168
   96CHL1  H26A 9578   5.378   0.229   8.288  0.3963 -1.7164  0.1007
   96CHL1  H26B 9579   5.456   0.078   8.350 -0.5764 -1.1329 -1.8253
   96CHL1  H26C 9580   5.514   0.224   8.415 -0.3974 -1.0926  0.8920
   96CHL1   C27 9581   5.710   0.129   8.235  0.4856  0.2342  0.1860
   96CHL1  H27A 9582   5.679   0.027   8.267 -0.0594  0.2907 -0.1563
   96CHL1  H27B 9583   5.765   0.134   8.139 -2.1240 -2.0068 -1.4611
   96CHL1  H27C 9584   5.771   0.174   8.317 -0.8535  0.0428  1.3101
   97OSM      N 9585   2.558   0.863  11.421  0.6598  0.2518 -0.1293
   97OSM    C15 9586   2.684   0.796  11.453  0.0487 -0.2368  0.3335
   97OSM   H15A 9587   2.773   0.848  11.422  1.1515 -1.3934  1.5110
   97OSM   H15B 9588   2.684   0.700  11.404  0.9206 -0.2644  0.3736
   97OSM   H15C 9589   2.699   0.785  11.560 -1.5263  0.6027  0.6561
   97OSM    C14 9590   2.445   0.791  11.476  0.4162  0.2863  0.1276
   97OSM   H14A 9591   2.348   0.839  11.468 -1.7022 -3.7423  0.3731
   97OSM   H14B 9592   2.465   0.750  11.573 -1.7202 -1.5298 -0.1695
   97OSM   H14C 9593   2.431   0.702  11.417 -1.4408  1.2700 -1.0178
   97OSM    C13 9594   2.556   0.994  11.489  0.3068  0.3280 -0.2009
   97OSM   H13A 9595   2.593   0.994  11.590 -0.1705 -1.3224 -0.0086
   97OSM   H13B 9596   2.465   1.050  11.473 -0.0982 -0.0240  0.8717
   97OSM   H13C 9597   2.633   1.056  11.445 -0.5152  3.4556  2.5850
   97OSM    C12 9598   2.552   0.889  11.272 -0.2833  0.3806  0.0307
   97OSM   H12A 9599   2.525   0.794  11.229 -0.1579 -0.3248  1.5099
   97OSM   H12B 9600   2.648   0.923  11.238  0.0744  1.6185  2.2007
   97OSM    C11 9601   2.443   0.990  11.219 -0.3896  0.0070 -0.6167
   97OSM   H11A 9602   2.436   0.992  11.108 -1.1799  4.0090 -0.5909
   97OSM   H11B 9603   2.473   1.093  11.248  1.4300 -0.7097  0.1186
   97OSM      P 9604   2.201   1.081  11.266 -0.2557 -0.0579 -0.3114
   97OSM    O13 9605   2.070   1.030  11.318 -0.6248  0.1253 -0.6684
   97OSM    O14 9606   2.254   1.203  11.333  0.8849  0.6173 -0.6285
   97OSM    O11 9607   2.196   1.107  11.110  0.2230  0.0158 -0.4842
   97OSM    O12 9608   2.308   0.970  11.275 -0.2165 -0.3768  0.1916
   97OSM    C1S 9609   2.118   1.007  11.033 -0.2305  0.1266  0.1450
   97OSM    H1S 9610   2.011   0.999  11.060 -0.8601 -1.9229 -2.7564
   97OSM    H1T 9611   2.160   0.907  11.054 -1.3993 -0.0888  1.4806
   97OSM     NF 9612   2.052   0.955  10.800 -1.0823  0.3087  0.3839
   97OSM    HNF 9613   2.088   0.876  10.753 -0.2112  1.8235 -1.5518
   97OSM    C2S 9614   2.134   1.035  10.878  0.1356 -0.0693  0.2217
   97OSM    H2S 9615   2.113   1.144  10.876  2.2661  0.3361 -1.4391
   97OSM    C3S 9616   2.282   1.031  10.832  0.3766 -0.2724  0.5245
   97OSM    H3S 9617   2.326   0.930  10.845 -0.5691 -0.9260 -1.2236
   97OSM     O3 9618   2.373   1.112  10.910  0.4039 -0.6688  0.2063
   97OSM    HO3 9619   2.321   1.145  10.984 -1.1491 -2.7278  0.0794
   97OSM    C4S 9620   2.293   1.066  10.685 -0.6971 -0.5683 -0.0046
   97OSM    H4S 9621   2.287   0.978  10.618  2.0224 -0.3139 -0.6041
   97OSM    C5S 9622   2.326   1.183  10.632  0.3402  0.4174  0.4389
   97OSM    H5S 9623   2.346   1.269  10.697 -2.1436  1.6295 -0.3395
   97OSM    C6S 9624   2.346   1.221  10.486  0.1207 -0.6011 -0.0446
   97OSM    H6S 9625   2.440   1.278  10.474 -1.1198  1.7597  1.0244
   97OSM    H6T 9626   2.261   1.287  10.461 -0.4421 -0.5226  1.9704
   97OSM    C7S 9627   2.344   1.107  10.380  0.4194  0.0148  0.0874
   97OSM    H7S 9628   2.240   1.070  10.382  0.7221 -0.8287  0.5421
   97OSM    H7T 9629   2.408   1.027  10.424 -0.3681  0.2571  1.7057
   97OSM    C8S 9630   2.389   1.160  10.240 -0.0917 -0.3003  0.6178
   97OSM    H8S 9631   2.486   1.211  10.256 -0.6859  1.1830 -0.3993
   97OSM    H8T 9632   2.319   1.245  10.225  0.2229  0.1356  1.5977
   97OSM    C9S 9633   2.389   1.060  10.122  0.5627  0.4170 -0.5574
   97OSM    H9S 9634   2.285   1.022  10.133  1.1966 -1.4060 -0.6690
   97OSM    H9T 9635   2.453   0.973  10.147  1.0006  0.6723 -0.7836
   97OSM   C10S 9636   2.414   1.125   9.984  0.5050  0.9746  0.3098
   97OSM   H10S 9637   2.521   1.153   9.983 -0.2250  3.8968 -0.1149
   97OSM   H10T 9638   2.348   1.214   9.973 -2.9522 -1.4646  0.5838
   97OSM   C11S 9639   2.372   1.026   9.869  0.6460  0.6646  1.3357
   97OSM   H11S 9640   2.262   1.007   9.866  0.9723 -1.9724  3.8845
   97OSM   H11T 9641   2.415   0.927   9.895 -0.3386  0.4006  1.9860
   97OSM   C12S 9642   2.417   1.078   9.728 -0.2165 -0.5612 -0.2935
   97OSM   H12S 9643   2.526   1.093   9.747 -0.5611  1.2800  0.3567
   97OSM   H12T 9644   2.368   1.177   9.711  3.0759  1.3739  0.9226
   97OSM   C13S 9645   2.404   0.984   9.610  0.0763 -0.3246  0.1096
   97OSM   H13S 9646   2.305   0.971   9.561  0.4022 -4.2592  0.3290
   97OSM   H13T 9647   2.457   0.890   9.634 -0.7694 -0.9570 -0.4692
   97OSM   C14S 9648   2.483   1.038   9.488  0.4218 -0.1099  0.3796
   97OSM   H14S 9649   2.586   1.052   9.528  0.3327  1.4267  0.0870
   97OSM   H14T 9650   2.440   1.136   9.461 -0.8914 -1.2080 -1.6459
   97OSM   C15S 9651   2.474   0.935   9.376 -0.3371 -0.1313 -0.0977
   97OSM   H15S 9652   2.368   0.934   9.341 -0.8052 -0.1704  1.2934
   97OSM   H15T 9653   2.493   0.831   9.407 -2.1288 -0.4135  0.1280
   97OSM   C16S 9654   2.561   0.964   9.250  0.8566 -0.8976  0.2554
   97OSM   H16S 9655   2.659   0.914   9.267  1.3605  0.9925  3.2221
   97OSM   H16T 9656   2.574   1.074   9.242 -0.4935 -0.6006  1.8759
   97OSM   C17S 9657   2.495   0.906   9.121 -0.7793 -0.1968  1.0300
   97OSM   H17S 9658   2.444   0.808   9.131 -1.3699  0.0013  0.0699
   97OSM   H17T 9659   2.577   0.875   9.053  0.4726 -2.3670  3.4709
   97OSM   C18S 9660   2.412   1.007   9.051  0.4174  0.4716 -0.2597
   97OSM   H18S 9661   2.465   1.101   9.029  1.9372 -0.0556  1.0925
   97OSM   H18T 9662   2.328   1.035   9.118  0.7511 -0.8407  0.7427
   97OSM   H18U 9663   2.353   0.976   8.962  0.6394  1.2618 -0.6822
   97OSM    C1F 9664   1.919   0.973  10.798  0.2534  0.1778 -0.6827
   97OSM     OF 9665   1.873   1.081  10.836  0.0849 -0.4847 -0.1616
   97OSM    C2F 9666   1.837   0.868  10.739  0.7195  0.4591 -0.0388
   97OSM    H2F 9667   1.762   0.826  10.809 -1.6861  1.7704 -1.7873
   97OSM    H2G 9668   1.893   0.780  10.700 -2.2491 -0.6909 -1.8450
   97OSM    C3F 9669   1.757   0.929  10.625  0.1093 -0.2780  0.9165
   97OSM    H3F 9670   1.684   1.006  10.658 -1.6960 -1.8944  0.8393
   97OSM    H3G 9671   1.703   0.845  10.576  0.4451  0.6086 -1.0204
   97OSM    C4F 9672   1.827   0.980  10.493  0.3592  1.1492  0.4429
   97OSM    H4F 9673   1.878   1.073  10.528 -2.5706  1.5793  3.8357
   97OSM    H4G 9674   1.746   1.000  10.420  0.1907 -2.5095 -0.4551
   97OSM    C5F 9675   1.929   0.882  10.433 -0.3116  1.1050 -0.1314
   97OSM    H5F 9676   1.893   0.779  10.416  0.6961  1.0723 -2.0812
   97OSM    H5G 9677   2.014   0.878  10.505 -0.0613  0.6737 -0.4474
   97OSM    C6F 9678   1.984   0.937  10.298 -0.3253  0.5408 -0.6144
   97OSM    H6F 9679   2.074   0.872  10.287 -0.8817 -0.1930 -0.8358
   97OSM    H6G 9680   2.011   1.043  10.317 -0.9065  0.4318  0.8616
   97OSM    C7F 9681   1.884   0.926  10.179 -0.2270  0.2739 -0.1402
   97OSM    H7F 9682   1.949   0.957  10.094 -0.2455 -0.4117 -0.4077
   97OSM    H7G 9683   1.804   1.003  10.176 -0.2192  0.2026 -2.4068
   97OSM    C8F 9684   1.831   0.790  10.144  0.4068  0.3022 -0.3828
   97OSM    H8F 9685   1.763   0.798  10.058  0.5808  1.0879 -0.4468
   97OSM    H8G 9686   1.759   0.757  10.222 -0.3133  1.0394 -0.7340
   97OSM    C9F 9687   1.941   0.685  10.128  0.1847  0.1174 -0.0579
   97OSM    H9F 9688   1.991   0.653  10.221 -1.3731 -1.0461  0.3954
   97OSM   C10F 9689   1.979   0.615  10.014  0.8423  1.1521 -0.2231
   97OSM   H10F 9690   2.057   0.537  10.018 -1.8190 -1.6435 -1.0897
   97OSM   C11F 9691   1.917   0.639   9.880 -0.1055 -0.0617 -0.2927
   97OSM   H11F 9692   1.833   0.711   9.884  0.4382  0.5267  0.8744
   97OSM   H11G 9693   1.866   0.548   9.842 -0.5118 -0.1630  0.4943
   97OSM   C12F 9694   2.016   0.702   9.775  0.0856  0.4866  0.2717
   97OSM   H12F 9695   2.109   0.643   9.758 -0.3530  0.6951 -3.1232
   97OSM   H12G 9696   2.052   0.800   9.813  2.4752  0.0037 -0.6142
   97OSM   C13F 9697   1.943   0.747   9.640 -0.5468  0.4247 -0.0355
   97OSM   H13F 9698   1.861   0.818   9.663 -1.1313  0.0216 -0.8633
   97OSM   H13G 9699   1.904   0.654   9.592  1.6935 -1.6062  1.9219
   97OSM   C14F 9700   2.035   0.824   9.543  0.5825 -0.2732 -0.2674
   97OSM   H14F 9701   2.129   0.766   9.530  3.8035  3.3038  5.3055
   97OSM   H14G 9702   2.076   0.914   9.592 -0.1685 -0.5819  0.9356
   97OSM   C15F 9703   1.970   0.864   9.408  0.2314  0.8005  0.1212
   97OSM   H15F 9704   2.034   0.942   9.362 -1.6142  1.4982 -1.3395
   97OSM   H15G 9705   1.871   0.914   9.415  0.8996  2.2398 -0.4947
   97OSM   C16F 9706   1.966   0.753   9.293 -0.5103  0.1797 -0.0905
   97OSM   H16F 9707   1.905   0.674   9.343  0.8679  0.3489  1.8976
   97OSM   H16G 9708   2.070   0.718   9.273 -0.5312  1.2071 -2.1878
   97OSM   C17F 9709   1.919   0.821   9.165 -0.0114 -0.8917  0.4040
   97OSM   H17F 9710   1.975   0.916   9.152  0.1349 -0.8214  1.4673
   97OSM   H17G 9711   1.814   0.855   9.176  0.8192  2.6248 -1.7211
   97OSM   C18F 9712   1.935   0.726   9.045  0.2244  0.9572  0.7616
   97OSM   H18F 9713   1.935   0.786   8.951  0.8863  1.5830  1.1535
   97OSM   H18G 9714   1.851   0.654   9.043  0.3465  0.8398 -1.3786
   97OSM   H18H 9715   2.034   0.676   9.052  0.6410  1.1937 -2.6223
   98OSM      N 9716   1.515   6.241  10.730  0.0234 -0.0404  0.7108
   98OSM    C15 9717   1.488   6.232  10.577  0.6314  0.4157 -0.6089
   98OSM   H15A 9718   1.507   6.129  10.550 -1.1882 -0.1953  0.3432
   98OSM   H15B 9719   1.558   6.291  10.521  1.2413 -0.9547 -1.3153
   98OSM   H15C 9720   1.386   6.258  10.552  0.2301  1.8136  2.2581
   98OSM    C14 9721   1.424   6.156  10.802 -0.0565  0.1329 -1.0404
   98OSM   H14A 9722   1.455   6.157  10.905 -0.8851  0.6553 -0.7920
   98OSM   H14B 9723   1.428   6.052  10.772  0.9330  0.1421 -0.9601
   98OSM   H14C 9724   1.325   6.198  10.803  0.5636  1.6842  1.8445
   98OSM    C13 9725   1.651   6.191  10.748  0.3143  0.6272 -1.0151
   98OSM   H13A 9726   1.680   6.194  10.852 -1.5112  1.5991 -0.5069
   98OSM   H13B 9727   1.723   6.245  10.688  0.4933  1.5209 -0.0202
   98OSM   H13C 9728   1.650   6.087  10.722  1.1658  0.1474  0.7976
   98OSM    C12 9729   1.501   6.389  10.769 -0.2691  0.0096  0.1016
   98OSM   H12A 9730   1.412   6.424  10.719 -0.2071 -2.3462 -1.7772
   98OSM   H12B 9731   1.579   6.444  10.719 -2.0404 -0.4375 -3.3479
   98OSM    C11 9732   1.485   6.416  10.914  0.3549  0.4959  0.2408
   98OSM   H11A 9733   1.570   6.366  10.964 -0.3833 -0.9492  0.0874
   98OSM   H11B 9734   1.397   6.363  10.956  0.8136  1.5892  2.6604
   98OSM      P 9735   1.619   6.634  10.906  0.1139 -0.1089 -0.4739
   98OSM    O13 9736   1.595   6.775  10.955 -0.4930 -0.1770 -0.6476
   98OSM    O14 9737   1.738   6.560  10.956 -0.2327  0.3302  0.0534
   98OSM    O11 9738   1.634   6.656  10.748 -0.3096 -0.4072  0.0610
   98OSM    O12 9739   1.485   6.555  10.926 -0.5317 -0.4641  0.5057
   98OSM    C1S 9740   1.539   6.727  10.672  1.2222 -0.0952  0.3512
   98OSM    H1S 9741   1.541   6.833  10.705  1.6698 -0.8690  2.9326
   98OSM    H1T 9742   1.437   6.690  10.697  0.9765  1.5090  1.8083
   98OSM     NF 9743   1.436   6.794  10.452  0.3869  0.4798 -0.0056
   98OSM    HNF 9744   1.383   6.736  10.390  1.4542 -1.8943  1.2435
   98OSM    C2S 9745   1.549   6.719  10.519 -0.1836  0.8098  0.3567
   98OSM    H2S 9746   1.640   6.781  10.505 -0.7366  1.4759 -0.3245
   98OSM    C3S 9747   1.586   6.578  10.471  0.1491 -0.4279  0.8935
   98OSM    H3S 9748   1.504   6.509  10.500  0.2691 -1.0391 -0.2039
   98OSM     O3 9749   1.705   6.508  10.522 -0.2226  0.2702 -0.0940
   98OSM    HO3 9750   1.723   6.561  10.600 -0.4505 -0.3688  0.3950
   98OSM    C4S 9751   1.589   6.582  10.321 -0.7519 -0.0578  0.3586
   98OSM    H4S 9752   1.489   6.552  10.286 -0.6377 -0.8828  0.7313
   98OSM    C5S 9753   1.695   6.606  10.233  0.5018  0.9198  0.0412
   98OSM    H5S 9754   1.797   6.640  10.259  1.3982  1.4224 -3.8488
   98OSM    C6S 9755   1.677   6.606  10.084 -0.2554  0.1210 -0.3244
   98OSM    H6S 9756   1.574   6.571  10.061  0.1793  0.4565 -2.9180
   98OSM    H6T 9757   1.748   6.552  10.017  0.5221  2.1061 -1.1610
   98OSM    C7S 9758   1.684   6.750  10.030  0.0029 -0.4113  0.0150
   98OSM    H7S 9759   1.784   6.792  10.006 -0.7948  1.1248 -0.7014
   98OSM    H7T 9760   1.635   6.822  10.099  1.4960  0.8449 -0.2192
   98OSM    C8S 9761   1.609   6.770   9.896  0.5679  0.1450 -0.3663
   98OSM    H8S 9762   1.596   6.879   9.885  0.0597  0.2348  1.0756
   98OSM    H8T 9763   1.509   6.723   9.900  1.1228 -0.9797  0.7735
   98OSM    C9S 9764   1.676   6.709   9.773  0.4610  0.1637  0.0339
   98OSM    H9S 9765   1.665   6.598   9.772 -0.4732  0.2115 -3.4076
   98OSM    H9T 9766   1.784   6.725   9.792  1.3772 -2.3957 -2.5696
   98OSM   C10S 9767   1.629   6.781   9.647 -0.0941  0.1107 -0.1783
   98OSM   H10S 9768   1.658   6.888   9.652 -0.5123  0.1566  1.5338
   98OSM   H10T 9769   1.519   6.770   9.638 -0.2491  0.7480  0.9234
   98OSM   C11S 9770   1.694   6.712   9.519 -0.5823  0.0878 -0.4431
   98OSM   H11S 9771   1.662   6.605   9.512  0.1043 -0.1511  0.0023
   98OSM   H11T 9772   1.805   6.711   9.519 -0.5392  2.1455  0.8696
   98OSM   C12S 9773   1.649   6.800   9.395 -0.3158 -0.2091  0.9862
   98OSM   H12S 9774   1.692   6.900   9.419  1.5356 -0.8100  0.3114
   98OSM   H12T 9775   1.539   6.803   9.387 -0.3362 -2.7176 -0.3828
   98OSM   C13S 9776   1.706   6.745   9.265 -0.2078  0.0825 -0.2059
   98OSM   H13S 9777   1.665   6.646   9.236 -1.8833  1.0208 -1.1238
   98OSM   H13T 9778   1.817   6.741   9.264 -0.2521 -1.1718 -1.7208
   98OSM   C14S 9779   1.654   6.841   9.148 -0.4885 -0.4041 -0.2217
   98OSM   H14S 9780   1.678   6.945   9.177 -1.0434 -0.2611 -0.2658
   98OSM   H14T 9781   1.543   6.837   9.144 -0.4856  0.4039 -1.2355
   98OSM   C15S 9782   1.709   6.810   9.010  0.7361 -0.0056 -0.9722
   98OSM   H15S 9783   1.688   6.702   8.992 -0.4593 -0.1667  1.1471
   98OSM   H15T 9784   1.820   6.809   9.005  0.8181  1.3619  0.1780
   98OSM   C16S 9785   1.646   6.892   8.902  0.3216 -0.7159  0.4144
   98OSM   H16S 9786   1.671   6.999   8.923 -0.6297 -0.0058 -1.9053
   98OSM   H16T 9787   1.538   6.868   8.906  0.4403 -1.2443  0.4345
   98OSM   C17S 9788   1.701   6.856   8.764 -0.2685  0.5674  0.2338
   98OSM   H17S 9789   1.684   6.747   8.749  0.8507  0.0794  2.3786
   98OSM   H17T 9790   1.812   6.863   8.751 -0.3001 -3.0250 -3.0227
   98OSM   C18S 9791   1.632   6.933   8.649  0.5885  0.2175 -0.2510
   98OSM   H18S 9792   1.639   7.042   8.668 -0.6592  0.0142  1.5400
   98OSM   H18T 9793   1.525   6.904   8.645  0.6083  0.0712  0.2307
   98OSM   H18U 9794   1.678   6.911   8.551  0.9225 -0.1618 -0.0123
   98OSM    C1F 9795   1.404   6.927  10.466  0.6726  0.0532  0.2980
   98OSM     OF 9796   1.475   7.005  10.531 -0.3204  0.3839 -0.3851
   98OSM    C2F 9797   1.271   6.973  10.406  0.6369 -0.9914  0.1149
   98OSM    H2F 9798   1.198   6.973  10.490 -0.2784 -0.2367 -0.6486
   98OSM    H2G 9799   1.243   6.901  10.326  0.9270 -2.7274  1.5728
   98OSM    C3F 9800   1.281   7.112  10.342 -0.2148  0.5419 -0.2572
   98OSM    H3F 9801   1.299   7.189  10.420 -2.0979  0.8098 -0.0561
   98OSM    H3G 9802   1.176   7.125  10.308 -1.4278 -2.3819  2.2004
   98OSM    C4F 9803   1.378   7.126  10.232  0.1872  0.1370  1.0035
   98OSM    H4F 9804   1.355   7.042  10.163  0.9400 -1.4226  2.5922
   98OSM    H4G 9805   1.477   7.098  10.275  0.3859  0.1207  0.5379
   98OSM    C5F 9806   1.390   7.264  10.163  0.0073  0.3181 -0.5542
   98OSM    H5F 9807   1.357   7.341  10.236 -0.7909 -0.3568 -0.1902
   98OSM    H5G 9808   1.318   7.256  10.078  0.4746 -2.5727 -0.7348
   98OSM    C6F 9809   1.528   7.294  10.111 -0.1121  0.2148 -0.2436
   98OSM    H6F 9810   1.588   7.205  10.083 -1.2665 -0.9212  0.8104
   98OSM    H6G 9811   1.591   7.342  10.189  0.4299 -1.4947  0.3782
   98OSM    C7F 9812   1.534   7.374   9.978 -0.3514  0.1371 -0.1448
   98OSM    H7F 9813   1.635   7.417   9.959  0.8541 -1.7749  1.6607
   98OSM    H7G 9814   1.464   7.458   9.996  1.2484  1.5549 -0.4273
   98OSM    C8F 9815   1.494   7.288   9.852 -0.0016 -0.1338 -0.3246
   98OSM    H8F 9816   1.391   7.259   9.881  0.3691  0.3601  1.6027
   98OSM    H8G 9817   1.562   7.200   9.849 -1.8230 -1.6199  0.9959
   98OSM    C9F 9818   1.501   7.374   9.726 -0.0161 -0.3206  0.7572
   98OSM    H9F 9819   1.486   7.483   9.725  1.0010 -0.1638  1.2506
   98OSM   C10F 9820   1.535   7.326   9.602  0.8360 -0.1958 -0.3072
   98OSM   H10F 9821   1.516   7.385   9.511 -3.9319 -0.4054  0.4128
   98OSM   C11F 9822   1.573   7.184   9.571  0.3953  0.3280 -0.2382
   98OSM   H11F 9823   1.528   7.108   9.638 -0.8539 -0.6645 -2.1228
   98OSM   H11G 9824   1.680   7.162   9.553  0.2005 -0.2352 -0.7333
   98OSM   C12F 9825   1.512   7.151   9.432 -0.1775  0.5716 -0.7581
   98OSM   H12F 9826   1.565   7.063   9.391  1.4164  2.1517 -2.1808
   98OSM   H12G 9827   1.544   7.228   9.358  2.2561  2.9159  2.6070
   98OSM   C13F 9828   1.359   7.132   9.424 -0.2184  0.1598 -0.1179
   98OSM   H13F 9829   1.306   7.229   9.425  1.3433  1.0249 -0.5211
   98OSM   H13G 9830   1.320   7.079   9.513 -1.1790  0.5771 -0.2860
   98OSM   C14F 9831   1.306   7.061   9.299  0.0228  0.0537  0.0615
   98OSM   H14F 9832   1.195   7.055   9.307  0.0578  0.7662  1.1550
   98OSM   H14G 9833   1.348   6.958   9.288 -0.2317  0.1740 -2.2435
   98OSM   C15F 9834   1.359   7.131   9.177 -0.0647  0.1949  0.3942
   98OSM   H15F 9835   1.469   7.119   9.191  0.0223  1.5613  0.8901
   98OSM   H15G 9836   1.328   7.237   9.176 -1.4856 -0.1952  1.0462
   98OSM   C16F 9837   1.321   7.052   9.051 -0.5313  0.2402 -0.1027
   98OSM   H16F 9838   1.213   7.024   9.048 -0.3912 -0.4175  0.8100
   98OSM   H16G 9839   1.376   6.956   9.064  1.2270  1.3959  1.1159
   98OSM   C17F 9840   1.359   7.128   8.922  0.2335 -0.1505  0.7792
   98OSM   H17F 9841   1.390   7.055   8.844  0.7964  0.0403  0.8248
   98OSM   H17G 9842   1.451   7.187   8.941  0.4616  0.2310 -1.3910
   98OSM   C18F 9843   1.240   7.222   8.873  0.1408 -0.1833  0.2168
   98OSM   H18F 9844   1.216   7.287   8.961  0.5269 -0.4691  0.5359
   98OSM   H18G 9845   1.145   7.166   8.860 -0.8534  0.8259  2.7592
   98OSM   H18H 9846   1.254   7.293   8.789  1.0374 -0.1933  0.3521
   99OSM      N 9847   4.342   1.386  10.777 -0.0068  0.6401 -0.0734
   99OSM    C15 9848   4.388   1.368  10.919  0.7422  0.3339 -0.5760
   99OSM   H15A 9849   4.491   1.336  10.927  1.3050  1.7983 -1.7499
   99OSM   H15B 9850   4.321   1.307  10.978 -0.2685  0.3989 -1.6325
   99OSM   H15C 9851   4.384   1.464  10.967  2.9838  0.0193  0.2847
   99OSM    C14 9852   4.207   1.456  10.775 -0.1405 -0.2471  0.0188
   99OSM   H14A 9853   4.133   1.398  10.827  0.9564 -1.5468  0.1683
   99OSM   H14B 9854   4.177   1.465  10.672 -1.3421 -0.8904  0.3059
   99OSM   H14C 9855   4.208   1.552  10.824  2.6737 -0.7582  1.0973
   99OSM    C13 9856   4.443   1.462  10.695 -0.2341 -0.1321 -0.2834
   99OSM   H13A 9857   4.532   1.401  10.687 -0.3525  0.0412 -3.6909
   99OSM   H13B 9858   4.470   1.550  10.751  0.1569 -0.2083 -0.3444
   99OSM   H13C 9859   4.412   1.505  10.600  2.3945  0.0762 -1.0995
   99OSM    C12 9860   4.332   1.243  10.716  0.0544 -0.2558 -0.1111
   99OSM   H12A 9861   4.423   1.190  10.740  1.9773  2.6273 -0.7291
   99OSM   H12B 9862   4.332   1.257  10.609  1.4346 -0.5890 -0.1693
   99OSM    C11 9863   4.205   1.151  10.745 -0.0372  0.0266  0.3738
   99OSM   H11A 9864   4.229   1.051  10.704 -2.8686 -0.1275 -1.0160
   99OSM   H11B 9865   4.118   1.190  10.688  1.3676  1.9813 -0.5169
   99OSM      P 9866   4.077   1.020  10.925  0.0351 -0.2149  0.4759
   99OSM    O13 9867   4.168   0.908  10.971  0.0313 -0.0465 -0.2167
   99OSM    O14 9868   3.978   1.059  11.028  0.3589 -0.5454 -0.0982
   99OSM    O11 9869   4.009   0.979  10.790 -0.0721  0.0580  0.3180
   99OSM    O12 9870   4.165   1.151  10.885  0.2734  0.0475  0.7156
   99OSM    C1S 9871   3.887   1.049  10.746  0.0181 -0.6266 -0.5615
   99OSM    H1S 9872   3.889   1.158  10.769  3.3297 -0.8716  0.5637
   99OSM    H1T 9873   3.793   1.005  10.786 -0.2177  0.1597 -0.2377
   99OSM     NF 9874   3.764   1.126  10.536 -0.2675 -0.0966  0.8930
   99OSM    HNF 9875   3.680   1.088  10.499 -0.4241  1.9174 -0.9288
   99OSM    C2S 9876   3.863   1.034  10.594 -0.0527 -0.2202 -0.1190
   99OSM    H2S 9877   3.956   1.060  10.540 -1.2881  0.5369 -1.9645
   99OSM    C3S 9878   3.825   0.891  10.585  0.1803 -0.6234  0.1613
   99OSM    H3S 9879   3.723   0.869  10.625  0.2488 -0.6243  0.3395
   99OSM     O3 9880   3.907   0.787  10.644 -0.0625  0.4492 -0.4336
   99OSM    HO3 9881   3.948   0.832  10.719  1.5910 -0.9936 -0.4286
   99OSM    C4S 9882   3.810   0.861  10.438 -0.3608 -0.1380 -0.4808
   99OSM    H4S 9883   3.711   0.892  10.403 -0.1127  1.1657 -0.0308
   99OSM    C5S 9884   3.901   0.796  10.355  0.6100  0.6405  0.0949
   99OSM    H5S 9885   3.995   0.754  10.394  0.4692  0.7797  0.5922
   99OSM    C6S 9886   3.882   0.769  10.206 -0.3956  0.7119 -0.1068
   99OSM    H6S 9887   3.950   0.686  10.177 -0.6636  0.7907 -0.9824
   99OSM    H6T 9888   3.937   0.851  10.155 -0.6665 -0.8194 -2.9636
   99OSM    C7S 9889   3.736   0.748  10.156 -0.6550  0.4786 -0.1363
   99OSM    H7S 9890   3.667   0.830  10.185  1.0259  1.5157  1.0014
   99OSM    H7T 9891   3.697   0.660  10.212  3.3230  1.1973  4.0998
   99OSM    C8S 9892   3.738   0.707  10.009  0.1256 -0.6529 -0.1952
   99OSM    H8S 9893   3.649   0.655   9.968  0.4982 -0.3714 -1.3980
   99OSM    H8T 9894   3.808   0.623   9.990 -0.1699 -1.0563  0.4867
   99OSM    C9S 9895   3.760   0.834   9.926  0.2979  0.6413 -0.0890
   99OSM    H9S 9896   3.862   0.872   9.947  0.0715  0.4571  1.3841
   99OSM    H9T 9897   3.680   0.904   9.956 -3.4476 -3.1167 -0.8527
   99OSM   C10S 9898   3.760   0.808   9.779  0.6661 -0.0613 -0.5093
   99OSM   H10S 9899   3.669   0.756   9.743  0.5467  0.4411 -0.9387
   99OSM   H10T 9900   3.832   0.727   9.753  0.6221 -0.1286 -0.4226
   99OSM   C11S 9901   3.793   0.924   9.694 -0.1563 -0.4181 -0.2614
   99OSM   H11S 9902   3.904   0.932   9.689 -0.2267  0.0285 -1.3333
   99OSM   H11T 9903   3.757   1.015   9.748 -1.7631 -1.5278  0.5625
   99OSM   C12S 9904   3.748   0.906   9.553 -0.8540 -0.5513  0.0859
   99OSM   H12S 9905   3.788   0.808   9.517  1.3393 -0.0719  1.1012
   99OSM   H12T 9906   3.638   0.908   9.564 -0.8297  0.2893  0.1735
   99OSM   C13S 9907   3.790   1.012   9.449  0.4236 -1.0975 -0.3302
   99OSM   H13S 9908   3.901   1.015   9.437  0.2833 -0.0990 -1.4766
   99OSM   H13T 9909   3.771   1.117   9.482  0.0955 -1.5504  0.9297
   99OSM   C14S 9910   3.728   0.974   9.313  0.7836  0.2437  0.3097
   99OSM   H14S 9911   3.617   0.981   9.312  0.6339 -1.4794 -2.4625
   99OSM   H14T 9912   3.745   0.865   9.294  1.2293  0.8656 -3.1681
   99OSM   C15S 9913   3.781   1.051   9.190 -0.0222 -0.5366 -0.4837
   99OSM   H15S 9914   3.881   1.095   9.205  0.7615 -1.4751 -2.7253
   99OSM   H15T 9915   3.712   1.138   9.181 -0.0475 -0.0992  3.2948
   99OSM   C16S 9916   3.786   0.960   9.071 -0.2447 -0.5397  0.2009
   99OSM   H16S 9917   3.696   0.896   9.080 -0.2036 -0.6204  0.0377
   99OSM   H16T 9918   3.865   0.881   9.072 -1.3616 -1.6945 -1.2170
   99OSM   C17S 9919   3.783   1.038   8.936 -0.3114 -0.6271 -0.2285
   99OSM   H17S 9920   3.879   1.092   8.932 -1.4665  1.4221 -0.7897
   99OSM   H17T 9921   3.692   1.101   8.939  0.2886  0.1858  0.9820
   99OSM   C18S 9922   3.760   0.943   8.816  0.0077  0.1869 -0.1503
   99OSM   H18S 9923   3.744   1.010   8.728 -0.5386  3.5570  2.4379
   99OSM   H18T 9924   3.662   0.892   8.824  1.0781 -1.7954  0.5689
   99OSM   H18U 9925   3.841   0.868   8.810 -1.7267 -1.7892  0.5461
   99OSM    C1F 9926   3.793   1.252  10.505  0.1045 -0.3699 -0.1378
   99OSM     OF 9927   3.891   1.309  10.546 -0.3767  0.1222 -0.0569
   99OSM    C2F 9928   3.695   1.325  10.419  0.1121  0.0882  0.4979
   99OSM    H2F 9929   3.653   1.407  10.482  2.4878  0.3630  1.7917
   99OSM    H2G 9930   3.607   1.264  10.391 -0.5054  0.9468  0.5308
   99OSM    C3F 9931   3.744   1.382  10.283 -0.5502 -0.1625  0.6908
   99OSM    H3F 9932   3.663   1.450  10.248 -0.0405  0.1706  0.1458
   99OSM    H3G 9933   3.837   1.442  10.274 -0.8295  0.2394  0.4841
   99OSM    C4F 9934   3.736   1.268  10.182  0.4905  0.0958  0.7646
   99OSM    H4F 9935   3.648   1.204  10.200 -0.6166  1.0718 -0.9564
   99OSM    H4G 9936   3.824   1.204  10.202  0.8606 -0.1913 -1.6334
   99OSM    C5F 9937   3.733   1.309  10.036 -0.1697 -0.4345 -0.6829
   99OSM    H5F 9938   3.634   1.354  10.011  0.1200 -0.1372 -1.3107
   99OSM    H5G 9939   3.728   1.213   9.981  1.0108 -0.4618 -0.7457
   99OSM    C6F 9940   3.852   1.396   9.980 -0.7284  0.0031  0.4762
   99OSM    H6F 9941   3.952   1.346   9.976 -0.1336  1.3088 -1.7809
   99OSM    H6G 9942   3.859   1.491  10.036  0.5690  0.4677 -0.4398
   99OSM    C7F 9943   3.813   1.440   9.834 -0.1675 -0.4738 -0.0956
   99OSM    H7F 9944   3.883   1.524   9.812  0.3078 -0.7614  0.2970
   99OSM    H7G 9945   3.707   1.472   9.831 -1.4574 -4.2446  2.3577
   99OSM    C8F 9946   3.827   1.331   9.729  0.1864 -0.1528 -0.1836
   99OSM    H8F 9947   3.757   1.366   9.650  1.4273 -1.4736 -1.8932
   99OSM    H8G 9948   3.783   1.241   9.777 -0.1574 -0.1093 -0.4138
   99OSM    C9F 9949   3.968   1.297   9.683 -1.0213  0.2597  0.6721
   99OSM    H9F 9950   4.027   1.253   9.764  1.4528  0.0612 -1.1834
   99OSM   C10F 9951   4.023   1.336   9.570 -0.4593 -0.3948 -0.1029
   99OSM   H10F 9952   4.118   1.290   9.539 -0.4643  0.5437 -1.5631
   99OSM   C11F 9953   3.952   1.420   9.464 -0.8110  0.3927 -0.6848
   99OSM   H11F 9954   3.985   1.526   9.472  0.0742  0.1604 -1.1979
   99OSM   H11G 9955   3.843   1.424   9.482 -0.2360  1.2373  3.2516
   99OSM   C12F 9956   3.972   1.380   9.311  0.1651  0.3677 -0.1503
   99OSM   H12F 9957   3.960   1.274   9.280 -0.8011  0.1612  0.8974
   99OSM   H12G 9958   4.075   1.410   9.282 -0.6260  2.1956 -1.1616
   99OSM   C13F 9959   3.871   1.456   9.225 -0.6241 -0.4123  1.2911
   99OSM   H13F 9960   3.851   1.555   9.271  0.0478 -0.6316  2.0764
   99OSM   H13G 9961   3.776   1.399   9.217 -0.4161 -0.2803 -3.0300
   99OSM   C14F 9962   3.922   1.470   9.078  0.0861  0.1265 -0.1580
   99OSM   H14F 9963   3.935   1.367   9.038 -1.7852 -0.7733  1.4701
   99OSM   H14G 9964   4.027   1.507   9.088  1.5841 -4.0674  0.8920
   99OSM   C15F 9965   3.833   1.572   9.009 -0.1323 -0.3157  0.6914
   99OSM   H15F 9966   3.828   1.667   9.066 -1.7900  1.1984 -1.8883
   99OSM   H15G 9967   3.731   1.529   8.997 -0.4618  0.2054  1.6329
   99OSM   C16F 9968   3.879   1.609   8.867  0.7165  0.2313 -0.6576
   99OSM   H16F 9969   3.894   1.517   8.807  1.0901 -0.3525  0.3114
   99OSM   H16G 9970   3.980   1.654   8.878  0.3855  0.2794  2.6317
   99OSM   C17F 9971   3.781   1.711   8.802  0.0116  0.4598 -0.9527
   99OSM   H17F 9972   3.781   1.807   8.858 -2.7077 -0.5270  0.8427
   99OSM   H17G 9973   3.681   1.665   8.817  0.8713 -1.9039 -2.3606
   99OSM   C18F 9974   3.825   1.748   8.667  0.2099 -0.0250 -0.0741
   99OSM   H18F 9975   3.751   1.821   8.629 -1.8761 -0.0184  3.7531
   99OSM   H18G 9976   3.828   1.661   8.598 -0.2548 -0.7642  0.8324
   99OSM   H18H 9977   3.929   1.786   8.675 -0.0307  0.5225  0.5143
  100OSM      N 9978   6.318   1.849  10.937 -0.0716 -0.4244  0.2532
  100OSM    C15 9979   6.210   1.777  11.007 -0.2265 -0.4143  0.1151
  100OSM   H15A 9980   6.172   1.705  10.936  1.3955 -0.3289 -0.8659
  100OSM   H15B 9981   6.126   1.839  11.037  0.4102  0.3890  0.2536
  100OSM   H15C 9982   6.242   1.720  11.093  1.4818 -2.2957 -1.6921
  100OSM    C14 9983   6.366   1.962  11.014  0.2833 -0.2243 -0.1359
  100OSM   H14A 9984   6.397   1.939  11.115 -0.3644 -2.0583 -0.3409
  100OSM   H14B 9985   6.292   2.040  11.023  1.1375  0.5784  0.0382
  100OSM   H14C 9986   6.443   2.018  10.962  0.1094 -0.2452 -0.4161
  100OSM    C13 9987   6.435   1.757  10.928  0.3464 -0.2755 -0.9090
  100OSM   H13A 9988   6.476   1.740  11.027 -2.8811  1.5749  0.8276
  100OSM   H13B 9989   6.512   1.793  10.863  2.6542 -1.5771  1.0163
  100OSM   H13C 9990   6.398   1.661  10.894 -1.9272  0.9288 -1.9381
  100OSM    C12 9991   6.275   1.889  10.795  0.5172 -0.2365 -0.6109
  100OSM   H12A 9992   6.343   1.960  10.750  0.1829  1.8832  2.0815
  100OSM   H12B 9993   6.182   1.944  10.800  0.5948 -0.0232 -1.3876
  100OSM    C11 9994   6.237   1.779  10.693 -0.6329  0.3491 -0.1544
  100OSM   H11A 9995   6.318   1.703  10.691 -1.5298 -0.7068 -5.9201
  100OSM   H11B 9996   6.240   1.818  10.589  0.3078 -2.0457 -1.0728
  100OSM      P 9997   5.986   1.780  10.671 -0.6519 -0.3021 -0.1450
  100OSM    O13 9998   5.888   1.758  10.779 -0.4931  0.4205  0.5214
  100OSM    O14 9999   6.006   1.918  10.634  0.2898  0.5370  0.1020
  100OSM    O1110000   5.952   1.696  10.544 -0.1674 -0.3204 -0.8323
  100OSM    O1210001   6.116   1.725  10.730 -0.3415  0.0579  0.0038
  100OSM    C1S10002   5.957   1.550  10.541  0.7753  0.0252  0.3399
  100OSM    H1S10003   5.869   1.500  10.587 -1.6731  0.9419 -3.1676
  100OSM    H1T10004   6.046   1.520  10.600  0.5076  1.3269  1.4358
  100OSM     NF10005   5.983   1.349  10.401 -0.2255  0.2219  0.1360
  100OSM    HNF10006   6.071   1.303  10.388  0.9465  2.5342 -0.5229
  100OSM    C2S10007   5.984   1.488  10.397 -0.3314  0.3710  0.2335
  100OSM    H2S10008   5.899   1.523  10.336 -0.9929 -1.1543  0.2581
  100OSM    C3S10009   6.116   1.540  10.338 -0.1610  0.1537 -0.1288
  100OSM    H3S10010   6.198   1.494  10.397 -1.2821 -1.4791  0.2149
  100OSM     O310011   6.140   1.682  10.354  0.2560  0.1258 -0.9900
  100OSM    HO310012   6.068   1.721  10.406  1.9308  1.6900  0.2429
  100OSM    C4S10013   6.138   1.490  10.196  0.1777 -0.3540 -0.9436
  100OSM    H4S10014   6.194   1.395  10.197  0.6638 -0.0772  2.7419
  100OSM    C5S10015   6.080   1.539  10.080  0.1318  0.2365  0.0887
  100OSM    H5S10016   6.021   1.632  10.081  0.4850  0.4612  1.6462
  100OSM    C6S10017   6.107   1.479   9.945 -0.1726  0.3231  0.6557
  100OSM    H6S10018   6.057   1.380   9.943 -2.1479  1.3224 -3.2965
  100OSM    H6T10019   6.213   1.449   9.932 -1.7617 -5.2481 -0.6272
  100OSM    C7S10020   6.069   1.556   9.813  0.0516  0.1694 -0.3167
  100OSM    H7S10021   6.087   1.665   9.812  1.6011 -0.0818 -0.2304
  100OSM    H7T10022   5.966   1.534   9.777 -0.9689  3.3456  0.5021
  100OSM    C8S10023   6.157   1.498   9.701 -0.0610  0.0635  0.2431
  100OSM    H8S10024   6.133   1.392   9.675  1.8183 -0.5172  0.8283
  100OSM    H8T10025   6.264   1.495   9.728  0.5671  0.5474 -2.0457
  100OSM    C9S10026   6.153   1.570   9.573  0.0675  0.4206 -0.0428
  100OSM    H9S10027   6.194   1.673   9.576 -0.8051  0.7406  1.3011
  100OSM    H9T10028   6.047   1.584   9.543  0.8685  1.0411 -2.7207
  100OSM   C10S10029   6.211   1.487   9.449 -0.3472  0.3373  0.0350
  100OSM   H10S10030   6.155   1.391   9.443 -0.0934  0.3551 -4.0083
  100OSM   H10T10031   6.321   1.473   9.460 -0.1465  2.0430  0.3202
  100OSM   C11S10032   6.189   1.565   9.311  0.5186  0.1192  0.3287
  100OSM   H11S10033   6.235   1.666   9.319 -0.3405  0.4593  1.0796
  100OSM   H11T10034   6.081   1.573   9.286  1.3475  0.6494 -3.3303
  100OSM   C12S10035   6.241   1.483   9.193 -0.3250  0.6198 -0.4760
  100OSM   H12S10036   6.190   1.385   9.184  0.7882  0.0568 -0.8100
  100OSM   H12T10037   6.348   1.465   9.217  0.4645  1.8440 -2.9149
  100OSM   C13S10038   6.242   1.564   9.060 -0.8284 -0.4322 -0.0645
  100OSM   H13S10039   6.277   1.669   9.066  0.2982 -0.9606  3.1421
  100OSM   H13T10040   6.142   1.584   9.015 -2.1256  0.5789  3.1090
  100OSM   C14S10041   6.327   1.484   8.961 -0.6593  0.0795 -0.0206
  100OSM   H14S10042   6.272   1.472   8.865 -0.8223 -0.3403  0.1271
  100OSM   H14T10043   6.352   1.380   8.992 -1.3220  0.3145  1.3362
  100OSM   C15S10044   6.457   1.556   8.922 -0.0044 -0.0133  0.6978
  100OSM   H15S10045   6.529   1.559   9.007  0.4899 -0.1738  0.2928
  100OSM   H15T10046   6.437   1.663   8.903 -0.5819 -0.6280 -2.2959
  100OSM   C16S10047   6.531   1.493   8.804 -0.4765  0.0160 -0.0305
  100OSM   H16S10048   6.536   1.386   8.833 -1.1309 -0.2112 -0.7097
  100OSM   H16T10049   6.636   1.527   8.793 -0.6752  0.7741  0.3971
  100OSM   C17S10050   6.472   1.520   8.672 -0.4368 -0.2023  0.0434
  100OSM   H17S10051   6.475   1.631   8.662  1.8702 -0.1245  1.5093
  100OSM   H17T10052   6.368   1.482   8.663  0.2648 -2.1529  0.0497
  100OSM   C18S10053   6.559   1.468   8.555  0.2674 -0.1281  0.0778
  100OSM   H18S10054   6.509   1.490   8.458  1.1932 -2.8786 -1.0834
  100OSM   H18T10055   6.562   1.358   8.568  2.1487  0.0226  1.1187
  100OSM   H18U10056   6.665   1.502   8.559 -0.0157  0.5217  2.6075
  100OSM    C1F10057   5.879   1.274  10.435 -0.8719 -0.2025  0.6546
  100OSM     OF10058   5.771   1.321  10.467 -0.1340 -0.3691 -0.3542
  100OSM    C2F10059   5.893   1.130  10.426 -0.6811  0.1720 -0.4194
  100OSM    H2F10060   5.788   1.096  10.441 -0.4749 -0.3063 -0.0395
  100OSM    H2G10061   5.956   1.101  10.513 -2.1339 -1.3599  0.1630
  100OSM    C3F10062   5.959   1.080  10.298 -0.6157  0.1605 -0.4243
  100OSM    H3F10063   5.988   0.973  10.305 -2.6474 -0.5243 -1.7780
  100OSM    H3G10064   6.057   1.124  10.272 -1.6196  3.2091  0.7765
  100OSM    C4F10065   5.873   1.096  10.166  0.1809 -1.0464  0.3691
  100OSM    H4F10066   5.852   1.205  10.175 -0.4787 -1.2081  0.8201
  100OSM    H4G10067   5.784   1.029  10.168  0.1955 -1.0487  3.7613
  100OSM    C5F10068   5.955   1.068  10.032 -0.3789 -0.0857 -0.4381
  100OSM    H5F10069   5.983   0.960  10.028 -2.4404 -0.6501  0.0000
  100OSM    H5G10070   6.052   1.121  10.041 -2.0213  3.0118 -0.3620
  100OSM    C6F10071   5.887   1.096   9.902  0.4870  0.4264 -0.1950
  100OSM    H6F10072   5.846   1.199   9.915  0.1140  0.3953 -1.0975
  100OSM    H6G10073   5.796   1.039   9.878  0.9146  0.2690 -1.4675
  100OSM    C7F10074   5.974   1.072   9.780 -0.0080  0.3198 -0.9291
  100OSM    H7F10075   5.995   0.963   9.780 -1.8491 -0.0597 -2.7798
  100OSM    H7G10076   6.073   1.122   9.791  0.1598 -0.5075  1.6402
  100OSM    C8F10077   5.895   1.106   9.650  0.5677  0.3540 -0.1753
  100OSM    H8F10078   5.795   1.056   9.648  1.3812 -1.2632 -1.5879
  100OSM    H8G10079   5.944   1.064   9.559 -0.2629 -1.9325  0.4081
  100OSM    C9F10080   5.870   1.256   9.635  0.7538 -0.3922  0.1512
  100OSM    H9F10081   5.864   1.311   9.730  0.7682 -0.1106 -0.0112
  100OSM   C10F10082   5.878   1.323   9.520  0.0122 -0.3002 -0.4366
  100OSM   H10F10083   5.842   1.427   9.522  3.1288  0.8563 -1.4848
  100OSM   C11F10084   5.897   1.273   9.380  0.1428  0.2022  1.1019
  100OSM   H11F10085   5.932   1.167   9.380 -2.9982 -0.9307 -0.0749
  100OSM   H11G10086   5.978   1.331   9.333 -0.2851 -0.2383 -0.2171
  100OSM   C12F10087   5.770   1.278   9.284 -0.1587  0.6532  0.3127
  100OSM   H12F10088   5.707   1.369   9.283 -0.2107  0.6529  2.2250
  100OSM   H12G10089   5.710   1.189   9.313  0.1964  0.0905 -0.6480
  100OSM   C13F10090   5.810   1.257   9.134 -0.0961 -0.5951 -0.3083
  100OSM   H13F10091   5.713   1.227   9.089 -1.3005  2.4502  0.1512
  100OSM   H13G10092   5.879   1.171   9.115  1.4925  1.1713 -2.8677
  100OSM   C14F10093   5.865   1.382   9.060  0.3510  0.3461  0.1269
  100OSM   H14F10094   5.956   1.420   9.111  0.9623 -0.1097 -0.6172
  100OSM   H14G10095   5.795   1.468   9.062  0.3228  0.4109 -2.3864
  100OSM   C15F10096   5.900   1.340   8.918  0.0657  0.9867 -0.4527
  100OSM   H15F10097   5.911   1.432   8.856 -2.6923  1.0310 -0.9290
  100OSM   H15G10098   5.818   1.278   8.876  0.5612  0.5485 -0.7803
  100OSM   C16F10099   6.034   1.259   8.906  0.4138  0.3814 -0.4580
  100OSM   H16F10100   6.025   1.168   8.969  0.5071 -0.0151 -1.0071
  100OSM   H16G10101   6.122   1.313   8.945  1.8960 -0.7496 -2.1666
  100OSM   C17F10102   6.066   1.227   8.760 -0.2550 -0.2676 -0.7395
  100OSM   H17F10103   6.077   1.312   8.690 -0.8248  0.9786  0.6670
  100OSM   H17G10104   5.986   1.164   8.714  0.1735 -0.3842 -1.3390
  100OSM   C18F10105   6.197   1.144   8.743  0.0774  0.1528  0.7160
  100OSM   H18F10106   6.212   1.056   8.809  0.7543  0.9341  1.6179
  100OSM   H18G10107   6.282   1.208   8.773  0.5390 -0.7862  1.4670
  100OSM   H18H10108   6.220   1.109   8.640  0.6975 -0.2328  0.9827
  101OSM      N10109   1.871   1.362  11.092  0.3103  0.0778  0.5720
  101OSM    C1510110   1.820   1.478  11.166 -0.7246 -0.2187 -0.3628
  101OSM   H15A10111   1.749   1.531  11.104 -1.9157 -0.6059  0.6418
  101OSM   H15B10112   1.904   1.546  11.173 -1.7225  0.9736  0.4123
  101OSM   H15C10113   1.775   1.442  11.258  0.0113 -0.0295  0.0718
  101OSM    C1410114   1.977   1.411  10.997  0.9252  0.0358  0.4310
  101OSM   H14A10115   2.030   1.329  10.951  0.0662 -0.6981  0.7223
  101OSM   H14B10116   2.050   1.476  11.044  2.1538 -0.2382 -1.0732
  101OSM   H14C10117   1.927   1.466  10.919 -0.8297  1.5181  2.5276
  101OSM    C1310118   1.927   1.272  11.194  0.0849  0.3391 -0.1243
  101OSM   H13A10119   1.845   1.255  11.262  1.0406  2.1232  1.5368
  101OSM   H13B10120   2.010   1.325  11.239  1.2107 -1.1821 -0.3696
  101OSM   H13C10121   1.974   1.179  11.168  0.7022  0.5405  0.2593
  101OSM    C1210122   1.756   1.295  11.012  0.1983  0.2157 -0.2254
  101OSM   H12A10123   1.675   1.293  11.084  1.7878 -0.4649  1.5999
  101OSM   H12B10124   1.790   1.193  10.998 -1.6526 -0.8805  2.7177
  101OSM    C1110125   1.709   1.365  10.880  0.6861  0.5917 -0.7592
  101OSM   H11A10126   1.640   1.292  10.832  0.2915  1.2764 -1.2392
  101OSM   H11B10127   1.791   1.374  10.805  0.0906 -1.0669 -1.6320
  101OSM      P10128   1.504   1.521  10.922 -0.5817  0.2662  0.2744
  101OSM    O1310129   1.444   1.396  10.980  0.0394 -0.3124 -0.0494
  101OSM    O1410130   1.485   1.653  10.993  0.2323 -0.5355 -0.0358
  101OSM    O1110131   1.458   1.536  10.772 -0.5369  0.8171 -0.0862
  101OSM    O1210132   1.659   1.494  10.909 -0.1580 -0.3195  0.0473
  101OSM    C1S10133   1.487   1.643  10.679 -0.0165  0.0735  0.4664
  101OSM    H1S10134   1.543   1.725  10.727 -0.4803  0.2588  0.6928
  101OSM    H1T10135   1.393   1.685  10.637  0.7757 -0.6179 -2.1372
  101OSM     NF10136   1.613   1.689  10.483  0.6189 -0.0840  1.3566
  101OSM    HNF10137   1.558   1.691  10.400  2.0047 -0.6642  0.4240
  101OSM    C2S10138   1.572   1.575  10.570 -0.0351  0.2047 -0.2854
  101OSM    H2S10139   1.664   1.535  10.618  0.1560  1.1957  0.1781
  101OSM    C3S10140   1.499   1.455  10.503 -0.2525  0.4524  0.2120
  101OSM    H3S10141   1.408   1.482  10.446 -1.4436  1.2369  2.4476
  101OSM     O310142   1.458   1.345  10.585  0.2065 -0.0263  0.0520
  101OSM    HO310143   1.483   1.375  10.673  2.0394  1.2097 -0.8420
  101OSM    C4S10144   1.596   1.403  10.398  0.0056 -0.2872  0.2467
  101OSM    H4S10145   1.593   1.470  10.311 -0.4829  0.4621  0.8358
  101OSM    C5S10146   1.672   1.289  10.395 -0.0999 -0.1631  0.0666
  101OSM    H5S10147   1.665   1.218  10.479  1.4041 -2.7773 -1.9361
  101OSM    C6S10148   1.769   1.260  10.290 -0.4309 -0.1352  0.5088
  101OSM    H6S10149   1.712   1.200  10.215  1.5746  1.9763 -2.8522
  101OSM    H6T10150   1.857   1.209  10.335 -0.2303  0.7349  1.1171
  101OSM    C7S10151   1.838   1.375  10.225 -0.7651 -0.0477  0.3055
  101OSM    H7S10152   1.886   1.451  10.292 -0.3292 -0.6737  0.7069
  101OSM    H7T10153   1.763   1.431  10.164 -1.4455 -1.1232  0.1535
  101OSM    C8S10154   1.946   1.332  10.120  0.3838  0.4129 -0.2845
  101OSM    H8S10155   2.028   1.270  10.160  0.4662 -0.7939 -2.2366
  101OSM    H8T10156   1.991   1.422  10.072 -1.0665  1.5838  0.5060
  101OSM    C9S10157   1.907   1.266   9.986 -0.6371 -0.0900  0.2127
  101OSM    H9S10158   1.845   1.337   9.927  1.1357 -0.7532 -2.5373
  101OSM    H9T10159   1.844   1.179  10.013 -1.9400  0.9700  0.6123
  101OSM   C10S10160   2.029   1.202   9.914  0.8117 -0.0596 -0.1995
  101OSM   H10S10161   2.072   1.123   9.980 -1.3959  0.4929  1.9795
  101OSM   H10T10162   2.094   1.292   9.907  0.4451  0.3441  1.5036
  101OSM   C11S10163   2.006   1.147   9.778  0.4092  0.0899  0.2906
  101OSM   H11S10164   1.929   1.069   9.794  0.0315  0.9378  2.9531
  101OSM   H11T10165   2.096   1.098   9.737 -0.5786  1.1827 -3.3731
  101OSM   C12S10166   1.952   1.252   9.686 -0.1475 -0.2346 -0.1250
  101OSM   H12S10167   2.007   1.348   9.695  2.9442 -1.7340 -2.0994
  101OSM   H12T10168   1.849   1.279   9.718  1.1084  1.4985  2.5881
  101OSM   C13S10169   1.957   1.201   9.541  0.3006  0.1616 -0.2383
  101OSM   H13S10170   1.884   1.121   9.519 -1.0399  0.9442  1.2165
  101OSM   H13T10171   2.060   1.163   9.524 -0.0789  0.0645 -2.5072
  101OSM   C14S10172   1.938   1.320   9.452 -0.1696 -0.5588  0.2379
  101OSM   H14S10173   2.028   1.384   9.462 -1.1029  1.1615 -2.0819
  101OSM   H14T10174   1.854   1.384   9.488 -0.2535 -1.7255  2.2238
  101OSM   C15S10175   1.927   1.284   9.305  0.3247  0.2955 -0.0146
  101OSM   H15S10176   1.835   1.224   9.289  0.1398  0.4494  0.4443
  101OSM   H15T10177   2.021   1.234   9.275 -0.1095 -1.5438  1.5791
  101OSM   C16S10178   1.928   1.408   9.213 -0.1594  0.3393 -0.0546
  101OSM   H16S10179   2.030   1.452   9.205  0.5273 -1.4230 -1.0856
  101OSM   H16T10180   1.863   1.482   9.264 -1.8657 -0.8523 -0.4788
  101OSM   C17S10181   1.906   1.365   9.070 -0.3296 -0.1415 -0.7904
  101OSM   H17S10182   1.814   1.304   9.058  0.2032 -1.6906  2.4573
  101OSM   H17T10183   1.990   1.304   9.031  0.9292  2.1412 -1.7729
  101OSM   C18S10184   1.894   1.482   8.975 -0.5069 -0.3121 -0.1584
  101OSM   H18S10185   1.897   1.447   8.870  1.8308  1.0910 -0.6041
  101OSM   H18T10186   1.980   1.550   8.993 -0.5950 -0.0837 -0.5743
  101OSM   H18U10187   1.814   1.555   9.001 -0.5611 -0.7900  1.0268
  101OSM    C1F10188   1.711   1.780  10.509 -0.0757 -0.2006  0.0499
  101OSM     OF10189   1.787   1.762  10.604 -0.0139  0.1599 -0.4102
  101OSM    C2F10190   1.730   1.889  10.410 -0.3267  0.1884  0.0056
  101OSM    H2F10191   1.717   1.987  10.460  0.2505  0.1441  0.2497
  101OSM    H2G10192   1.652   1.873  10.332 -0.2148 -2.6988  0.4213
  101OSM    C3F10193   1.878   1.877  10.354 -0.0235  0.0234  0.3171
  101OSM    H3F10194   1.906   1.772  10.331 -1.1394 -0.6817  2.0886
  101OSM    H3G10195   1.944   1.909  10.437 -2.5220  0.7305  2.0929
  101OSM    C4F10196   1.895   1.971  10.233  0.1334  0.2471 -0.0121
  101OSM    H4F10197   2.002   1.979  10.204  0.2188 -0.1606  0.1882
  101OSM    H4G10198   1.871   2.074  10.267 -0.1704  0.4975 -0.9879
  101OSM    C5F10199   1.815   1.936  10.107  0.3602 -0.4294  0.5621
  101OSM    H5F10200   1.833   2.019  10.035 -1.7541 -1.1150 -0.8068
  101OSM    H5G10201   1.709   1.943  10.140 -0.1260 -0.4292 -0.9142
  101OSM    C6F10202   1.846   1.795  10.044  0.6254 -0.1803  0.6165
  101OSM    H6F10203   1.878   1.722  10.120  1.0892 -1.1377 -0.4772
  101OSM    H6G10204   1.752   1.754  10.002  0.9899  0.5362 -0.9640
  101OSM    C7F10205   1.956   1.796   9.936  0.0355  0.3657 -0.1233
  101OSM    H7F10206   2.055   1.807   9.985  0.1740  0.0064 -0.3200
  101OSM    H7G10207   1.940   1.884   9.870  2.9270 -0.0830 -1.4875
  101OSM    C8F10208   1.947   1.671   9.847  1.0537 -0.1147  0.4828
  101OSM    H8F10209   1.850   1.660   9.794  1.5565  0.2437 -0.5190
  101OSM    H8G10210   1.966   1.585   9.915 -2.6142 -0.0960  1.6307
  101OSM    C9F10211   2.065   1.680   9.755  0.1680  0.3754 -0.7646
  101OSM    H9F10212   2.163   1.647   9.793  0.4095  2.2261  0.2760
  101OSM   C10F10213   2.072   1.737   9.639 -0.4384 -0.2936  0.7417
  101OSM   H10F10214   2.163   1.715   9.581 -0.9064 -1.3589  0.4065
  101OSM   C11F10215   1.963   1.812   9.563 -0.6331  0.7553 -0.1961
  101OSM   H11F10216   1.993   1.916   9.587 -1.1461  0.8906 -0.1215
  101OSM   H11G10217   1.860   1.787   9.598 -0.7347 -1.7424 -2.0904
  101OSM   C12F10218   1.970   1.800   9.413 -0.2136 -0.0651 -0.7461
  101OSM   H12F10219   2.004   1.697   9.388  1.1738  0.4624 -1.0820
  101OSM   H12G10220   2.050   1.871   9.382 -0.4547 -0.0491 -1.3329
  101OSM   C13F10221   1.839   1.842   9.346  0.2492 -0.0453 -0.2024
  101OSM   H13F10222   1.800   1.933   9.395  0.6780  0.0397 -0.0202
  101OSM   H13G10223   1.763   1.760   9.340  0.7368 -0.5276  0.1432
  101OSM   C14F10224   1.842   1.881   9.202 -0.3432 -0.7416  0.8898
  101OSM   H14F10225   1.812   1.789   9.147 -2.4363  2.1271 -3.0211
  101OSM   H14G10226   1.945   1.907   9.168  0.0113 -1.7913  1.1170
  101OSM   C15F10227   1.733   1.973   9.151  0.5092 -0.6142  0.4570
  101OSM   H15F10228   1.756   2.081   9.158  0.3532 -0.4750 -0.9709
  101OSM   H15G10229   1.659   1.966   9.232  2.1134  1.4193  2.1507
  101OSM   C16F10230   1.658   1.932   9.022  0.0672  0.1719 -0.0436
  101OSM   H16F10231   1.557   1.977   9.025  1.1657  2.5829  3.1778
  101OSM   H16G10232   1.634   1.823   9.027 -2.0445  0.6908  1.8752
  101OSM   C17F10233   1.733   1.953   8.896 -0.3070  0.0629  0.2526
  101OSM   H17F10234   1.812   1.876   8.879  1.5817  0.9358  4.4840
  101OSM   H17G10235   1.801   2.039   8.911  0.6315 -1.0876  2.7464
  101OSM   C18F10236   1.653   1.952   8.772 -0.0896  0.7346 -0.0476
  101OSM   H18F10237   1.716   1.988   8.688 -0.5867  1.1335 -0.2518
  101OSM   H18G10238   1.567   2.021   8.776 -0.4400  0.3265 -0.4801
  101OSM   H18H10239   1.615   1.850   8.749  2.7358 -0.2677 -0.5272
  102OSM      N10240   3.726   3.578  10.864 -1.2187  0.2891 -0.3235
  102OSM    C1510241   3.744   3.622  11.006 -0.1944  0.4044  0.6429
  102OSM   H15A10242   3.728   3.727  11.024  0.5601  0.4272  1.1603
  102OSM   H15B10243   3.844   3.610  11.043 -0.9073 -0.2263  2.3926
  102OSM   H15C10244   3.672   3.574  11.070 -0.1981 -0.5742 -0.0795
  102OSM    C1410245   3.736   3.430  10.863  0.8268 -0.1898 -0.3108
  102OSM   H14A10246   3.835   3.399  10.894  0.8276 -0.6110 -0.7312
  102OSM   H14B10247   3.717   3.398  10.762 -1.4833  1.5247 -0.4719
  102OSM   H14C10248   3.657   3.396  10.929  1.2621 -1.1117 -0.2657
  102OSM    C1310249   3.590   3.629  10.820  0.0450  0.6163  0.2453
  102OSM   H13A10250   3.522   3.627  10.905 -1.0710  3.3103 -0.5323
  102OSM   H13B10251   3.551   3.586  10.729 -0.4807  2.4186 -0.3893
  102OSM   H13C10252   3.608   3.734  10.804 -1.3947  0.9290  0.5414
  102OSM    C1210253   3.835   3.646  10.770  0.9846  0.1148  0.7288
  102OSM   H12A10254   3.819   3.753  10.766 -0.8285 -0.2176 -2.8510
  102OSM   H12B10255   3.832   3.613  10.667  1.5350  2.4146 -0.0613
  102OSM    C1110256   3.985   3.628  10.810  0.0741  0.5043  0.1923
  102OSM   H11A10257   4.011   3.676  10.907  0.0707  0.7277  0.0821
  102OSM   H11B10258   4.026   3.687  10.725 -0.3598  0.9372  0.2841
  102OSM      P10259   4.044   3.399  10.677  0.2180 -0.1550 -0.0313
  102OSM    O1310260   4.156   3.308  10.695 -0.5866 -0.0708  0.4670
  102OSM    O1410261   3.918   3.345  10.631 -0.1501 -0.2161 -0.1114
  102OSM    O1110262   4.079   3.506  10.568  0.2266 -0.7147 -0.0913
  102OSM    O1210263   4.023   3.491  10.800 -0.5524 -0.1005  0.3969
  102OSM    C1S10264   4.208   3.580  10.570  0.4430 -0.4702  0.1515
  102OSM    H1S10265   4.284   3.505  10.540  1.1241  0.2806 -0.0542
  102OSM    H1T10266   4.232   3.612  10.673  2.8943 -3.7968  0.7000
  102OSM     NF10267   4.360   3.759  10.457  0.4318 -0.2776  0.5129
  102OSM    HNF10268   4.357   3.857  10.474 -1.2082 -0.0024 -1.3202
  102OSM    C2S10269   4.227   3.687  10.453 -0.0858  0.0624 -0.5865
  102OSM    H2S10270   4.229   3.629  10.358  1.7962  3.2281 -2.5746
  102OSM    C3S10271   4.106   3.784  10.461  0.0238 -0.0417 -0.2902
  102OSM    H3S10272   4.104   3.846  10.553 -0.3112 -0.0299 -0.3062
  102OSM     O310273   3.975   3.723  10.462 -0.2223 -0.8305 -0.1813
  102OSM    HO310274   3.992   3.631  10.482  0.6034 -0.2574  1.9121
  102OSM    C4S10275   4.104   3.883  10.346  0.3905  0.3468 -0.6826
  102OSM    H4S10276   4.170   3.969  10.362 -0.1797  0.6340  0.1945
  102OSM    C5S10277   4.025   3.880  10.236  0.1908  0.1214 -0.3123
  102OSM    H5S10278   3.959   3.793  10.222 -0.1285  0.5330 -1.3847
  102OSM    C6S10279   4.007   3.983  10.129 -0.2929 -0.4988  0.2876
  102OSM    H6S10280   4.019   3.931  10.031 -0.0787  0.6653 -0.3115
  102OSM    H6T10281   4.074   4.071  10.128  1.0195 -1.4747  0.7590
  102OSM    C7S10282   3.868   4.055  10.130  0.3387  0.2542 -0.3975
  102OSM    H7S10283   3.857   4.117  10.222  0.2464 -2.2094  1.3037
  102OSM    H7T10284   3.784   3.982  10.130  0.0101  0.5986 -2.5255
  102OSM    C8S10285   3.837   4.148  10.019  0.2593  0.2269 -0.0341
  102OSM    H8S10286   3.924   4.217  10.012  0.4987 -0.0731 -0.0567
  102OSM    H8T10287   3.752   4.214  10.043  1.4704  1.3593  1.1803
  102OSM    C9S10288   3.800   4.073   9.883 -0.5451 -0.4667 -1.0451
  102OSM    H9S10289   3.748   3.979   9.909  2.0417 -2.2863 -2.2587
  102OSM    H9T10290   3.899   4.051   9.838  1.4698 -0.4486  3.0882
  102OSM   C10S10291   3.708   4.146   9.778 -0.1311  0.5370  0.1321
  102OSM   H10S10292   3.604   4.117   9.803  0.0096 -0.8220 -0.8259
  102OSM   H10T10293   3.729   4.095   9.682  1.2882  0.3345  0.5447
  102OSM   C11S10294   3.714   4.297   9.758  0.1595 -0.5924 -0.1135
  102OSM   H11S10295   3.819   4.319   9.727 -0.2181  0.2473 -0.8258
  102OSM   H11T10296   3.701   4.346   9.857  1.8923 -0.3683  0.0196
  102OSM   C12S10297   3.626   4.346   9.638 -0.0324 -0.4653  0.4773
  102OSM   H12S10298   3.640   4.456   9.627 -1.9782 -0.4333 -2.2138
  102OSM   H12T10299   3.523   4.323   9.672  0.1372 -0.0674  1.2779
  102OSM   C13S10300   3.644   4.293   9.497  0.1885  0.6118  0.2269
  102OSM   H13S10301   3.544   4.311   9.453 -1.6605 -2.1062  3.1506
  102OSM   H13T10302   3.659   4.183   9.488 -0.3463  0.5725 -0.2444
  102OSM   C14S10303   3.770   4.343   9.420  0.0180  0.0579 -0.1309
  102OSM   H14S10304   3.857   4.316   9.483  0.9019  0.8421 -1.0089
  102OSM   H14T10305   3.779   4.452   9.403  1.1021 -0.0683 -0.4234
  102OSM   C15S10306   3.785   4.284   9.279 -0.3100  0.1369 -0.3070
  102OSM   H15S10307   3.789   4.173   9.285  4.1432  0.2168  0.2147
  102OSM   H15T10308   3.886   4.305   9.238  1.2960 -0.3590  3.1864
  102OSM   C16S10309   3.680   4.329   9.179  0.4558 -0.1347 -0.5480
  102OSM   H16S10310   3.666   4.439   9.176  0.8560 -0.1354 -2.7745
  102OSM   H16T10311   3.577   4.300   9.209 -0.3114  1.6675 -1.3764
  102OSM   C17S10312   3.689   4.266   9.039 -0.4289 -0.1146 -0.1102
  102OSM   H17S10313   3.686   4.155   9.043  0.3807 -0.1512 -0.4305
  102OSM   H17T10314   3.776   4.314   8.990  0.2430 -1.6725 -0.4591
  102OSM   C18S10315   3.576   4.312   8.949 -0.0922  0.4555  0.2201
  102OSM   H18S10316   3.482   4.278   8.998 -0.5676  0.8766 -0.3977
  102OSM   H18T10317   3.589   4.265   8.849 -1.2931 -2.0887  1.2053
  102OSM   H18U10318   3.576   4.423   8.947  3.0463  0.4974 -0.4331
  102OSM    C1F10319   4.483   3.704  10.454 -0.1651  0.0494  0.6012
  102OSM     OF10320   4.491   3.583  10.445 -0.1367  0.5309  0.5896
  102OSM    C2F10321   4.599   3.792  10.483  0.3137  0.5200  0.6478
  102OSM    H2F10322   4.630   3.791  10.590  0.1663  1.3354  0.7064
  102OSM    H2G10323   4.577   3.900  10.466 -1.4352 -0.0245 -0.6259
  102OSM    C3F10324   4.723   3.763  10.392  1.1138  0.8764  0.3853
  102OSM    H3F10325   4.754   3.656  10.397  1.8531  1.0379 -0.5183
  102OSM    H3G10326   4.815   3.823  10.412  2.8418 -2.5254  3.2178
  102OSM    C4F10327   4.699   3.787  10.238 -0.6427 -0.1349 -0.4212
  102OSM    H4F10328   4.684   3.897  10.234  1.3590  0.1115 -1.4946
  102OSM    H4G10329   4.603   3.739  10.206 -0.7651  1.6377 -2.8196
  102OSM    C5F10330   4.814   3.747  10.144  0.2532 -0.1932  0.0917
  102OSM    H5F10331   4.832   3.638  10.158  1.3744  0.1381  1.3807
  102OSM    H5G10332   4.903   3.807  10.172 -0.0532 -0.3222  1.4035
  102OSM    C6F10333   4.756   3.748  10.000 -0.3333 -0.1452  0.2907
  102OSM    H6F10334   4.707   3.846   9.981  1.0281  0.3764 -0.6676
  102OSM    H6G10335   4.674   3.675   9.986 -0.1926 -0.3823  0.6677
  102OSM    C7F10336   4.859   3.725   9.886 -0.0957  0.9990 -0.2759
  102OSM    H7F10337   4.895   3.620   9.898 -2.8035  0.0364 -0.2657
  102OSM    H7G10338   4.949   3.789   9.894  1.2922 -0.9088 -0.1500
  102OSM    C8F10339   4.787   3.727   9.744  0.2195  0.3029  0.4586
  102OSM    H8F10340   4.708   3.804   9.742  0.0793  0.1650  0.7762
  102OSM    H8G10341   4.739   3.627   9.740  1.6721 -0.4399  1.1506
  102OSM    C9F10342   4.872   3.742   9.622 -0.2679 -0.1830  0.2855
  102OSM    H9F10343   4.952   3.668   9.610 -1.1433 -1.0463 -0.3586
  102OSM   C10F10344   4.854   3.830   9.519 -0.5085  0.1539 -0.1631
  102OSM   H10F10345   4.920   3.822   9.431  0.5947 -2.7038  0.8785
  102OSM   C11F10346   4.736   3.930   9.514 -0.3244  0.5823 -0.3226
  102OSM   H11F10347   4.778   4.031   9.534  1.2386  0.4676 -2.7674
  102OSM   H11G10348   4.649   3.910   9.580 -0.6881 -2.0290 -1.5546
  102OSM   C12F10349   4.682   3.931   9.370 -0.0929 -1.0310  0.0212
  102OSM   H12F10350   4.578   3.969   9.361  0.8171  2.3375  2.7524
  102OSM   H12G10351   4.674   3.829   9.327  0.2502 -0.8398 -0.5119
  102OSM   C13F10352   4.767   4.017   9.272 -0.4651 -0.1510 -0.4828
  102OSM   H13F10353   4.869   3.975   9.266 -1.3293 -2.3983 -0.0906
  102OSM   H13G10354   4.777   4.123   9.302  0.3626 -0.1831 -0.6407
  102OSM   C14F10355   4.695   4.024   9.133 -0.3702  0.0042  0.4412
  102OSM   H14F10356   4.589   4.053   9.146 -0.4159  0.9116 -1.7368
  102OSM   H14G10357   4.694   3.923   9.087 -0.4699  0.8352 -1.4280
  102OSM   C15F10358   4.765   4.118   9.036 -1.1294 -0.4224 -0.0935
  102OSM   H15F10359   4.838   4.050   8.987 -1.4607  0.6488 -2.0884
  102OSM   H15G10360   4.840   4.184   9.086 -0.7830  1.9416 -3.5293
  102OSM   C16F10361   4.663   4.201   8.946 -0.5140 -0.2408 -0.7614
  102OSM   H16F10362   4.579   4.241   9.006  0.3370  1.8830 -0.9327
  102OSM   H16G10363   4.622   4.128   8.873 -2.3040 -1.2699  1.2219
  102OSM   C17F10364   4.735   4.319   8.878 -0.8397 -0.0145 -0.3887
  102OSM   H17F10365   4.789   4.378   8.955  0.3811  1.4802 -2.3281
  102OSM   H17G10366   4.655   4.378   8.829 -1.2376  0.0182  0.3042
  102OSM   C18F10367   4.841   4.283   8.770  0.2555  0.2375 -0.3777
  102OSM   H18F10368   4.790   4.223   8.692  1.4939 -0.2639 -0.8034
  102OSM   H18G10369   4.926   4.231   8.819 -0.2346 -0.8985 -0.7317
  102OSM   H18H10370   4.893   4.372   8.728  1.0853  0.2505  0.6497
  103OSM      N10371   3.782   0.651  11.000 -0.5785  0.6072 -0.2141
  103OSM    C1510372   3.889   0.747  11.048  0.1358 -0.8570  0.2101
  103OSM   H15A10373   3.833   0.839  11.048  0.6168 -0.5516  1.6503
  103OSM   H15B10374   3.973   0.757  10.981  0.7508 -0.8514  0.9712
  103OSM   H15C10375   3.933   0.717  11.142  2.1008 -2.5636 -1.2123
  103OSM    C1410376   3.858   0.523  10.973  0.3795  0.2067  0.0312
  103OSM   H14A10377   3.941   0.541  10.906  0.2905  3.2222  0.6720
  103OSM   H14B10378   3.796   0.444  10.934  3.1681 -1.6244 -0.8245
  103OSM   H14C10379   3.905   0.494  11.066 -0.9831 -0.7953  0.4251
  103OSM    C1310380   3.688   0.624  11.115  0.3523  0.4850 -0.0108
  103OSM   H13A10381   3.589   0.605  11.078  0.8514  0.1053 -1.1922
  103OSM   H13B10382   3.687   0.717  11.170  0.8330  0.7503 -0.4417
  103OSM   H13C10383   3.727   0.552  11.185  0.0160  0.2239 -0.0963
  103OSM    C1210384   3.713   0.699  10.878 -0.0060 -0.1816 -0.0304
  103OSM   H12A10385   3.780   0.708  10.793 -0.7130  0.5692 -0.5161
  103OSM   H12B10386   3.660   0.790  10.904 -0.1897 -0.2421 -0.1841
  103OSM    C1110387   3.601   0.598  10.824  0.2913  0.0928  0.0837
  103OSM   H11A10388   3.647   0.500  10.799 -2.8820 -1.6348  0.7971
  103OSM   H11B10389   3.574   0.633  10.722  1.2292  0.5852 -0.0061
  103OSM      P10390   3.370   0.699  10.882  0.3296  0.0159 -0.0541
  103OSM    O1310391   3.251   0.666  10.962  0.5274  0.0585 -1.0485
  103OSM    O1410392   3.423   0.839  10.893  0.3555  0.0588 -0.0688
  103OSM    O1110393   3.348   0.655  10.733  0.1024 -0.0287  0.1257
  103OSM    O1210394   3.482   0.590  10.907 -0.0360 -0.7266 -0.0350
  103OSM    C1S10395   3.297   0.743  10.633 -0.1843 -0.1983 -0.2162
  103OSM    H1S10396   3.370   0.819  10.599 -1.3218  1.2190  0.4853
  103OSM    H1T10397   3.215   0.804  10.677 -0.1165  0.9064 -1.6030
  103OSM     NF10398   3.215   0.741  10.407  0.1258 -0.0559 -0.0547
  103OSM    HNF10399   3.118   0.756  10.386  0.7375  6.1831  0.8298
  103OSM    C2S10400   3.245   0.652  10.516 -0.3382 -0.3610 -0.4531
  103OSM    H2S10401   3.334   0.595  10.481 -0.0130 -0.8463  1.1277
  103OSM    C3S10402   3.130   0.552  10.559 -0.1116  0.0251  0.7342
  103OSM    H3S10403   3.055   0.606  10.621  1.2318  1.6343  0.9915
  103OSM     O310404   3.182   0.442  10.638  0.0154  0.5404  0.5372
  103OSM    HO310405   3.274   0.460  10.654 -0.3776  1.9876  1.2455
  103OSM    C4S10406   3.066   0.503  10.438 -0.1930  0.5126  0.5699
  103OSM    H4S10407   3.135   0.461  10.364 -0.3445  1.6540 -0.2247
  103OSM    C5S10408   2.934   0.501  10.406  0.9065  0.0206 -0.3281
  103OSM    H5S10409   2.866   0.562  10.468  0.7422 -0.4021 -0.0839
  103OSM    C6S10410   2.875   0.447  10.276  0.1060  0.4522  0.1168
  103OSM    H6S10411   2.784   0.501  10.242 -0.7395 -0.1372  1.4045
  103OSM    H6T10412   2.827   0.350  10.303 -1.3955  0.8804 -0.9672
  103OSM    C7S10413   2.968   0.434  10.157 -0.2501  0.1461  0.2004
  103OSM    H7S10414   3.062   0.388  10.195 -0.8012  0.4444  1.9751
  103OSM    H7T10415   3.002   0.536  10.126  1.5248 -0.6323 -0.5246
  103OSM    C8S10416   2.917   0.346  10.037 -0.2043  0.4050 -0.3288
  103OSM    H8S10417   2.823   0.394  10.003  0.4875  1.5123 -0.7179
  103OSM    H8T10418   2.911   0.241  10.074  3.3963  0.0520 -0.5572
  103OSM    C9S10419   3.008   0.346   9.916 -0.1246 -0.4022  0.1102
  103OSM    H9S10420   3.107   0.307   9.949  0.8178  1.6278 -0.2584
  103OSM    H9T10421   3.027   0.452   9.889 -0.5052 -0.0887  1.0530
  103OSM   C10S10422   2.950   0.257   9.806  0.8275  0.6110 -0.1136
  103OSM   H10S10423   2.853   0.302   9.773  0.2712 -0.2784  0.2858
  103OSM   H10T10424   2.934   0.156   9.847 -1.0798  0.3764 -1.3383
  103OSM   C11S10425   3.033   0.264   9.674  0.2264  0.3797 -0.0883
  103OSM   H11S10426   3.133   0.215   9.674 -0.6147 -1.4030  0.6889
  103OSM   H11T10427   3.058   0.370   9.654 -2.0261  0.9151 -0.1364
  103OSM   C12S10428   2.950   0.201   9.555 -0.3609 -0.3712  0.2606
  103OSM   H12S10429   2.872   0.278   9.535  0.4123  0.4630  0.4666
  103OSM   H12T10430   2.910   0.102   9.588  1.8239 -2.1487 -2.1876
  103OSM   C13S10431   3.040   0.185   9.433  0.0984  0.0311  0.4045
  103OSM   H13S10432   3.142   0.148   9.453  0.1434 -0.5534 -0.8536
  103OSM   H13T10433   3.052   0.284   9.384  0.2008 -0.5384 -0.7508
  103OSM   C14S10434   2.985   0.098   9.323  0.7603 -0.0972  0.2627
  103OSM   H14S10435   2.892   0.146   9.287 -0.0198  0.0708  2.4076
  103OSM   H14T10436   2.971  -0.004   9.365  1.1598  0.3299  1.4534
  103OSM   C15S10437   3.057   0.084   9.191  0.7070 -0.0620  0.1763
  103OSM   H15S10438   3.072   0.188   9.153 -2.9054  0.6484  0.4772
  103OSM   H15T10439   2.999   0.029   9.114  0.9530  3.5457 -2.7692
  103OSM   C16S10440   3.189   0.010   9.224 -0.1729  0.7503  0.6060
  103OSM   H16S10441   3.144  -0.082   9.265  0.1154 -0.9954 -2.7949
  103OSM   H16T10442   3.251   0.051   9.306  2.3614  1.5415 -1.6092
  103OSM   C17S10443   3.283  -0.006   9.104 -0.1400  0.3817 -0.0095
  103OSM   H17S10444   3.239  -0.073   9.028 -0.8588  2.0448 -1.0759
  103OSM   H17T10445   3.373  -0.054   9.148 -0.6526 -0.2310  0.3893
  103OSM   C18S10446   3.326   0.123   9.041  0.2481 -0.2902  0.2339
  103OSM   H18S10447   3.399   0.101   8.959  0.6263  1.4824  0.0659
  103OSM   H18T10448   3.373   0.189   9.117  1.1651  0.9347 -1.3356
  103OSM   H18U10449   3.243   0.182   8.997 -0.5083 -1.1176  0.5397
  103OSM    C1F10450   3.304   0.809  10.341 -0.0150 -0.0707  0.0821
  103OSM     OF10451   3.425   0.822  10.374  0.4962 -0.0237  0.1753
  103OSM    C2F10452   3.233   0.884  10.224 -0.1535 -0.1622  0.3776
  103OSM    H2F10453   3.154   0.953  10.262  0.3867  0.1414  0.9515
  103OSM    H2G10454   3.168   0.813  10.167 -1.5871  2.0335 -0.7948
  103OSM    C3F10455   3.336   0.956  10.129 -0.3624 -0.0958 -0.2057
  103OSM    H3F10456   3.428   0.895  10.119 -0.4325 -0.1353 -0.6524
  103OSM    H3G10457   3.364   1.050  10.181 -1.0080 -0.5994  1.0859
  103OSM    C4F10458   3.285   0.997   9.988  0.4583  0.3562 -0.6970
  103OSM    H4F10459   3.196   1.061  10.007  0.0968 -0.1253 -0.7953
  103OSM    H4G10460   3.251   0.903   9.940  5.0824 -0.8984 -1.7559
  103OSM    C5F10461   3.396   1.072   9.912  0.5845  0.2217  0.7182
  103OSM    H5F10462   3.491   1.033   9.954  1.0470 -0.5983 -1.0230
  103OSM    H5G10463   3.376   1.178   9.936  2.3992  0.9533 -0.9074
  103OSM    C6F10464   3.382   1.058   9.760  0.3084 -0.6748 -0.1329
  103OSM    H6F10465   3.279   1.085   9.729 -0.0980 -2.0229  0.0291
  103OSM    H6G10466   3.412   0.955   9.732 -0.3416 -1.3121  1.4394
  103OSM    C7F10467   3.484   1.152   9.691  0.2526 -0.0636  0.7145
  103OSM    H7F10468   3.586   1.111   9.707 -0.0784 -1.5704 -0.8595
  103OSM    H7G10469   3.492   1.255   9.732 -3.0665 -0.0245  1.4445
  103OSM    C8F10470   3.461   1.170   9.535 -0.3358  1.2651 -0.4373
  103OSM    H8F10471   3.350   1.173   9.526 -0.7598  1.4499  3.9167
  103OSM    H8G10472   3.498   1.075   9.490  2.6168  0.6478  3.0292
  103OSM    C9F10473   3.535   1.287   9.466  0.2159 -0.0266 -0.2236
  103OSM    H9F10474   3.620   1.320   9.526 -0.8643  1.3566  0.5747
  103OSM   C10F10475   3.494   1.346   9.357 -0.4310  0.0107  1.1071
  103OSM   H10F10476   3.559   1.429   9.324 -0.3323  0.1807  1.7216
  103OSM   C11F10477   3.370   1.307   9.279 -0.1681 -0.1185 -0.2852
  103OSM   H11F10478   3.298   1.392   9.276 -0.6932 -0.4428  2.2203
  103OSM   H11G10479   3.313   1.221   9.320 -0.8652 -0.2982 -1.5786
  103OSM   C12F10480   3.407   1.253   9.139  0.7434 -0.5289 -0.1853
  103OSM   H12F10481   3.315   1.225   9.084  1.5085 -1.2855 -1.0950
  103OSM   H12G10482   3.465   1.159   9.153  1.7489 -0.0072 -0.7762
  103OSM   C13F10483   3.481   1.352   9.042  0.2584  0.0007  0.3320
  103OSM   H13F10484   3.582   1.365   9.088 -0.0049 -0.5802  1.0916
  103OSM   H13G10485   3.436   1.453   9.041 -2.4237 -1.1567 -0.1679
  103OSM   C14F10486   3.484   1.301   8.889 -0.3214  0.4991 -0.2832
  103OSM   H14F10487   3.386   1.310   8.839 -0.3607 -1.0879 -0.5340
  103OSM   H14G10488   3.518   1.195   8.898  0.3349  0.8692  1.7808
  103OSM   C15F10489   3.599   1.357   8.811  0.0988 -0.3787 -0.4951
  103OSM   H15F10490   3.685   1.321   8.871 -0.2532  1.2825  1.0869
  103OSM   H15G10491   3.598   1.468   8.817 -1.4707 -0.4670  1.6974
  103OSM   C16F10492   3.606   1.309   8.666  0.0341 -0.4171  0.2109
  103OSM   H16F10493   3.542   1.376   8.605  1.4004  1.1729  0.4891
  103OSM   H16G10494   3.580   1.201   8.664  0.5582 -0.5210 -1.6493
  103OSM   C17F10495   3.750   1.309   8.598 -0.1139 -0.5635 -0.0236
  103OSM   H17F10496   3.806   1.238   8.663  0.3073 -2.2169 -2.1509
  103OSM   H17G10497   3.786   1.413   8.614 -2.6484  0.3873 -0.2059
  103OSM   C18F10498   3.737   1.266   8.454 -0.0009  1.2855 -0.3660
  103OSM   H18F10499   3.664   1.328   8.398 -2.0005 -1.1905 -0.5677
  103OSM   H18G10500   3.706   1.160   8.440  2.6878  0.4043  0.0516
  103OSM   H18H10501   3.833   1.292   8.403  0.5583  2.8194  1.3945
  104OSM      N10502   4.329   5.661  10.855  0.2074 -0.2846  0.0416
  104OSM    C1510503   4.237   5.751  10.928  0.2464  0.9730  0.4358
  104OSM   H15A10504   4.252   5.843  10.875 -1.2923  1.1768  0.3342
  104OSM   H15B10505   4.268   5.758  11.032  2.4072  1.4305 -0.2070
  104OSM   H15C10506   4.136   5.716  10.942 -0.2077  1.4242 -1.5175
  104OSM    C1410507   4.356   5.539  10.932  0.7900 -0.9875 -0.2168
  104OSM   H14A10508   4.399   5.572  11.026 -1.2948  1.6209 -0.1248
  104OSM   H14B10509   4.427   5.480  10.878  1.7120  1.2839 -1.5228
  104OSM   H14C10510   4.262   5.494  10.960 -0.5520  0.5397 -2.1225
  104OSM    C1310511   4.283   5.609  10.723 -0.5473  0.0748  0.6722
  104OSM   H13A10512   4.348   5.542  10.669 -0.6758  0.5887 -0.1325
  104OSM   H13B10513   4.269   5.687  10.649 -0.2296 -1.3832 -0.9492
  104OSM   H13C10514   4.186   5.562  10.731 -0.1239 -0.6458  1.6616
  104OSM    C1210515   4.465   5.724  10.837  0.7952 -0.1791  0.2032
  104OSM   H12A10516   4.534   5.642  10.841 -1.7672 -2.4137  0.4522
  104OSM   H12B10517   4.489   5.785  10.922 -0.6740  1.1826 -0.3287
  104OSM    C1110518   4.490   5.820  10.716 -0.3907 -0.4058 -0.1003
  104OSM   H11A10519   4.496   5.769  10.618 -0.4097 -0.1519 -0.2337
  104OSM   H11B10520   4.590   5.862  10.740  0.9783 -2.6358 -1.7735
  104OSM      P10521   4.393   6.062  10.756  0.3357 -0.3278  0.4913
  104OSM    O1310522   4.287   6.079  10.851 -0.4284 -0.1363  0.0679
  104OSM    O1410523   4.532   6.098  10.793 -0.2645  0.4909 -0.7919
  104OSM    O1110524   4.354   6.152  10.627 -0.2463 -0.3460 -0.0001
  104OSM    O1210525   4.390   5.916  10.699  0.4281  0.1536 -0.4588
  104OSM    C1S10526   4.412   6.280  10.597 -0.0233 -0.6049 -0.6725
  104OSM    H1S10527   4.450   6.340  10.682  0.6447 -0.6241 -0.9587
  104OSM    H1T10528   4.331   6.341  10.550  0.0574  2.2463  2.7280
  104OSM     NF10529   4.564   6.395  10.449 -0.4305  0.1541 -0.5840
  104OSM    HNF10530   4.518   6.457  10.386 -0.9581 -2.4398 -2.8247
  104OSM    C2S10531   4.511   6.259  10.478  0.1505 -1.0888 -0.3105
  104OSM    H2S10532   4.591   6.186  10.503 -0.1036 -0.8731  1.2035
  104OSM    C3S10533   4.439   6.205  10.356  0.3488 -0.5152  0.5447
  104OSM    H3S10534   4.352   6.271  10.335  1.1946  0.0321 -1.2849
  104OSM     O310535   4.383   6.081  10.386  0.6037 -0.0243 -0.5670
  104OSM    HO310536   4.364   6.082  10.480 -0.4221 -2.4859 -0.7120
  104OSM    C4S10537   4.530   6.204  10.237  0.0997  0.3103 -0.1391
  104OSM    H4S10538   4.614   6.139  10.266 -0.8015  0.3186  2.7043
  104OSM    C5S10539   4.535   6.274  10.120  0.2623 -0.4512 -0.1891
  104OSM    H5S10540   4.445   6.336  10.108  0.6486  0.4702  1.4609
  104OSM    C6S10541   4.630   6.254  10.009 -0.1888 -0.1169 -0.2366
  104OSM    H6S10542   4.705   6.335  10.000  0.0388 -0.1399  1.1913
  104OSM    H6T10543   4.578   6.250   9.911  1.0576  1.6706 -1.0026
  104OSM    C7S10544   4.721   6.137  10.016  0.1830  0.3154 -0.5817
  104OSM    H7S10545   4.664   6.048  10.050  2.3682 -0.7315  0.4190
  104OSM    H7T10546   4.795   6.159  10.095 -0.2909  0.2532 -0.1227
  104OSM    C8S10547   4.791   6.106   9.883 -0.3275 -0.6371 -0.1775
  104OSM    H8S10548   4.872   6.033   9.904  0.9246  0.2766 -1.7338
  104OSM    H8T10549   4.843   6.197   9.847 -0.1174 -0.0184  1.6497
  104OSM    C9S10550   4.692   6.055   9.774  0.1761  0.2383 -0.3727
  104OSM    H9S10551   4.606   6.124   9.762  0.2975  0.7215  1.4537
  104OSM    H9T10552   4.643   5.961   9.806 -0.5860 -0.0341 -2.2651
  104OSM   C10S10553   4.771   6.043   9.640  0.4082  0.0916  0.1339
  104OSM   H10S10554   4.849   5.974   9.680 -1.4339 -1.9303  0.3418
  104OSM   H10T10555   4.811   6.142   9.611  0.6117  0.8482  2.8404
  104OSM   C11S10556   4.699   5.986   9.516 -0.0349  0.4358  0.4816
  104OSM   H11S10557   4.618   6.054   9.483 -0.4483 -0.8127 -1.1344
  104OSM   H11T10558   4.647   5.891   9.539  0.2376  0.0519 -0.4754
  104OSM   C12S10559   4.792   5.969   9.396 -1.0232  0.2658  0.9187
  104OSM   H12S10560   4.888   5.920   9.422 -0.6882 -0.1987 -1.1001
  104OSM   H12T10561   4.813   6.069   9.353 -0.6851  0.3914  1.3854
  104OSM   C13S10562   4.721   5.896   9.283 -0.3224 -0.7194 -0.0859
  104OSM   H13S10563   4.641   5.960   9.239  0.4024  0.0293 -0.3308
  104OSM   H13T10564   4.667   5.812   9.332  1.8309 -0.7111  2.3844
  104OSM   C14S10565   4.815   5.846   9.176  0.4215 -0.3558  0.2266
  104OSM   H14S10566   4.891   5.778   9.221  1.4374  1.3185  1.0961
  104OSM   H14T10567   4.883   5.926   9.138 -1.0634  0.1519 -1.4219
  104OSM   C15S10568   4.734   5.807   9.057  0.2832 -0.8351 -0.2589
  104OSM   H15S10569   4.688   5.900   9.018 -0.5377 -0.8491  0.6651
  104OSM   H15T10570   4.650   5.741   9.089 -0.9149  0.9244  0.2726
  104OSM   C16S10571   4.805   5.755   8.934  0.6973 -0.4039  0.5473
  104OSM   H16S10572   4.841   5.656   8.968  1.7407  0.0972  0.9091
  104OSM   H16T10573   4.895   5.816   8.913 -0.2288  1.4821  1.7998
  104OSM   C17S10574   4.705   5.719   8.819  0.0216  0.0977  0.8290
  104OSM   H17S10575   4.754   5.652   8.745 -1.9458 -1.8694  1.2798
  104OSM   H17T10576   4.686   5.812   8.761 -2.2842  0.2354  1.7513
  104OSM   C18S10577   4.574   5.660   8.857  0.1391  1.2118 -0.0629
  104OSM   H18S10578   4.528   5.626   8.762 -2.3387  0.4233  1.3860
  104OSM   H18T10579   4.505   5.732   8.906 -1.5123 -0.6541  0.4055
  104OSM   H18U10580   4.584   5.581   8.934  3.2811 -0.3995 -2.0224
  104OSM    C1F10581   4.651   6.452  10.531 -0.2697 -0.1245  0.9938
  104OSM     OF10582   4.695   6.393  10.625  0.4211  0.8583  0.1848
  104OSM    C2F10583   4.687   6.595  10.510 -0.0122  0.5251 -0.2415
  104OSM    H2F10584   4.614   6.656  10.567 -0.0401  0.4126 -0.1569
  104OSM    H2G10585   4.684   6.639  10.408  1.3383  0.9241 -0.1164
  104OSM    C3F10586   4.821   6.630  10.576  0.1290 -0.6679  0.6435
  104OSM    H3F10587   4.812   6.620  10.686 -2.3322  1.0229  0.6425
  104OSM    H3G10588   4.834   6.740  10.565 -2.7237 -0.3227  0.3401
  104OSM    C4F10589   4.948   6.571  10.512  0.3607 -0.3215  0.3312
  104OSM    H4F10590   4.943   6.461  10.529  0.7609 -0.3903  0.0309
  104OSM    H4G10591   5.044   6.617  10.543  1.1921 -2.9273  1.7725
  104OSM    C5F10592   4.954   6.584  10.356  0.9178 -0.4362 -0.1381
  104OSM    H5F10593   4.936   6.690  10.328  0.0282  0.0965  2.3089
  104OSM    H5G10594   4.866   6.524  10.324  0.5350 -0.0601  0.1893
  104OSM    C6F10595   5.084   6.525  10.298 -0.4633 -0.1320 -1.0177
  104OSM    H6F10596   5.152   6.506  10.385 -2.4138 -1.0774  0.3553
  104OSM    H6G10597   5.128   6.597  10.227 -1.3143  0.2131 -1.1951
  104OSM    C7F10598   5.071   6.395  10.225  0.3131 -0.3117  0.6108
  104OSM    H7F10599   5.005   6.416  10.138  1.5677 -2.4421 -0.8872
  104OSM    H7G10600   5.013   6.331  10.295  0.3643 -2.0637 -0.8990
  104OSM    C8F10601   5.207   6.327  10.191  0.7219 -0.8025 -0.2452
  104OSM    H8F10602   5.273   6.340  10.279 -0.2752 -0.0654  0.4144
  104OSM    H8G10603   5.253   6.386  10.109  3.2484 -2.0584  0.2112
  104OSM    C9F10604   5.185   6.187  10.148 -0.5532  0.3582 -0.1846
  104OSM    H9F10605   5.180   6.113  10.229  0.5935 -0.2254 -0.6354
  104OSM   C10F10606   5.174   6.132  10.026 -0.6818  0.7268 -0.2387
  104OSM   H10F10607   5.154   6.024  10.020 -0.4180  0.6999 -0.6001
  104OSM   C11F10608   5.177   6.197   9.895 -0.2248  0.2183 -0.2364
  104OSM   H11F10609   5.165   6.307   9.908 -0.4736  0.0863  0.6391
  104OSM   H11G10610   5.095   6.161   9.829 -0.6634  1.3513 -0.3245
  104OSM   C12F10611   5.305   6.178   9.812  0.1207 -0.4146 -0.5018
  104OSM   H12F10612   5.339   6.073   9.798 -3.1952 -2.1108  3.3660
  104OSM   H12G10613   5.384   6.238   9.861  2.3580 -1.6973 -2.3869
  104OSM   C13F10614   5.295   6.252   9.681 -0.0312 -0.7395  0.0307
  104OSM   H13F10615   5.400   6.282   9.662 -0.2460  0.5242  0.7794
  104OSM   H13G10616   5.232   6.340   9.708  1.6015 -0.1114  1.8703
  104OSM   C14F10617   5.235   6.191   9.552  0.8925  1.0668 -0.1469
  104OSM   H14F10618   5.253   6.275   9.482 -2.0573  1.4667 -0.4848
  104OSM   H14G10619   5.126   6.171   9.551  1.2155 -0.9168  0.6562
  104OSM   C15F10620   5.311   6.066   9.501  0.2631  0.2084 -0.3490
  104OSM   H15F10621   5.335   5.996   9.584  1.6708  2.3521  1.0917
  104OSM   H15G10622   5.411   6.101   9.467 -0.7405  1.1368 -2.3880
  104OSM   C16F10623   5.239   5.996   9.389  0.3044  0.4419  0.6039
  104OSM   H16F10624   5.134   5.978   9.423 -0.1006 -1.1469 -1.3805
  104OSM   H16G10625   5.287   5.896   9.386  0.3157  0.4587  0.1412
  104OSM   C17F10626   5.252   6.075   9.253  0.1788  0.5604  0.3947
  104OSM   H17F10627   5.357   6.086   9.219  0.2777 -0.9929  0.1419
  104OSM   H17G10628   5.199   6.172   9.263  0.0685  0.7264 -1.5822
  104OSM   C18F10629   5.182   5.990   9.148 -0.3667  0.3303  0.1487
  104OSM   H18F10630   5.229   5.890   9.134 -1.6952 -0.1629 -0.9255
  104OSM   H18G10631   5.173   6.052   9.057 -1.1990  0.1890  0.1344
  104OSM   H18H10632   5.077   5.968   9.179 -0.5151  1.4665  0.4863
  105OSM      N10633   1.803   2.182  10.812  0.2959 -0.6694  0.1500
  105OSM    C1510634   1.833   2.038  10.801  0.1001  0.8878  0.3058
  105OSM   H15A10635   1.884   2.019  10.708 -0.3258 -0.8356  0.4060
  105OSM   H15B10636   1.744   1.978  10.800  0.8247 -0.3046  3.0538
  105OSM   H15C10637   1.899   2.002  10.879  0.8424 -0.1010 -0.7602
  105OSM    C1410638   1.711   2.196  10.932  0.2223 -0.3799 -0.8023
  105OSM   H14A10639   1.689   2.299  10.957  0.6025 -0.9611  2.0547
  105OSM   H14B10640   1.751   2.163  11.026  0.8583 -0.9018 -1.2467
  105OSM   H14C10641   1.619   2.146  10.906 -1.5262  1.2464  2.0528
  105OSM    C1310642   1.927   2.262  10.831 -0.2158  0.7441 -0.9931
  105OSM   H13A10643   1.990   2.232  10.748  2.1030 -2.0777  1.6504
  105OSM   H13B10644   1.970   2.233  10.925  1.0718 -1.5201 -2.2283
  105OSM   H13C10645   1.903   2.367  10.840 -1.6045  0.2766  0.9273
  105OSM    C1210646   1.713   2.232  10.699 -0.4782  0.4250  0.5130
  105OSM   H12A10647   1.766   2.232  10.605  2.3593 -0.8092  2.0257
  105OSM   H12B10648   1.687   2.335  10.718  0.4911  1.5637 -3.7328
  105OSM    C1110649   1.593   2.140  10.669  0.4314  0.3354  0.3276
  105OSM   H11A10650   1.626   2.034  10.660  0.3931  0.3126  0.4619
  105OSM   H11B10651   1.559   2.162  10.565  2.0276 -1.3715 -0.6028
  105OSM      P10652   1.384   2.271  10.761 -0.2831 -0.0513 -0.0194
  105OSM    O1310653   1.265   2.231  10.837 -0.2363 -0.3456 -0.0872
  105OSM    O1410654   1.458   2.388  10.816  0.6220  0.0345 -0.0050
  105OSM    O1110655   1.341   2.291  10.605 -0.2199  0.6634  0.6827
  105OSM    O1210656   1.482   2.146  10.763 -0.4047  0.0092  0.5630
  105OSM    C1S10657   1.202   2.288  10.571 -0.0565 -0.5895  0.2876
  105OSM    H1S10658   1.138   2.355  10.633 -0.6372 -1.3473  0.5215
  105OSM    H1T10659   1.155   2.191  10.600  0.2808 -2.1950 -4.1850
  105OSM     NF10660   1.032   2.326  10.391 -1.1988 -0.5382  0.2609
  105OSM    HNF10661   0.980   2.244  10.370 -0.0594 -1.2641  0.2147
  105OSM    C2S10662   1.178   2.304  10.421  0.1649 -0.2534 -0.1794
  105OSM    H2S10663   1.233   2.398  10.401  0.2644  0.0431  1.3804
  105OSM    C3S10664   1.230   2.184  10.343 -0.1767 -0.2478 -0.4043
  105OSM    H3S10665   1.152   2.108  10.368 -1.7459  1.5384  0.2233
  105OSM     O310666   1.365   2.147  10.381  0.5069 -1.3359  0.1107
  105OSM    HO310667   1.370   2.188  10.467  0.6977 -0.4884 -0.3021
  105OSM    C4S10668   1.238   2.201  10.191  0.2200  0.2656  0.3317
  105OSM    H4S10669   1.324   2.254  10.148  1.0068  0.8267  2.5346
  105OSM    C5S10670   1.168   2.136  10.100 -0.6838 -0.1135  0.4142
  105OSM    H5S10671   1.105   2.055  10.140 -1.4071  1.1409  1.8787
  105OSM    C6S10672   1.196   2.146   9.956 -0.1177 -0.0240  0.2077
  105OSM    H6S10673   1.228   2.044   9.926 -0.0901 -0.9122  3.1875
  105OSM    H6T10674   1.281   2.214   9.932  1.1566 -1.9060 -0.7187
  105OSM    C7S10675   1.075   2.192   9.874 -0.3919 -0.6253 -0.1746
  105OSM    H7S10676   1.016   2.271   9.925  0.4624  0.9958 -1.6440
  105OSM    H7T10677   0.998   2.113   9.880 -2.6168  1.4930 -0.1140
  105OSM    C8S10678   1.120   2.217   9.728 -0.0532 -0.6179 -0.0072
  105OSM    H8S10679   1.169   2.129   9.682  1.3799 -0.1880  0.6665
  105OSM    H8T10680   1.189   2.305   9.730 -2.1246  1.1045 -1.4431
  105OSM    C9S10681   1.003   2.246   9.629 -0.2692 -0.3083  0.0422
  105OSM    H9S10682   0.926   2.178   9.671  1.1439 -0.7303  2.0304
  105OSM    H9T10683   1.039   2.218   9.527 -0.6059 -1.9341  0.3648
  105OSM   C10S10684   0.958   2.393   9.637 -0.2425 -0.6216  0.4526
  105OSM   H10S10685   0.989   2.428   9.738  1.6391 -1.8777  0.3391
  105OSM   H10T10686   0.847   2.400   9.631 -0.3026 -0.0351  1.9705
  105OSM   C11S10687   1.009   2.488   9.529 -0.0859 -0.5640 -0.4737
  105OSM   H11S10688   1.120   2.480   9.518  0.1936 -0.6605  2.0673
  105OSM   H11T10689   0.986   2.591   9.563  0.5644  0.3242 -2.6712
  105OSM   C12S10690   0.949   2.475   9.388 -0.3007  0.2150  0.5052
  105OSM   H12S10691   0.841   2.497   9.401  0.1899  1.6841  2.2568
  105OSM   H12T10692   0.968   2.369   9.360 -0.3181  0.2841  0.2341
  105OSM   C13S10693   1.014   2.571   9.285  0.5804 -0.9179 -0.8120
  105OSM   H13S10694   1.123   2.552   9.284  0.6702 -0.4287 -0.5724
  105OSM   H13T10695   0.991   2.677   9.312 -1.2596 -0.9042 -2.2713
  105OSM   C14S10696   0.960   2.551   9.141 -0.1852  0.0839  0.0871
  105OSM   H14S10697   0.858   2.587   9.115 -0.7318 -1.4931  0.0254
  105OSM   H14T10698   0.955   2.441   9.125  0.8402 -0.0286  0.4558
  105OSM   C15S10699   1.059   2.590   9.031  0.1565 -0.0551  0.4494
  105OSM   H15S10700   1.161   2.567   9.068  1.1035  1.7674 -0.9731
  105OSM   H15T10701   1.074   2.700   9.023  2.2501 -0.3930 -0.7908
  105OSM   C16S10702   1.029   2.523   8.892 -0.0091  0.2930 -0.0616
  105OSM   H16S10703   0.942   2.577   8.850  0.6201  0.1673 -1.5478
  105OSM   H16T10704   1.005   2.419   8.922  0.8095  0.5012  1.3570
  105OSM   C17S10705   1.154   2.522   8.801  0.3915 -0.4597  0.1724
  105OSM   H17S10706   1.237   2.492   8.868  0.6396 -0.1331  0.0124
  105OSM   H17T10707   1.172   2.625   8.762 -1.3566  0.4014  1.5865
  105OSM   C18S10708   1.154   2.430   8.677  0.3897  0.2304 -0.3525
  105OSM   H18S10709   1.064   2.448   8.615  0.9191  1.0700 -0.8882
  105OSM   H18T10710   1.131   2.325   8.703  2.4161 -0.1269  0.0662
  105OSM   H18U10711   1.250   2.452   8.624  1.3964 -1.8233  0.5710
  105OSM    C1F10712   0.961   2.423  10.440 -0.0169  0.7086 -0.4023
  105OSM     OF10713   1.006   2.516  10.514 -0.1491  0.0615 -0.0659
  105OSM    C2F10714   0.814   2.411  10.427  0.1243  0.3437  0.4588
  105OSM    H2F10715   0.777   2.388  10.529 -2.0375 -1.8662 -0.7628
  105OSM    H2G10716   0.790   2.327  10.359  0.4793  0.5099  0.1237
  105OSM    C3F10717   0.747   2.544  10.363  0.9103 -0.5729  0.1762
  105OSM    H3F10718   0.796   2.637  10.400 -2.7981  1.1593  0.9713
  105OSM    H3G10719   0.641   2.546  10.396  0.6238 -2.2597 -0.5791
  105OSM    C4F10720   0.738   2.554  10.212 -0.0345 -0.2189  0.4113
  105OSM    H4F10721   0.649   2.606  10.171  0.8880  0.3197 -0.9392
  105OSM    H4G10722   0.728   2.453  10.167 -1.3050  0.4617 -0.8587
  105OSM    C5F10723   0.866   2.628  10.154 -0.4333  0.0928  0.3483
  105OSM    H5F10724   0.962   2.578  10.179 -0.1966  0.3557 -0.0280
  105OSM    H5G10725   0.866   2.733  10.191 -3.4258 -0.2357  1.3889
  105OSM    C6F10726   0.861   2.631   9.996 -0.0312  0.2925 -0.6907
  105OSM    H6F10727   0.868   2.530   9.950  1.4765 -0.0209  0.2135
  105OSM    H6G10728   0.953   2.686   9.967  0.5333  0.2469  1.0232
  105OSM    C7F10729   0.742   2.699   9.929  0.2085  0.0166  0.0255
  105OSM    H7F10730   0.731   2.795   9.983  2.1167 -0.2363  0.9018
  105OSM    H7G10731   0.661   2.624   9.939  0.8478 -1.3345 -4.1403
  105OSM    C8F10732   0.761   2.705   9.773  0.2832  0.2041 -0.0580
  105OSM    H8F10733   0.787   2.601   9.745  0.5627 -0.1793  1.5358
  105OSM    H8G10734   0.852   2.762   9.745 -0.2794  1.0275 -0.2104
  105OSM    C9F10735   0.637   2.746   9.703 -0.1515  0.0923  0.1715
  105OSM    H9F10736   0.554   2.760   9.773  1.1825  0.9665  1.6081
  105OSM   C10F10737   0.629   2.785   9.574 -0.1020 -0.1326 -0.2520
  105OSM   H10F10738   0.528   2.814   9.539 -0.7071 -0.1502  1.4384
  105OSM   C11F10739   0.744   2.798   9.479 -1.1289 -0.0541  0.9100
  105OSM   H11F10740   0.768   2.706   9.421  0.1620  0.3599  0.7750
  105OSM   H11G10741   0.836   2.819   9.536 -1.1784  0.3191  0.8498
  105OSM   C12F10742   0.739   2.907   9.368  0.3359 -0.6362  0.4948
  105OSM   H12F10743   0.833   2.908   9.310  0.2125  0.5490  0.2990
  105OSM   H12G10744   0.738   3.008   9.414 -0.0633 -0.7853  0.8164
  105OSM   C13F10745   0.618   2.898   9.273  0.0870 -0.2423  0.6207
  105OSM   H13F10746   0.522   2.901   9.330 -0.7492  1.1796 -0.8450
  105OSM   H13G10747   0.619   2.794   9.235  0.6747  0.1768 -0.5141
  105OSM   C14F10748   0.625   3.015   9.175  0.1855 -0.5562  0.2320
  105OSM   H14F10749   0.627   3.107   9.237 -0.2705 -1.2638  1.3063
  105OSM   H14G10750   0.526   3.031   9.127  0.5117  0.7891 -0.0187
  105OSM   C15F10751   0.739   3.026   9.079 -0.2954 -0.2413  0.0966
  105OSM   H15F10752   0.838   3.028   9.129 -1.3266  0.3992  2.1653
  105OSM   H15G10753   0.737   3.120   9.019 -1.5615 -0.4126 -0.1460
  105OSM   C16F10754   0.744   2.914   8.975 -0.4944 -0.0148  0.8783
  105OSM   H16F10755   0.727   2.823   9.038 -3.8138 -0.3276 -0.3715
  105OSM   H16G10756   0.845   2.919   8.930  0.3907 -1.7509  2.5599
  105OSM   C17F10757   0.634   2.897   8.867  0.3370 -0.1259 -0.9668
  105OSM   H17F10758   0.609   3.001   8.835 -0.3005 -0.7591 -2.5882
  105OSM   H17G10759   0.545   2.846   8.910  0.5624  0.7159  0.5323
  105OSM   C18F10760   0.670   2.814   8.745 -0.3449 -0.2380 -0.4223
  105OSM   H18F10761   0.733   2.730   8.781 -1.1590 -0.6548  0.0322
  105OSM   H18G10762   0.735   2.872   8.675  0.4829 -2.3413 -1.4415
  105OSM   H18H10763   0.578   2.780   8.694 -2.2016  0.6451  2.2523
  106OSM      N10764   6.759   1.143  11.208  0.7554  0.0632  0.5437
  106OSM    C1510765   6.614   1.164  11.220  0.6745  0.2605 -0.1152
  106OSM   H15A10766   6.579   1.251  11.275 -1.7552 -0.2289 -0.8096
  106OSM   H15B10767   6.566   1.073  11.253  0.3241  0.2976 -0.5147
  106OSM   H15C10768   6.570   1.177  11.123  1.7284  0.3490 -0.5858
  106OSM    C1410769   6.835   1.164  11.335 -0.3586 -0.2263  0.3396
  106OSM   H14A10770   6.849   1.078  11.399 -1.9544  0.3942  1.5439
  106OSM   H14B10771   6.780   1.237  11.393 -0.7849  0.4119 -0.8534
  106OSM   H14C10772   6.938   1.191  11.322  0.3528 -3.5884 -1.6128
  106OSM    C1310773   6.776   0.994  11.178 -0.2217 -0.3460 -0.6784
  106OSM   H13A10774   6.882   0.976  11.177 -0.3049 -1.0009  1.5250
  106OSM   H13B10775   6.740   0.986  11.076 -0.1510  3.2031 -1.0682
  106OSM   H13C10776   6.720   0.941  11.254  0.5062  1.8867  1.4680
  106OSM    C1210777   6.829   1.226  11.103  0.0198  0.1741  0.9842
  106OSM   H12A10778   6.933   1.199  11.101 -0.1012 -0.2744  0.7344
  106OSM   H12B10779   6.834   1.329  11.134 -2.4031 -0.0547  2.3103
  106OSM    C1110780   6.775   1.214  10.962 -0.2018  0.2197 -0.2172
  106OSM   H11A10781   6.835   1.288  10.904  2.8450 -0.5109  1.8968
  106OSM   H11B10782   6.669   1.249  10.956 -0.7454 -1.1638  1.2258
  106OSM      P10783   6.736   1.062  10.745 -0.3424  0.4140  0.0309
  106OSM    O1310784   6.759   0.920  10.704 -0.0944 -0.0555  0.2677
  106OSM    O1410785   6.606   1.116  10.710  0.0602  0.1397 -0.0717
  106OSM    O1110786   6.844   1.152  10.681  0.1480 -0.0366 -0.6589
  106OSM    O1210787   6.777   1.084  10.904  0.2262 -0.1231 -0.3243
  106OSM    C1S10788   6.899   1.140  10.552  0.6419 -0.4810 -0.0371
  106OSM    H1S10789   6.840   1.061  10.501 -0.3706 -0.3880  0.9736
  106OSM    H1T10790   7.001   1.097  10.560  1.0656  0.4415 -0.4077
  106OSM     NF10791   6.912   1.252  10.340 -0.0616 -0.0706  0.4307
  106OSM    HNF10792   6.990   1.297  10.298  0.1159 -0.8418 -0.0858
  106OSM    C2S10793   6.897   1.274  10.482 -0.2811  0.2723 -0.3715
  106OSM    H2S10794   6.795   1.313  10.503 -0.5612 -0.1572 -0.9477
  106OSM    C3S10795   7.005   1.369  10.535  0.1051 -0.4019  0.3290
  106OSM    H3S10796   7.101   1.328  10.496 -0.0637 -0.2915 -0.2085
  106OSM     O310797   7.007   1.391  10.674 -0.0311  0.4492  0.3372
  106OSM    HO310798   6.927   1.345  10.702 -1.8579  2.6068 -1.1274
  106OSM    C4S10799   7.004   1.500  10.462 -0.5204  0.4742 -0.2383
  106OSM    H4S10800   7.091   1.533  10.403 -0.9189  0.5329 -0.7931
  106OSM    C5S10801   6.925   1.603  10.478 -0.0586 -0.9155  0.3836
  106OSM    H5S10802   6.845   1.585  10.551  0.7671 -1.6139  1.1169
  106OSM    C6S10803   6.936   1.740  10.414  0.1060 -0.9692  0.3582
  106OSM    H6S10804   7.007   1.809  10.464  0.2875  0.1209 -1.3595
  106OSM    H6T10805   6.837   1.791  10.410 -0.0539 -1.3970 -1.9744
  106OSM    C7S10806   6.964   1.747  10.259  0.1221 -0.0248 -0.3612
  106OSM    H7S10807   6.880   1.692  10.212 -0.7785  0.5732  0.5110
  106OSM    H7T10808   7.063   1.707  10.228 -0.2454 -1.5461  0.4002
  106OSM    C8S10809   6.953   1.891  10.194  0.1856  0.0159 -0.1432
  106OSM    H8S10810   7.010   1.957  10.262  0.4681  0.4747 -0.8144
  106OSM    H8T10811   6.846   1.921  10.187  0.2889  0.4780  0.1930
  106OSM    C9S10812   7.008   1.893  10.049  0.5822  0.1224 -0.7488
  106OSM    H9S10813   7.113   1.858  10.039  1.2150  2.5463 -3.2940
  106OSM    H9T10814   7.007   2.000  10.019  0.2361  0.0858 -0.8697
  106OSM   C10S10815   6.921   1.810   9.949 -0.6557 -0.4380  0.0253
  106OSM   H10S10816   6.813   1.823   9.973 -0.6062 -1.0759  0.6310
  106OSM   H10T10817   6.948   1.703   9.965  0.7061 -0.1952 -0.6063
  106OSM   C11S10818   6.933   1.850   9.806 -0.6169  0.3650 -0.0553
  106OSM   H11S10819   6.873   1.772   9.756  0.0137  0.2756 -0.6839
  106OSM   H11T10820   7.035   1.825   9.771 -0.3889  1.3636 -0.1329
  106OSM   C12S10821   6.881   1.987   9.754 -0.8336  0.5097 -0.0824
  106OSM   H12S10822   6.954   2.060   9.795  1.2863 -0.8471 -1.3272
  106OSM   H12T10823   6.783   1.996   9.804 -1.0295  0.5691 -0.4741
  106OSM   C13S10824   6.886   2.006   9.600 -0.0803 -0.7154 -0.3075
  106OSM   H13S10825   6.852   2.108   9.571 -0.5013 -0.9642 -0.6727
  106OSM   H13T10826   6.824   1.923   9.562 -0.7843  1.1513 -3.3707
  106OSM   C14S10827   7.031   1.990   9.549 -0.2229  0.0111 -0.3684
  106OSM   H14S10828   7.045   1.881   9.531  3.4007  0.5495 -1.2236
  106OSM   H14T10829   7.090   2.021   9.638 -1.0811 -1.8298  0.8866
  106OSM   C15S10830   7.056   2.060   9.418 -0.1811 -0.4199 -0.1869
  106OSM   H15S10831   7.167   2.066   9.410 -0.1145 -1.0166  0.1991
  106OSM   H15T10832   7.009   2.160   9.433 -0.6464 -0.8769  1.5015
  106OSM   C16S10833   6.992   1.994   9.298 -0.5685 -0.8330 -0.4550
  106OSM   H16S10834   6.883   1.987   9.317 -0.1542 -0.8797  2.2285
  106OSM   H16T10835   7.028   1.889   9.284 -1.8521 -1.3541  0.1001
  106OSM   C17S10836   7.033   2.065   9.170  0.7491  0.9600  0.5591
  106OSM   H17S10837   6.986   2.004   9.089  1.4985 -1.7595  2.0999
  106OSM   H17T10838   7.141   2.041   9.164  0.6718  0.4440  1.1858
  106OSM   C18S10839   7.008   2.217   9.155 -0.0250  0.2235 -0.3909
  106OSM   H18S10840   7.017   2.276   9.249 -0.2560 -0.2970 -0.0368
  106OSM   H18T10841   6.909   2.235   9.109 -1.2401 -0.2908  1.9451
  106OSM   H18U10842   7.083   2.255   9.082  0.9443  1.0479  0.9816
  106OSM    C1F10843   6.823   1.176  10.272 -0.7541  0.1142  0.5972
  106OSM     OF10844   6.715   1.155  10.322 -0.0758 -0.0874 -0.1236
  106OSM    C2F10845   6.862   1.124  10.134  0.1469  0.0470 -0.0777
  106OSM    H2F10846   6.849   1.013  10.127  0.3433 -0.1030  1.8345
  106OSM    H2G10847   6.971   1.142  10.125  0.1025  1.0659  1.3360
  106OSM    C3F10848   6.800   1.191  10.015  0.0024  1.0039 -0.0464
  106OSM    H3F10849   6.814   1.301  10.024  0.7784  0.8259  1.0016
  106OSM    H3G10850   6.692   1.169  10.014  0.0644  0.2858  3.2439
  106OSM    C4F10851   6.854   1.135   9.876  0.6117 -0.0120 -0.4009
  106OSM    H4F10852   6.814   1.033   9.858 -1.6596  0.6297  0.8284
  106OSM    H4G10853   6.964   1.137   9.868  0.7374 -3.0564  0.1177
  106OSM    C5F10854   6.801   1.229   9.757  0.1474 -0.2613  0.3124
  106OSM    H5F10855   6.839   1.333   9.761  0.4184 -0.3536  0.2119
  106OSM    H5G10856   6.690   1.224   9.761  0.0775  0.4490 -0.4530
  106OSM    C6F10857   6.830   1.164   9.616 -0.0522  0.3287  0.2383
  106OSM    H6F10858   6.782   1.064   9.606  2.2083 -0.6264 -1.2854
  106OSM    H6G10859   6.939   1.148   9.599 -0.2646 -0.0207 -0.8610
  106OSM    C7F10860   6.787   1.250   9.494  0.1219 -0.1680 -0.6373
  106OSM    H7F10861   6.835   1.350   9.486  4.2630 -1.8691  1.1880
  106OSM    H7G10862   6.681   1.273   9.515 -0.0344 -0.7538 -0.7674
  106OSM    C8F10863   6.787   1.162   9.369  0.0254 -0.2936 -0.1141
  106OSM    H8F10864   6.726   1.073   9.397 -0.5709  0.7037  1.8387
  106OSM    H8G10865   6.892   1.138   9.340 -0.3203 -1.8853 -0.1172
  106OSM    C9F10866   6.727   1.240   9.258  0.2661  0.3947  0.2994
  106OSM    H9F10867   6.631   1.289   9.277  0.3105  1.1638 -1.3767
  106OSM   C10F10868   6.773   1.262   9.129  0.2570 -0.0768  0.0951
  106OSM   H10F10869   6.708   1.321   9.062 -0.1840 -1.0589 -0.3423
  106OSM   C11F10870   6.892   1.198   9.067  0.4926  0.8520  0.4576
  106OSM   H11F10871   6.912   1.096   9.106  1.2487  1.2048  1.0206
  106OSM   H11G10872   6.980   1.258   9.100  0.5318  0.0020  1.9276
  106OSM   C12F10873   6.878   1.175   8.916 -0.1422 -0.8792 -0.0155
  106OSM   H12F10874   6.961   1.115   8.871  0.2081 -0.6369  0.3051
  106OSM   H12G10875   6.888   1.271   8.860  0.5607 -1.1164 -0.3026
  106OSM   C13F10876   6.756   1.103   8.873 -0.5331 -0.2084  0.1288
  106OSM   H13F10877   6.676   1.130   8.945 -1.6204 -0.3815 -0.9957
  106OSM   H13G10878   6.774   0.994   8.879 -2.2098 -0.8176 -3.8235
  106OSM   C14F10879   6.702   1.127   8.728 -0.7684  0.1634 -0.4947
  106OSM   H14F10880   6.753   1.080   8.641 -0.7302  0.7439 -0.7908
  106OSM   H14G10881   6.700   1.237   8.713  2.9523  0.5762  1.3015
  106OSM   C15F10882   6.559   1.073   8.714  0.4883 -0.3018  0.5375
  106OSM   H15F10883   6.488   1.142   8.765  2.6966  3.0203 -0.6564
  106OSM   H15G10884   6.559   0.977   8.770  1.6941  0.9443  2.7944
  106OSM   C16F10885   6.515   1.058   8.569 -0.0412 -0.0970  0.4238
  106OSM   H16F10886   6.584   1.099   8.493 -0.0723  1.8275  1.4106
  106OSM   H16G10887   6.423   1.118   8.551 -0.0651 -0.2496  0.0320
  106OSM   C17F10888   6.484   0.912   8.536  0.2114 -0.2286  0.0639
  106OSM   H17F10889   6.412   0.876   8.613  0.5558  1.0963  1.0285
  106OSM   H17G10890   6.577   0.854   8.549 -0.2230 -1.4496 -2.1634
  106OSM   C18F10891   6.417   0.888   8.400 -0.3538 -0.1584  0.3105
  106OSM   H18F10892   6.343   0.970   8.388  1.6334  1.7220  0.5406
  106OSM   H18G10893   6.362   0.791   8.402  0.8467 -0.8382  2.0993
  106OSM   H18H10894   6.487   0.893   8.314 -0.6721  2.0754  0.1740
  107OSM      N10895   3.904   6.807  10.910 -0.0505 -0.5695 -0.1692
  107OSM    C1510896   3.838   6.748  10.790  0.2289  0.7308  0.6230
  107OSM   H15A10897   3.747   6.702  10.825 -0.2173 -0.5278 -2.0598
  107OSM   H15B10898   3.906   6.671  10.757 -0.1788  1.3280 -1.6808
  107OSM   H15C10899   3.820   6.814  10.707 -1.4848 -0.1891  0.2614
  107OSM    C1410900   3.947   6.691  10.995  0.6599  0.1992 -0.3984
  107OSM   H14A10901   3.864   6.622  11.000 -0.0297  1.1679  2.6268
  107OSM   H14B10902   3.979   6.713  11.096 -0.2450 -1.5271  0.2907
  107OSM   H14C10903   4.025   6.633  10.948  0.4167 -1.0911  0.7323
  107OSM    C1310904   4.020   6.887  10.869 -0.7825  0.6408  0.1899
  107OSM   H13A10905   3.978   6.967  10.809 -0.3551  0.2490 -0.6500
  107OSM   H13B10906   4.090   6.830  10.810 -0.1458 -0.3673  1.8885
  107OSM   H13C10907   4.080   6.939  10.941  0.9482  1.3774 -1.7196
  107OSM    C1210908   3.806   6.887  10.994  0.7627 -0.1990 -0.2818
  107OSM   H12A10909   3.782   6.971  10.932  1.0535 -0.2433 -0.4583
  107OSM   H12B10910   3.850   6.920  11.087 -0.4518 -4.4563  1.9275
  107OSM    C1110911   3.679   6.805  11.032  0.5466  0.0529  0.4933
  107OSM   H11A10912   3.636   6.840  11.128  0.1539  1.7646 -0.2940
  107OSM   H11B10913   3.701   6.697  11.050  0.0117  0.1754  1.8878
  107OSM      P10914   3.451   6.725  10.918 -0.0229 -0.0757  0.1668
  107OSM    O1310915   3.486   6.583  10.936  0.1711  0.2012  0.4284
  107OSM    O1410916   3.349   6.782  11.005 -0.1016  0.9881  0.0701
  107OSM    O1110917   3.398   6.744  10.770  0.2749  0.2808 -0.0630
  107OSM    O1210918   3.584   6.810  10.921 -0.0090 -0.3621  0.3656
  107OSM    C1S10919   3.492   6.737  10.661 -0.0949  0.4025 -0.2768
  107OSM    H1S10920   3.535   6.634  10.657 -0.7800 -0.0487  2.4987
  107OSM    H1T10921   3.570   6.813  10.680  0.4355 -0.4325  1.0324
  107OSM     NF10922   3.550   6.818  10.446 -0.9481  0.0657 -0.1495
  107OSM    HNF10923   3.557   6.915  10.429  0.2196  0.0677  0.3385
  107OSM    C2S10924   3.437   6.781  10.522 -0.3405 -0.3370 -0.0826
  107OSM    H2S10925   3.392   6.688  10.479 -0.0007  0.5830 -2.5230
  107OSM    C3S10926   3.319   6.881  10.537  0.5441  0.5232  0.0112
  107OSM    H3S10927   3.347   6.978  10.583 -0.0104 -0.3186  2.1881
  107OSM     O310928   3.220   6.837  10.629  0.0520  0.2873  1.0072
  107OSM    HO310929   3.278   6.787  10.687  0.0316 -1.7405 -0.6967
  107OSM    C4S10930   3.262   6.914  10.402  0.4917 -0.0973 -0.0677
  107OSM    H4S10931   3.296   7.016  10.379 -2.0007  0.3998 -1.7044
  107OSM    C5S10932   3.178   6.836  10.327  0.0905 -0.0172  0.2318
  107OSM    H5S10933   3.161   6.731  10.355 -1.2172  0.3282  0.7637
  107OSM    C6S10934   3.123   6.864  10.190 -0.1124  0.2731 -0.3049
  107OSM    H6S10935   3.184   6.919  10.115  2.2942 -1.1301  0.5508
  107OSM    H6T10936   3.032   6.927  10.192 -0.5343 -0.3744  1.4237
  107OSM    C7S10937   3.069   6.734  10.126 -0.1686 -0.5072 -0.0953
  107OSM    H7S10938   2.989   6.697  10.194  0.0390 -0.6212  0.0911
  107OSM    H7T10939   3.159   6.668  10.128 -0.6164 -1.1543 -0.8368
  107OSM    C8S10940   3.010   6.756   9.988 -0.3005 -0.7835  0.8382
  107OSM    H8S10941   3.075   6.815   9.920 -2.6029 -0.4712 -1.1929
  107OSM    H8T10942   2.908   6.801   9.987 -1.0388 -2.1190 -4.7433
  107OSM    C9S10943   3.001   6.623   9.913  0.1182 -0.3238 -0.1102
  107OSM    H9S10944   2.958   6.554   9.989 -0.5392  1.4587  1.1970
  107OSM    H9T10945   3.101   6.582   9.890 -0.9498 -2.0360 -1.8905
  107OSM   C10S10946   2.925   6.644   9.782 -0.0694 -0.0857 -0.5241
  107OSM   H10S10947   2.986   6.717   9.724 -0.8089 -2.0020 -3.8538
  107OSM   H10T10948   2.830   6.694   9.811  0.3148  0.1863  0.2652
  107OSM   C11S10949   2.908   6.517   9.696  0.1430 -0.1341  0.2947
  107OSM   H11S10950   2.830   6.449   9.737  0.6277 -1.9852 -1.7483
  107OSM   H11T10951   3.000   6.456   9.682  0.2158  0.2398 -0.8936
  107OSM   C12S10952   2.889   6.556   9.546 -0.5114  0.3503 -0.1377
  107OSM   H12S10953   2.975   6.624   9.524  0.3742  0.1040  2.4131
  107OSM   H12T10954   2.796   6.614   9.531 -2.0822 -2.5359 -2.0009
  107OSM   C13S10955   2.897   6.439   9.446  0.1070 -0.2017  0.5246
  107OSM   H13S10956   2.818   6.370   9.483 -0.4640  1.0505  1.6490
  107OSM   H13T10957   2.999   6.396   9.453  0.2234 -0.6925 -3.1324
  107OSM   C14S10958   2.878   6.486   9.298 -0.4116  0.0509  0.6255
  107OSM   H14S10959   2.973   6.526   9.257  0.5731 -1.4852  1.3371
  107OSM   H14T10960   2.798   6.562   9.311  0.3162  1.1215 -1.0925
  107OSM   C15S10961   2.854   6.375   9.197  0.3824 -0.0481 -0.5754
  107OSM   H15S10962   2.764   6.313   9.217  0.4257  0.7165  2.2413
  107OSM   H15T10963   2.934   6.298   9.208 -0.3470 -0.4823  2.3141
  107OSM   C16S10964   2.824   6.414   9.053  0.8418  0.0995  0.1762
  107OSM   H16S10965   2.914   6.454   9.003  0.9344  0.4738  0.6409
  107OSM   H16T10966   2.742   6.489   9.049  2.5354  1.9201 -0.5934
  107OSM   C17S10967   2.788   6.291   8.971 -0.9867  0.2122  0.4135
  107OSM   H17S10968   2.762   6.324   8.868  0.3494 -0.0744 -0.0177
  107OSM   H17T10969   2.700   6.255   9.029  0.8192 -1.1690  2.3354
  107OSM   C18S10970   2.892   6.181   8.952 -0.2836 -0.1133 -0.0400
  107OSM   H18S10971   2.857   6.087   8.906 -0.9692 -0.0883  0.4294
  107OSM   H18T10972   2.939   6.159   9.050  0.2499  0.4965 -0.1543
  107OSM   H18U10973   2.974   6.217   8.886  0.2152  0.5962  0.9500
  107OSM    C1F10974   3.649   6.733  10.412 -0.7547  0.8311  0.6104
  107OSM     OF10975   3.635   6.612  10.416 -0.3633 -0.0466  0.4410
  107OSM    C2F10976   3.777   6.801  10.369 -0.6393 -0.6198 -0.5767
  107OSM    H2F10977   3.840   6.818  10.459  0.2622 -0.5035 -1.2288
  107OSM    H2G10978   3.749   6.906  10.344 -0.6984 -0.7835 -1.1917
  107OSM    C3F10979   3.857   6.721  10.271  0.3634 -0.2734 -0.1578
  107OSM    H3F10980   3.871   6.616  10.303 -0.4590 -0.6147 -0.8587
  107OSM    H3G10981   3.952   6.777  10.263 -1.1994  2.3485 -1.2348
  107OSM    C4F10982   3.810   6.721  10.126 -0.5888  0.1692 -0.4602
  107OSM    H4F10983   3.775   6.827  10.121 -1.8173 -0.3117 -2.3168
  107OSM    H4G10984   3.719   6.659  10.118  0.8498 -1.8816 -1.1733
  107OSM    C5F10985   3.920   6.696  10.024 -1.1294 -0.1918  0.1999
  107OSM    H5F10986   3.872   6.654   9.933 -1.9773  0.6901  0.2269
  107OSM    H5G10987   3.991   6.618  10.058 -1.3762 -0.3190  0.4229
  107OSM    C6F10988   3.996   6.821   9.976  0.0608  0.5342 -0.2236
  107OSM    H6F10989   4.065   6.851  10.058  0.2792 -0.8265  0.1081
  107OSM    H6G10990   3.916   6.894   9.952 -0.1080 -0.0876 -1.5447
  107OSM    C7F10991   4.095   6.800   9.855 -1.1402 -0.1450  0.1331
  107OSM    H7F10992   4.149   6.708   9.887  0.8142  0.4076 -1.4948
  107OSM    H7G10993   4.169   6.881   9.841  1.6118 -2.8675 -1.7116
  107OSM    C8F10994   4.027   6.770   9.716  0.7578  0.3987  0.2212
  107OSM    H8F10995   3.950   6.692   9.734 -0.1868  1.0398 -0.9527
  107OSM    H8G10996   4.102   6.729   9.646  0.6490  0.0187  0.3260
  107OSM    C9F10997   3.969   6.900   9.665 -0.6226  0.1644 -0.0088
  107OSM    H9F10998   4.043   6.980   9.647  0.0125 -0.3259  0.4098
  107OSM   C10F10999   3.846   6.930   9.646  0.1333  0.2917 -0.0314
  107OSM   H10F11000   3.827   7.023   9.590 -0.2561  1.2547  1.6654
  107OSM   C11F11001   3.734   6.838   9.677 -0.2216 -0.1843  0.7151
  107OSM   H11F11002   3.656   6.903   9.722 -1.3440 -0.8780 -0.2106
  107OSM   H11G11003   3.752   6.759   9.753  1.4464 -0.3504  0.1704
  107OSM   C12F11004   3.669   6.770   9.552 -0.1371 -0.0198  0.4248
  107OSM   H12F11005   3.741   6.714   9.487  0.9718  4.4907 -2.4554
  107OSM   H12G11006   3.619   6.842   9.484  0.1103  0.8639  1.1740
  107OSM   C13F11007   3.549   6.685   9.602 -0.6539 -0.0898 -0.6977
  107OSM   H13F11008   3.497   6.765   9.659  1.0635 -0.1906  1.0775
  107OSM   H13G11009   3.570   6.620   9.690  0.8664  2.2813  0.7341
  107OSM   C14F11010   3.451   6.620   9.495 -0.3509  0.1699 -0.5327
  107OSM   H14F11011   3.420   6.713   9.444  0.8480  2.5817  2.9637
  107OSM   H14G11012   3.370   6.571   9.554 -0.1613  1.0029  0.4266
  107OSM   C15F11013   3.520   6.525   9.396 -0.0498  0.6104 -0.4662
  107OSM   H15F11014   3.584   6.451   9.451  0.9571 -1.5181 -4.3252
  107OSM   H15G11015   3.592   6.575   9.328  0.3697  1.5335  0.6207
  107OSM   C16F11016   3.425   6.444   9.308  1.3023  0.0352  0.7590
  107OSM   H16F11017   3.353   6.521   9.273  1.3839 -0.3541 -0.2796
  107OSM   H16G11018   3.382   6.366   9.374 -1.6160 -1.6167 -2.9133
  107OSM   C17F11019   3.495   6.397   9.177 -0.2721 -0.1364 -0.1173
  107OSM   H17F11020   3.588   6.341   9.198 -2.5399 -4.2141 -0.3891
  107OSM   H17G11021   3.530   6.486   9.121 -1.5405  0.3444 -0.1682
  107OSM   C18F11022   3.406   6.314   9.089  0.4420  0.6535 -0.3565
  107OSM   H18F11023   3.330   6.382   9.047 -0.5783  0.2437  0.7869
  107OSM   H18G11024   3.360   6.229   9.144 -0.0082  1.9043  1.2335
  107OSM   H18H11025   3.460   6.260   9.008  0.2257  2.2300 -1.5632
  108OSM      N11026   0.391   6.304  10.628 -0.2077 -0.3514  0.3367
  108OSM    C1511027   0.472   6.392  10.714  0.1939 -0.5392 -0.6394
  108OSM   H15A11028   0.414   6.482  10.727  0.9622 -0.2063  0.5628
  108OSM   H15B11029   0.567   6.422  10.673  0.1566  0.1697 -0.2124
  108OSM   H15C11030   0.494   6.336  10.803 -0.0338  0.2044 -0.1126
  108OSM    C1411031   0.490   6.197  10.589  0.1945 -0.4326  0.1144
  108OSM   H14A11032   0.539   6.149  10.672 -1.7435 -1.6432  0.5933
  108OSM   H14B11033   0.556   6.234  10.512 -0.2951 -1.7358 -0.9595
  108OSM   H14C11034   0.438   6.123  10.530  0.7494 -0.1133 -0.7869
  108OSM    C1311035   0.285   6.253  10.714 -0.2458 -0.7039  1.5413
  108OSM   H13A11036   0.326   6.203  10.800 -0.4734 -0.4107  1.8193
  108OSM   H13B11037   0.222   6.178  10.670 -2.1062  1.7743 -0.1328
  108OSM   H13C11038   0.219   6.333  10.744  2.2437  1.2699  1.9102
  108OSM    C1211039   0.330   6.374  10.508  0.2739  1.1730 -0.0943
  108OSM   H12A11040   0.253   6.312  10.466 -0.6080  2.3174 -0.2108
  108OSM   H12B11041   0.413   6.394  10.442  0.7217  0.9458  0.3965
  108OSM    C1111042   0.260   6.512  10.531 -0.1120 -0.2303 -0.3273
  108OSM   H11A11043   0.179   6.521  10.606 -0.2803  1.0308 -0.6511
  108OSM   H11B11044   0.205   6.530  10.437  0.3880 -0.8841 -0.7488
  108OSM      P11045   0.430   6.697  10.472 -0.0816  0.5925  0.0972
  108OSM    O1311046   0.482   6.818  10.538 -0.5295  0.2965  0.6282
  108OSM    O1411047   0.531   6.595  10.419 -0.1355 -0.0508 -0.3958
  108OSM    O1111048   0.334   6.735  10.357 -0.8083 -0.4805  0.2110
  108OSM    O1211049   0.346   6.616  10.572 -0.0505 -0.3275  0.0816
  108OSM    C1S11050   0.236   6.833  10.378 -0.2579 -0.5144  0.2914
  108OSM    H1S11051   0.284   6.925  10.417  0.1762 -0.3380 -0.6608
  108OSM    H1T11052   0.153   6.802  10.445 -2.7287  2.1429 -1.4266
  108OSM     NF11053   0.056   6.974  10.267 -0.4029  0.1705 -0.0473
  108OSM    HNF11054  -0.037   6.953  10.239 -1.2051  2.4714  0.7567
  108OSM    C2S11055   0.162   6.872  10.241  0.8123  0.3080  0.0119
  108OSM    H2S11056   0.239   6.912  10.171  2.5699 -0.3724  1.5107
  108OSM    C3S11057   0.098   6.746  10.174 -0.5156 -0.3243  0.4130
  108OSM    H3S11058   0.012   6.720  10.239 -1.6550  1.1753 -0.4800
  108OSM     O311059   0.183   6.634  10.173  0.1571  0.1907 -0.1183
  108OSM    HO311060   0.254   6.655  10.233  0.4997  2.0571 -1.1387
  108OSM    C4S11061   0.048   6.784  10.044 -0.8288  0.4620 -0.3793
  108OSM    H4S11062  -0.062   6.793  10.049 -1.1615 -2.2188 -1.6372
  108OSM    C5S11063   0.123   6.775   9.930  0.3387 -0.1484 -0.1833
  108OSM    H5S11064   0.221   6.729   9.945 -0.0105 -1.1664 -0.9229
  108OSM    C6S11065   0.083   6.799   9.787  0.7147  0.7890 -0.4562
  108OSM    H6S11066   0.107   6.716   9.717  0.3952 -0.9829  1.4779
  108OSM    H6T11067   0.151   6.877   9.745  0.8880  0.5083 -0.6967
  108OSM    C7S11068  -0.061   6.843   9.754  0.1628  0.2122  0.0139
  108OSM    H7S11069  -0.081   6.945   9.794 -0.9963 -0.2363  0.5973
  108OSM    H7T11070  -0.138   6.787   9.811  1.5079 -2.1060 -0.3892
  108OSM    C8S11071  -0.097   6.833   9.603 -0.2442  0.2160 -0.0901
  108OSM    H8S11072  -0.197   6.882   9.603 -0.2771  0.1498 -0.0936
  108OSM    H8T11073  -0.118   6.725   9.586  0.0996 -0.1564  1.6966
  108OSM    C9S11074  -0.013   6.925   9.509  0.5040  0.1640  0.3997
  108OSM    H9S11075   0.089   6.882   9.514  0.8166  1.0187  1.9460
  108OSM    H9T11076  -0.004   7.022   9.562  0.5688 -0.0606  0.8018
  108OSM   C10S11077  -0.060   6.935   9.365  0.0266 -0.0671  0.3329
  108OSM   H10S11078   0.013   6.989   9.300 -1.4937 -0.6505 -1.8895
  108OSM   H10T11079  -0.153   6.995   9.369 -0.0872 -0.1871 -0.4154
  108OSM   C11S11080  -0.070   6.797   9.302  0.6002  0.5241 -0.0989
  108OSM   H11S11081  -0.138   6.728   9.355  0.0359  0.8398 -0.4021
  108OSM   H11T11082   0.028   6.746   9.315 -0.4746 -1.2719  1.0573
  108OSM   C12S11083  -0.101   6.818   9.150 -0.0660 -0.0133  0.0143
  108OSM   H12S11084  -0.025   6.888   9.109  0.8091 -0.3716  0.9627
  108OSM   H12T11085  -0.200   6.857   9.121 -1.3540 -2.8171  0.4135
  108OSM   C13S11086  -0.096   6.684   9.070  0.1736  0.1388 -0.4204
  108OSM   H13S11087  -0.184   6.625   9.105  1.3872 -1.9080 -0.7548
  108OSM   H13T11088  -0.006   6.635   9.112 -0.5959  1.1206  2.5673
  108OSM   C14S11089  -0.093   6.705   8.917 -1.1770 -0.3147  0.1379
  108OSM   H14S11090  -0.007   6.772   8.895 -0.2857 -1.6594 -0.5504
  108OSM   H14T11091  -0.189   6.752   8.885 -1.7056 -1.4854 -0.0494
  108OSM   C15S11092  -0.085   6.567   8.845 -0.1247  0.2180  0.4537
  108OSM   H15S11093  -0.011   6.503   8.897  0.0141  1.0397  1.2770
  108OSM   H15T11094  -0.055   6.581   8.739  1.1536  1.8211  0.9866
  108OSM   C16S11095  -0.210   6.478   8.843  0.4273 -0.5777 -0.3214
  108OSM   H16S11096  -0.292   6.520   8.781  2.9353 -0.9678 -4.0546
  108OSM   H16T11097  -0.255   6.462   8.943  2.6527 -3.4523  0.3037
  108OSM   C17S11098  -0.179   6.338   8.790 -0.6659 -0.1725 -0.1031
  108OSM   H17S11099  -0.100   6.292   8.854  1.3941  0.7805 -1.8987
  108OSM   H17T11100  -0.142   6.343   8.686  0.7909  1.6624  0.4760
  108OSM   C18S11101  -0.301   6.252   8.794 -0.3303 -0.2377  0.1709
  108OSM   H18S11102  -0.385   6.300   8.740 -0.6576 -2.0963 -1.0324
  108OSM   H18T11103  -0.321   6.229   8.900 -2.0747 -2.5401 -0.6109
  108OSM   H18U11104  -0.277   6.167   8.726 -0.3744 -0.1777  0.0776
  108OSM    C1F11105   0.079   7.098  10.313  0.0841 -0.1607 -0.3228
  108OSM     OF11106   0.185   7.137  10.350 -0.8823 -0.3308 -0.0956
  108OSM    C2F11107  -0.042   7.174  10.341 -0.9075 -0.3077  0.8424
  108OSM    H2F11108  -0.033   7.216  10.443 -0.9561 -2.6323  1.8290
  108OSM    H2G11109  -0.137   7.117  10.349  0.8541 -3.5702 -0.6757
  108OSM    C3F11110  -0.081   7.276  10.234 -0.5330 -0.1026  0.3500
  108OSM    H3F11111   0.012   7.332  10.212  0.5257 -2.2664 -0.8701
  108OSM    H3G11112  -0.166   7.334  10.276  0.6850  2.1385 -0.2071
  108OSM    C4F11113  -0.128   7.216  10.102  0.4246  0.6094 -1.1620
  108OSM    H4F11114  -0.180   7.120  10.123 -1.8687  1.8585 -0.9840
  108OSM    H4G11115  -0.043   7.189  10.035  0.2560  0.0699 -1.1602
  108OSM    C5F11116  -0.234   7.306  10.042  0.2960 -0.1723  0.0447
  108OSM    H5F11117  -0.205   7.413  10.036 -1.5813  0.2817 -1.4165
  108OSM    H5G11118  -0.324   7.287  10.104  0.0300 -1.4358 -0.6894
  108OSM    C6F11119  -0.272   7.252   9.904 -0.2997  0.3697 -0.0849
  108OSM    H6F11120  -0.379   7.281   9.897 -0.8976 -1.7279  0.2349
  108OSM    H6G11121  -0.276   7.141   9.902  0.6607  0.2546  2.4022
  108OSM    C7F11122  -0.195   7.311   9.790  0.3365  0.3741  0.3419
  108OSM    H7F11123  -0.087   7.297   9.808  0.9147  2.3554 -1.3967
  108OSM    H7G11124  -0.199   7.422   9.790 -1.5420  0.3237  0.3115
  108OSM    C8F11125  -0.230   7.245   9.655 -0.2785  1.3510  0.4295
  108OSM    H8F11126  -0.225   7.135   9.669  0.4699  1.3839  0.4813
  108OSM    H8G11127  -0.148   7.268   9.583 -0.5614 -0.2725 -0.4228
  108OSM    C9F11128  -0.366   7.281   9.606  0.0401  0.0115  0.7380
  108OSM    H9F11129  -0.450   7.291   9.677 -1.6831 -0.3412 -1.1980
  108OSM   C10F11130  -0.403   7.296   9.474  0.1528 -0.1199  0.5671
  108OSM   H10F11131  -0.510   7.322   9.468  0.2658  0.6360  1.5617
  108OSM   C11F11132  -0.334   7.285   9.348 -0.2161 -0.1266  0.5375
  108OSM   H11F11133  -0.253   7.212   9.368  0.9025  1.3214  1.3492
  108OSM   H11G11134  -0.286   7.382   9.323 -0.8112 -0.3457 -1.5217
  108OSM   C12F11135  -0.415   7.226   9.232 -0.2332  0.0052  0.4410
  108OSM   H12F11136  -0.493   7.298   9.197 -0.0761 -0.5516 -1.0627
  108OSM   H12G11137  -0.474   7.141   9.272  0.0401 -1.3431 -1.9975
  108OSM   C13F11138  -0.327   7.165   9.122  1.0381 -0.2176  0.6958
  108OSM   H13F11139  -0.256   7.093   9.169  0.7351 -2.0863 -1.5960
  108OSM   H13G11140  -0.262   7.241   9.074 -0.3264  1.2620  1.1646
  108OSM   C14F11141  -0.419   7.103   9.010  0.1278 -0.9275 -0.2006
  108OSM   H14F11142  -0.484   7.182   8.967  0.6383 -0.1933  0.3540
  108OSM   H14G11143  -0.481   7.022   9.054  0.5161 -0.2970  1.5556
  108OSM   C15F11144  -0.336   7.039   8.893  0.1557 -0.3969 -0.3090
  108OSM   H15F11145  -0.262   6.968   8.934 -1.8590 -1.7173  1.1499
  108OSM   H15G11146  -0.282   7.126   8.848 -2.7366  1.3360 -0.5920
  108OSM   C16F11147  -0.423   6.967   8.793 -0.3888  0.1302 -0.0299
  108OSM   H16F11148  -0.520   7.015   8.765 -1.3310 -1.6007  0.2139
  108OSM   H16G11149  -0.446   6.867   8.835 -0.3034  0.3813  0.6282
  108OSM   C17F11150  -0.348   6.943   8.653  0.4665  0.0144 -0.9251
  108OSM   H17F11151  -0.405   6.886   8.577  1.8929 -1.6330 -0.7911
  108OSM   H17G11152  -0.262   6.877   8.678  0.6647 -0.1119 -1.9359
  108OSM   C18F11153  -0.294   7.065   8.574  0.4841  0.6799 -0.1633
  108OSM   H18F11154  -0.210   7.042   8.504 -0.7403 -1.6426 -0.9411
  108OSM   H18G11155  -0.268   7.149   8.642  0.9684  1.5142 -1.3586
  108OSM   H18H11156  -0.371   7.110   8.508  2.6782  1.8503 -2.0254
  109OSM      N11157   6.149   5.628  10.998  0.4360  0.1547 -0.0148
  109OSM    C1511158   6.239   5.747  10.966  0.6018  0.0636  0.0357
  109OSM   H15A11159   6.231   5.815  11.050 -1.4701 -1.0652  0.7860
  109OSM   H15B11160   6.200   5.803  10.882 -0.2374  0.4532  0.6711
  109OSM   H15C11161   6.339   5.706  10.959  0.5611 -0.0350  0.0417
  109OSM    C1411162   6.172   5.526  10.897 -0.4522  0.1329  0.7860
  109OSM   H14A11163   6.149   5.567  10.800  0.6484 -0.0793  0.4345
  109OSM   H14B11164   6.103   5.444  10.912  0.8759 -0.9988  0.8500
  109OSM   H14C11165   6.266   5.477  10.914  0.4398  2.5472  3.2114
  109OSM    C1311166   6.175   5.565  11.127 -0.1278  0.2720  0.8405
  109OSM   H13A11167   6.280   5.549  11.148  0.5762  0.0709 -2.4553
  109OSM   H13B11168   6.119   5.474  11.140 -0.1341  0.2908  0.9393
  109OSM   H13C11169   6.135   5.619  11.211 -1.8739 -0.4858  0.5093
  109OSM    C1211170   5.999   5.674  10.991 -0.1716  1.0911 -0.3005
  109OSM   H12A11171   5.977   5.720  11.086 -1.7296 -1.1339  0.4587
  109OSM   H12B11172   5.933   5.588  10.987  0.4904  0.6167 -1.2231
  109OSM    C1111173   5.961   5.776  10.880  0.2677 -0.0034  0.0094
  109OSM   H11A11174   5.852   5.767  10.859 -0.1052 -0.5518  2.1373
  109OSM   H11B11175   6.006   5.748  10.782 -0.3554  1.6031 -0.7477
  109OSM      P11176   5.905   6.001  10.995 -0.0842  0.2707 -0.3002
  109OSM    O1311177   5.856   5.930  11.119 -0.3419  0.3079 -0.3638
  109OSM    O1411178   5.974   6.130  11.023  0.3620  0.2850  0.7765
  109OSM    O1111179   5.796   6.027  10.895  0.4563 -0.1508  0.4699
  109OSM    O1211180   6.006   5.909  10.919 -0.1057  0.5632 -0.4563
  109OSM    C1S11181   5.821   6.092  10.767  0.6689 -0.4128  0.8514
  109OSM    H1S11182   5.930   6.111  10.751  0.9367 -2.7000 -0.1262
  109OSM    H1T11183   5.760   6.184  10.753  0.8731 -0.2479  1.0315
  109OSM     NF11184   5.820   6.061  10.512 -0.2268 -0.5321  0.9790
  109OSM    HNF11185   5.745   6.095  10.457 -0.0472 -1.3663  0.2058
  109OSM    C2S11186   5.778   6.010  10.641 -0.0347  0.3183  0.6504
  109OSM    H2S11187   5.821   5.909  10.654 -1.4001 -0.8598 -3.2458
  109OSM    C3S11188   5.625   5.991  10.640  0.3425  0.5997 -0.4570
  109OSM    H3S11189   5.575   6.089  10.624  2.7820  2.0458  0.5714
  109OSM     O311190   5.573   5.951  10.766 -0.0783  0.0124 -0.6670
  109OSM    HO311191   5.647   5.964  10.827 -0.0624 -1.3556 -0.3947
  109OSM    C4S11192   5.584   5.889  10.535  0.2429  0.4872 -0.6840
  109OSM    H4S11193   5.525   5.940  10.458 -1.6308 -1.5833 -0.6421
  109OSM    C5S11194   5.586   5.753  10.546 -0.0847  0.0790  0.7224
  109OSM    H5S11195   5.610   5.706  10.642  1.7712 -0.3620  0.0577
  109OSM    C6S11196   5.533   5.657  10.445 -0.1740 -0.4091  0.2413
  109OSM    H6S11197   5.430   5.630  10.478  0.7334 -1.8697  2.0030
  109OSM    H6T11198   5.595   5.565  10.450 -0.3960 -0.4641  3.1764
  109OSM    C7S11199   5.510   5.708  10.301  0.3573  0.2510 -0.3124
  109OSM    H7S11200   5.608   5.734  10.255  1.8427 -3.5107  0.5228
  109OSM    H7T11201   5.445   5.798  10.294  0.4810  0.2494 -1.7335
  109OSM    C8S11202   5.426   5.608  10.213  1.3017 -0.6327  0.2641
  109OSM    H8S11203   5.320   5.618  10.243  0.6060 -2.4108 -1.4423
  109OSM    H8T11204   5.462   5.504  10.228 -0.5114 -1.2211  0.6084
  109OSM    C9S11205   5.440   5.630  10.054 -0.5540  0.0372  0.7810
  109OSM    H9S11206   5.354   5.585   9.999  1.1307 -2.6128  0.2198
  109OSM    H9T11207   5.536   5.583  10.024 -0.3869 -1.1247  3.0319
  109OSM   C10S11208   5.462   5.772  10.003 -0.3170 -0.5611 -0.1139
  109OSM   H10S11209   5.559   5.808  10.041  0.3846  0.9605 -3.1736
  109OSM   H10T11210   5.378   5.828  10.049  0.4721 -1.6842  2.7959
  109OSM   C11S11211   5.451   5.796   9.845 -0.9402  0.4057 -0.6530
  109OSM   H11S11212   5.487   5.894   9.807 -1.0397  0.2254 -1.2048
  109OSM   H11T11213   5.340   5.801   9.834 -0.8365  0.3230 -1.7736
  109OSM   C12S11214   5.514   5.684   9.767 -0.3137  0.8133  0.4238
  109OSM   H12S11215   5.480   5.586   9.804 -0.8462  1.3284  1.3046
  109OSM   H12T11216   5.625   5.692   9.769 -0.1937 -0.9382  3.6925
  109OSM   C13S11217   5.471   5.692   9.613 -0.0069 -0.0236 -0.4854
  109OSM   H13S11218   5.495   5.792   9.572 -1.8494 -1.0038 -4.1568
  109OSM   H13T11219   5.360   5.683   9.616 -0.0030  0.5027  1.9869
  109OSM   C14S11220   5.535   5.566   9.537 -0.3427 -0.3158  0.5319
  109OSM   H14S11221   5.474   5.479   9.570  0.4433 -0.3819  1.8062
  109OSM   H14T11222   5.640   5.569   9.572 -1.0395 -2.0754  2.8500
  109OSM   C15S11223   5.523   5.549   9.386  0.4348  0.1577  0.3150
  109OSM   H15S11224   5.413   5.552   9.366  0.4085 -1.1195  0.2026
  109OSM   H15T11225   5.560   5.449   9.355 -3.0900 -0.9858 -0.4999
  109OSM   C16S11226   5.585   5.651   9.296 -0.2618  0.1005  0.1614
  109OSM   H16S11227   5.695   5.644   9.291 -0.1155  1.2427  1.4265
  109OSM   H16T11228   5.559   5.752   9.335 -0.1811  0.0247  0.4117
  109OSM   C17S11229   5.522   5.646   9.156 -0.3548  0.4796  0.3519
  109OSM   H17S11230   5.414   5.637   9.181 -0.2693 -1.0265  0.2359
  109OSM   H17T11231   5.550   5.555   9.099  0.1337  1.2119 -0.5979
  109OSM   C18S11232   5.535   5.765   9.063 -0.7978 -0.3439 -0.0206
  109OSM   H18S11233   5.640   5.800   9.076 -0.7047  0.1498 -1.9059
  109OSM   H18T11234   5.462   5.843   9.094  0.5698  0.9910 -0.0240
  109OSM   H18U11235   5.525   5.736   8.956 -0.6191 -2.4403  0.5139
  109OSM    C1F11236   5.946   6.058  10.464  0.0961  0.1481 -0.8414
  109OSM     OF11237   6.039   6.040  10.541 -0.1902 -0.9969  0.0853
  109OSM    C2F11238   5.959   6.065  10.312  0.0758 -0.2416 -0.2134
  109OSM    H2F11239   5.875   6.128  10.276  0.5515  0.0075 -0.9013
  109OSM    H2G11240   5.932   5.962  10.281  0.5730 -0.2664 -0.5655
  109OSM    C3F11241   6.097   6.106  10.253 -0.2825  0.1137 -0.2931
  109OSM    H3F11242   6.176   6.067  10.321 -0.3047  0.9824  0.2236
  109OSM    H3G11243   6.123   6.214  10.256  1.9428 -0.3841 -0.4980
  109OSM    C4F11244   6.116   6.051  10.111  0.1167  0.3976 -0.5741
  109OSM    H4F11245   6.031   6.074  10.043 -0.3064 -2.0704 -0.9529
  109OSM    H4G11246   6.110   5.940  10.115  1.3024  0.3677  1.2241
  109OSM    C5F11247   6.241   6.099  10.042 -0.0031  0.1871 -0.0836
  109OSM    H5F11248   6.327   6.053  10.094  0.2932 -1.6784 -2.1093
  109OSM    H5G11249   6.246   6.208  10.059  0.6242  0.6566 -3.0350
  109OSM    C6F11250   6.260   6.060   9.886 -0.4561 -0.7032 -0.1573
  109OSM    H6F11251   6.277   5.950   9.879  2.1777 -0.6132  3.3764
  109OSM    H6G11252   6.355   6.100   9.846  0.8176 -1.3054  2.1445
  109OSM    C7F11253   6.138   6.106   9.803 -0.1627 -0.9480 -0.2346
  109OSM    H7F11254   6.120   6.211   9.835 -1.2136 -1.1038 -0.3014
  109OSM    H7G11255   6.042   6.058   9.832 -1.8022  0.8515 -2.4642
  109OSM    C8F11256   6.154   6.094   9.649 -0.4387  0.2915  0.6990
  109OSM    H8F11257   6.075   6.022   9.618  1.1027 -1.1675  0.0198
  109OSM    H8G11258   6.243   6.032   9.624 -1.6327 -0.8163 -0.9097
  109OSM    C9F11259   6.142   6.223   9.575  1.1947 -0.1944 -0.0423
  109OSM    H9F11260   6.059   6.288   9.606  0.0753 -0.3123 -2.6371
  109OSM   C10F11261   6.223   6.269   9.477  0.5521 -0.4318 -0.0321
  109OSM   H10F11262   6.194   6.366   9.434  1.0840  0.2371  1.0963
  109OSM   C11F11263   6.346   6.206   9.419  0.3354  0.2952 -0.0374
  109OSM   H11F11264   6.344   6.096   9.439  0.4880  0.4190  0.6534
  109OSM   H11G11265   6.437   6.245   9.469 -0.3309  1.3422  0.3591
  109OSM   C12F11266   6.361   6.225   9.269  0.3685 -0.9774  0.0060
  109OSM   H12F11267   6.330   6.328   9.240  3.0144  0.1720  1.0878
  109OSM   H12G11268   6.288   6.165   9.211 -0.1077 -0.7687  0.3925
  109OSM   C13F11269   6.501   6.192   9.231 -0.1538 -0.0805 -0.3873
  109OSM   H13F11270   6.503   6.175   9.121 -0.6523 -1.9384 -0.1318
  109OSM   H13G11271   6.536   6.104   9.290 -2.1368 -0.8204 -0.2503
  109OSM   C14F11272   6.592   6.314   9.258  0.2617  0.1402 -0.9071
  109OSM   H14F11273   6.625   6.316   9.364  0.1394  1.6685 -0.8839
  109OSM   H14G11274   6.546   6.414   9.237  0.4645  0.0082 -2.0136
  109OSM   C15F11275   6.718   6.311   9.170  0.2218 -0.7129 -0.1722
  109OSM   H15F11276   6.773   6.408   9.173  1.6049 -1.4238 -1.7719
  109OSM   H15G11277   6.671   6.295   9.070 -0.4475  0.0370  0.0194
  109OSM   C16F11278   6.816   6.190   9.201 -0.5190 -0.5908 -0.0424
  109OSM   H16F11279   6.775   6.089   9.180 -0.4185 -0.5245 -0.5621
  109OSM   H16G11280   6.830   6.201   9.311  1.3060  2.3283 -0.4939
  109OSM   C17F11281   6.948   6.210   9.123  0.7359  0.5202 -0.0794
  109OSM   H17F11282   6.977   6.317   9.136 -0.3657  0.5333  2.5018
  109OSM   H17G11283   6.910   6.201   9.019 -1.2252  2.5520  0.4100
  109OSM   C18F11284   7.064   6.113   9.147 -0.3890  0.1713 -0.4652
  109OSM   H18F11285   7.032   6.007   9.153  0.4142 -0.1080 -1.0228
  109OSM   H18G11286   7.117   6.139   9.241  2.2342 -0.4281 -1.7152
  109OSM   H18H11287   7.144   6.119   9.070  0.9710  0.7401  0.9713
  110OSM      N11288   6.593   3.571  11.160  0.2624 -0.4513 -0.3960
  110OSM    C1511289   6.705   3.483  11.121 -0.2447  0.0076  0.0194
  110OSM   H15A11290   6.691   3.381  11.153 -1.1275  0.4578  1.0889
  110OSM   H15B11291   6.800   3.522  11.153  1.0424 -1.6742 -1.6455
  110OSM   H15C11292   6.714   3.476  11.013  1.5215  2.4004 -0.0050
  110OSM    C1411293   6.469   3.519  11.098 -0.0450 -0.5123  0.1873
  110OSM   H14A11294   6.456   3.529  10.991  0.7181  1.0863  0.2371
  110OSM   H14B11295   6.380   3.566  11.138  1.4507  0.6217  2.2470
  110OSM   H14C11296   6.452   3.417  11.127 -0.5651 -0.6223 -0.4659
  110OSM    C1311297   6.576   3.574  11.312 -0.1655 -0.2329  0.2476
  110OSM   H13A11298   6.568   3.473  11.350 -1.2529 -1.4498 -3.1045
  110OSM   H13B11299   6.484   3.625  11.335 -0.3709  0.0489 -1.1551
  110OSM   H13C11300   6.652   3.625  11.370  1.3619 -1.1229 -0.9186
  110OSM    C1211301   6.619   3.710  11.109  0.0081 -0.3641  0.2992
  110OSM   H12A11302   6.613   3.710  11.002 -0.6297 -3.8823  0.2840
  110OSM   H12B11303   6.725   3.728  11.124 -0.2945  0.8072  1.0797
  110OSM    C1111304   6.539   3.824  11.174  0.7414  0.1303 -0.4640
  110OSM   H11A11305   6.570   3.919  11.125 -1.0040 -0.2671 -2.3889
  110OSM   H11B11306   6.550   3.830  11.285 -1.5721 -1.9379 -0.0816
  110OSM      P11307   6.324   3.839  11.025 -0.2558 -0.0529  0.2785
  110OSM    O1311308   6.261   3.715  10.975  0.2739  0.3518 -0.2662
  110OSM    O1411309   6.235   3.948  11.067 -0.2803 -0.3407  0.8690
  110OSM    O1111310   6.427   3.897  10.928  0.4945  0.3289  0.1648
  110OSM    O1211311   6.401   3.806  11.152  0.0842  0.3433 -0.4065
  110OSM    C1S11312   6.426   3.858  10.790 -0.5549  0.0992  0.4231
  110OSM    H1S11313   6.324   3.834  10.752  0.1422 -2.3627  0.0205
  110OSM    H1T11314   6.482   3.764  10.771 -3.6502 -1.7553  0.0445
  110OSM     NF11315   6.461   3.932  10.553  0.3832  0.0330  0.1458
  110OSM    HNF11316   6.540   3.905  10.499 -1.8222 -3.0676 -1.7218
  110OSM    C2S11317   6.476   3.971  10.697 -0.1532 -0.1703 -0.5927
  110OSM    H2S11318   6.414   4.059  10.721  1.3420  0.2937  1.8060
  110OSM    C3S11319   6.620   4.020  10.730 -0.4473  0.1728 -0.5511
  110OSM    H3S11320   6.694   3.946  10.694  0.4906  0.6689  0.3070
  110OSM     O311321   6.659   4.019  10.865  0.3548  0.0107  0.9377
  110OSM    HO311322   6.603   3.951  10.904  0.1803 -0.2434  0.2421
  110OSM    C4S11323   6.671   4.150  10.670  0.1101 -1.1405  0.9141
  110OSM    H4S11324   6.685   4.139  10.562  0.5929 -1.3908  1.0052
  110OSM    C5S11325   6.686   4.276  10.727  0.9603  0.8121 -0.7906
  110OSM    H5S11326   6.660   4.268  10.834 -0.2549 -0.3356 -1.1398
  110OSM    C6S11327   6.730   4.403  10.657 -0.4059  0.2689  0.1507
  110OSM    H6S11328   6.837   4.430  10.673  0.2819 -1.1628 -1.8381
  110OSM    H6T11329   6.683   4.490  10.707  1.1910  0.3504  1.5655
  110OSM    C7S11330   6.700   4.400  10.507  0.5829  0.1134 -0.7535
  110OSM    H7S11331   6.590   4.390  10.504  0.7177 -1.5756 -0.6334
  110OSM    H7T11332   6.757   4.317  10.459  0.8915 -0.1459  0.0595
  110OSM    C8S11333   6.727   4.538  10.442  0.0791  0.4656  0.1178
  110OSM    H8S11334   6.838   4.543  10.444  0.1459 -0.9851  1.1517
  110OSM    H8T11335   6.678   4.615  10.505 -2.7642 -0.7035 -0.5899
  110OSM    C9S11336   6.689   4.550  10.300 -0.2299 -0.1409  0.4864
  110OSM    H9S11337   6.579   4.538  10.307 -0.0349 -2.2305  0.4837
  110OSM    H9T11338   6.724   4.473  10.228 -0.5279 -0.5503  0.7689
  110OSM   C10S11339   6.728   4.684  10.232 -0.0152 -0.6050  0.0043
  110OSM   H10S11340   6.836   4.705  10.243 -0.4309  1.1160  0.9085
  110OSM   H10T11341   6.682   4.767  10.290 -0.5848 -1.0732  0.2362
  110OSM   C11S11342   6.689   4.710  10.093  0.1268  0.0927  0.0552
  110OSM   H11S11343   6.767   4.679  10.021 -0.1612 -0.5283  0.0047
  110OSM   H11T11344   6.678   4.819  10.076 -0.4039 -0.1271 -1.0084
  110OSM   C12S11345   6.558   4.648  10.046  0.5684 -0.0261 -0.6840
  110OSM   H12S11346   6.481   4.679  10.120  1.4102 -0.6422  0.4629
  110OSM   H12T11347   6.557   4.539  10.069  0.6575  0.3018  0.9057
  110OSM   C13S11348   6.521   4.676   9.909 -0.0941 -0.8918 -0.0765
  110OSM   H13S11349   6.536   4.781   9.877 -1.1711 -0.5231  0.6027
  110OSM   H13T11350   6.410   4.669   9.902 -0.2354  0.3691  0.6719
  110OSM   C14S11351   6.575   4.581   9.800 -0.1166  0.1713  0.2006
  110OSM   H14S11352   6.551   4.478   9.835  0.6197  0.2487  0.9434
  110OSM   H14T11353   6.685   4.584   9.790 -0.2686  3.1947 -1.0483
  110OSM   C15S11354   6.517   4.606   9.662  0.2237  0.0300  0.7357
  110OSM   H15S11355   6.408   4.588   9.655 -0.1215  2.0782  0.5042
  110OSM   H15T11356   6.556   4.526   9.595  0.7332 -0.1018  1.1826
  110OSM   C16S11357   6.551   4.740   9.594 -0.7392 -0.1512  0.1522
  110OSM   H16S11358   6.659   4.764   9.604 -0.6592 -0.4238 -0.0385
  110OSM   H16T11359   6.510   4.818   9.661  0.1274  0.4035  0.0582
  110OSM   C17S11360   6.494   4.744   9.455  0.2223 -0.0858 -0.0254
  110OSM   H17S11361   6.383   4.740   9.460  0.3491 -1.6011  2.3394
  110OSM   H17T11362   6.530   4.661   9.392  2.9400  1.8148 -1.0534
  110OSM   C18S11363   6.513   4.877   9.385  0.6890  0.3235 -0.4172
  110OSM   H18S11364   6.440   4.953   9.420 -0.3230 -0.6792 -0.3319
  110OSM   H18T11365   6.513   4.856   9.276  3.7371  2.7404 -0.9480
  110OSM   H18U11366   6.617   4.908   9.408  0.4182  1.3868 -0.6015
  110OSM    C1F11367   6.341   3.921  10.502 -0.0234 -0.4061 -0.1493
  110OSM     OF11368   6.244   3.955  10.569  0.5371  0.9325 -0.6739
  110OSM    C2F11369   6.329   3.851  10.368 -0.1862 -0.2888 -0.4147
  110OSM    H2F11370   6.285   3.750  10.386  0.3223 -0.5179 -0.4515
  110OSM    H2G11371   6.428   3.834  10.322  0.5860 -0.3289  1.2228
  110OSM    C3F11372   6.250   3.927  10.262 -0.0256  0.5690  0.2546
  110OSM    H3F11373   6.277   4.035  10.262  1.0500  0.3239  2.6713
  110OSM    H3G11374   6.140   3.923  10.272 -0.0463  0.5392  0.0070
  110OSM    C4F11375   6.276   3.862  10.124  0.4724 -0.1738  0.5365
  110OSM    H4F11376   6.284   3.752  10.142  4.8452 -0.0955 -0.4817
  110OSM    H4G11377   6.371   3.895  10.079 -1.5674  2.0435 -2.3500
  110OSM    C5F11378   6.161   3.892  10.023 -0.3510  1.2549 -0.3535
  110OSM    H5F11379   6.151   4.003  10.011  3.7282  1.8481  1.1543
  110OSM    H5G11380   6.061   3.858  10.058  0.9408 -0.8339  1.4005
  110OSM    C6F11381   6.183   3.828   9.886 -0.3909 -0.0320 -0.0385
  110OSM    H6F11382   6.181   3.718   9.901 -1.4532  0.1224  0.9987
  110OSM    H6G11383   6.284   3.851   9.845 -0.6526 -0.2776 -0.8247
  110OSM    C7F11384   6.086   3.878   9.775 -0.5715  0.0310 -0.6180
  110OSM    H7F11385   6.111   3.985   9.762  2.4290 -0.2561  1.9872
  110OSM    H7G11386   5.982   3.869   9.811  0.1335 -0.4694  1.3922
  110OSM    C8F11387   6.090   3.789   9.647 -0.3070  0.7608 -0.3234
  110OSM    H8F11388   5.997   3.797   9.587 -0.1224 -2.6098 -1.1706
  110OSM    H8G11389   6.080   3.682   9.676 -0.7052  0.3300 -2.0249
  110OSM    C9F11390   6.210   3.829   9.564  0.2884 -0.2878 -0.7368
  110OSM    H9F11391   6.295   3.876   9.615 -0.0433 -0.5621  0.0770
  110OSM   C10F11392   6.222   3.831   9.426  0.3073  0.3498 -0.0627
  110OSM   H10F11393   6.317   3.870   9.386  0.6186 -1.3651 -1.0528
  110OSM   C11F11394   6.119   3.795   9.318 -0.4794  0.5874  0.9090
  110OSM   H11F11395   6.039   3.872   9.310 -2.0502 -0.8552  2.3875
  110OSM   H11G11396   6.078   3.694   9.342 -1.8005  1.2295  1.3917
  110OSM   C12F11397   6.167   3.782   9.170  0.3413 -0.0388  0.5023
  110OSM   H12F11398   6.077   3.744   9.117  0.8134  1.1032 -1.1524
  110OSM   H12G11399   6.249   3.709   9.151 -1.0649 -1.5698  0.0818
  110OSM   C13F11400   6.205   3.921   9.105  1.6182 -0.5327  0.3308
  110OSM   H13F11401   6.310   3.944   9.130  2.3271 -1.1396 -1.9339
  110OSM   H13G11402   6.134   3.995   9.148  2.0844 -0.3478  0.7821
  110OSM   C14F11403   6.201   3.919   8.952  0.3143  0.2665  0.1835
  110OSM   H14F11404   6.221   4.016   8.902  2.3468 -1.1925 -1.9074
  110OSM   H14G11405   6.100   3.886   8.919 -0.1365  0.1696  1.6027
  110OSM   C15F11406   6.309   3.823   8.892  0.0749 -0.1114 -0.0717
  110OSM   H15F11407   6.286   3.718   8.917 -0.0586 -0.3047 -0.9915
  110OSM   H15G11408   6.415   3.845   8.916 -0.0979  0.9017 -0.2138
  110OSM   C16F11409   6.314   3.834   8.732  0.1597  0.5159 -0.5326
  110OSM   H16F11410   6.401   3.775   8.697  1.4369  1.3183  1.2146
  110OSM   H16G11411   6.331   3.939   8.700  0.1645  0.7788  0.3110
  110OSM   C17F11412   6.192   3.788   8.655  0.1531 -1.1848 -0.5320
  110OSM   H17F11413   6.238   3.775   8.554  1.6965  2.4364 -0.3972
  110OSM   H17G11414   6.122   3.874   8.649  2.3953  0.8159  1.0177
  110OSM   C18F11415   6.114   3.668   8.704 -0.2728  0.1951 -0.1120
  110OSM   H18F11416   6.171   3.572   8.704 -0.6964 -0.0730  1.7037
  110OSM   H18G11417   6.021   3.646   8.647 -0.6266  0.2411  0.4489
  110OSM   H18H11418   6.088   3.689   8.809  0.0236  0.1478 -0.0310
  111OSM      N11419   0.693   2.276  11.036 -0.3580 -0.2220  0.2041
  111OSM    C1511420   0.819   2.214  11.058 -0.6706  0.2031 -0.0430
  111OSM   H15A11421   0.815   2.121  11.005 -1.6896 -1.3439  2.6559
  111OSM   H15B11422   0.830   2.194  11.164  0.9955  2.1589  0.1819
  111OSM   H15C11423   0.897   2.278  11.019  0.3525 -1.2205 -0.3542
  111OSM    C1411424   0.585   2.189  11.081 -0.0345 -0.2083 -0.0816
  111OSM   H14A11425   0.486   2.211  11.043 -0.0993  1.7991  1.1480
  111OSM   H14B11426   0.573   2.197  11.188  2.9794  2.6374  0.1186
  111OSM   H14C11427   0.599   2.089  11.043 -1.3974  0.2643 -1.9500
  111OSM    C1311428   0.690   2.411  11.107 -0.1199  1.2241  0.0570
  111OSM   H13A11429   0.597   2.456  11.076 -0.4283 -0.4305 -1.5445
  111OSM   H13B11430   0.773   2.461  11.059 -0.0655  1.0962  0.0161
  111OSM   H13C11431   0.714   2.416  11.212 -0.7672 -2.6089  0.4589
  111OSM    C1211432   0.685   2.299  10.889 -0.0618  0.6384  0.3913
  111OSM   H12A11433   0.721   2.209  10.841  2.8121  0.4601  2.7577
  111OSM   H12B11434   0.762   2.372  10.866  0.8713  0.7903  3.6957
  111OSM    C1111435   0.549   2.338  10.831  0.8840 -0.0730  0.0732
  111OSM   H11A11436   0.548   2.376  10.727 -0.9927 -1.6431 -0.4950
  111OSM   H11B11437   0.517   2.426  10.892  1.8984  0.3841 -0.0361
  111OSM      P11438   0.467   2.112  10.729  0.1864 -0.5158 -0.2547
  111OSM    O1311439   0.593   2.040  10.762 -0.1317  0.0884  0.5360
  111OSM    O1411440   0.344   2.039  10.710  0.6625  0.1603 -0.1103
  111OSM    O1111441   0.505   2.181  10.589  0.2127 -0.1841  0.2510
  111OSM    O1211442   0.455   2.235  10.825 -0.5862 -0.0135 -0.2569
  111OSM    C1S11443   0.409   2.251  10.517  0.5385 -0.2113 -0.2357
  111OSM    H1S11444   0.379   2.344  10.570  0.6965  0.5070 -1.3941
  111OSM    H1T11445   0.320   2.184  10.516 -0.6621  1.3404  0.6925
  111OSM     NF11446   0.373   2.370  10.303 -0.2523  0.5085 -0.8921
  111OSM    HNF11447   0.327   2.328  10.226 -0.6877  1.3454 -1.0959
  111OSM    C2S11448   0.466   2.283  10.378  0.0647 -0.2411 -0.3854
  111OSM    H2S11449   0.562   2.338  10.389 -0.0118 -0.0062 -0.9236
  111OSM    C3S11450   0.510   2.152  10.304 -0.0900  0.0785 -0.0469
  111OSM    H3S11451   0.431   2.074  10.309 -0.8469  0.8945  1.3057
  111OSM     O311452   0.632   2.102  10.362 -0.4110 -0.0830  0.5448
  111OSM    HO311453   0.628   2.114  10.457 -0.8433  0.0692  0.5095
  111OSM    C4S11454   0.543   2.175  10.159  0.1923  0.4874 -0.3237
  111OSM    H4S11455   0.620   2.252  10.142  0.6645 -0.0674 -0.7267
  111OSM    C5S11456   0.483   2.118  10.056  0.0556 -0.2929 -0.1041
  111OSM    H5S11457   0.397   2.051  10.068 -0.8253  0.9337  0.4726
  111OSM    C6S11458   0.517   2.159   9.911  0.0785  0.2354  0.2651
  111OSM    H6S11459   0.526   2.074   9.840  0.8568 -0.2204  0.9104
  111OSM    H6T11460   0.620   2.199   9.915  1.2396 -2.6516 -0.0818
  111OSM    C7S11461   0.438   2.265   9.845 -0.6155  0.9938  0.1141
  111OSM    H7S11462   0.464   2.362   9.893  0.1954  1.1685 -0.6747
  111OSM    H7T11463   0.327   2.260   9.839 -0.5886 -1.9637  0.9582
  111OSM    C8S11464   0.465   2.276   9.696  0.9266 -0.0317  0.0034
  111OSM    H8S11465   0.423   2.188   9.643 -1.3538  0.9937  0.0231
  111OSM    H8T11466   0.574   2.262   9.678  0.5156 -1.3101 -1.6921
  111OSM    C9S11467   0.418   2.406   9.634  0.2414 -0.7950 -0.0126
  111OSM    H9S11468   0.473   2.493   9.676 -0.7622 -0.9480  1.6840
  111OSM    H9T11469   0.309   2.428   9.631  0.3336 -0.0372  1.4865
  111OSM   C10S11470   0.433   2.403   9.478 -0.4902  0.1989  0.1581
  111OSM   H10S11471   0.365   2.323   9.441  2.5968 -1.6094 -1.8500
  111OSM   H10T11472   0.539   2.386   9.451 -0.3286 -0.2174  1.0209
  111OSM   C11S11473   0.378   2.530   9.400 -0.6943  0.0856 -0.2544
  111OSM   H11S11474   0.432   2.621   9.432 -1.4418  0.8066 -1.0477
  111OSM   H11T11475   0.274   2.546   9.436 -0.9566 -1.1947 -0.4160
  111OSM   C12S11476   0.394   2.510   9.241 -0.1186 -0.3869  0.6114
  111OSM   H12S11477   0.375   2.403   9.218  1.0442 -1.1318  2.8846
  111OSM   H12T11478   0.499   2.527   9.209  0.0533  1.4008  2.0128
  111OSM   C13S11479   0.289   2.593   9.174 -0.6467 -0.1049  0.1175
  111OSM   H13S11480   0.293   2.701   9.196 -0.5433 -0.4990  2.1290
  111OSM   H13T11481   0.184   2.568   9.204 -0.9981 -0.3538 -1.2942
  111OSM   C14S11482   0.298   2.573   9.023 -0.0451  0.1747 -0.5954
  111OSM   H14S11483   0.254   2.473   9.000 -0.2268  0.1191  0.0056
  111OSM   H14T11484   0.403   2.576   8.988 -0.0816 -1.6079 -0.9443
  111OSM   C15S11485   0.222   2.669   8.935  0.1321 -0.0943  0.3882
  111OSM   H15S11486   0.222   2.775   8.969  0.0481 -0.5461  1.8376
  111OSM   H15T11487   0.119   2.627   8.926  0.2704 -0.2993 -0.2983
  111OSM   C16S11488   0.286   2.674   8.786 -0.2521 -0.1335 -1.0387
  111OSM   H16S11489   0.265   2.575   8.741  0.7801 -1.1904  0.7220
  111OSM   H16T11490   0.396   2.683   8.801 -0.5997  1.1650  0.9990
  111OSM   C17S11491   0.222   2.781   8.694 -0.6043 -0.4764  0.0160
  111OSM   H17S11492   0.244   2.878   8.743  1.6016 -1.2363  0.5937
  111OSM   H17T11493   0.112   2.771   8.681 -0.6911 -0.1787  0.5233
  111OSM   C18S11494   0.269   2.782   8.557  0.0805 -0.2904 -0.4467
  111OSM   H18S11495   0.284   2.683   8.510 -1.8508 -1.5716  1.5300
  111OSM   H18T11496   0.374   2.814   8.567 -0.5300  2.2128 -1.5497
  111OSM   H18U11497   0.214   2.848   8.485  0.4561  0.9613  0.3951
  111OSM    C1F11498   0.347   2.494  10.333 -0.0390  0.3514  0.1188
  111OSM     OF11499   0.394   2.546  10.435 -0.1820 -0.0614  0.1085
  111OSM    C2F11500   0.260   2.577  10.247  0.1005  0.0789 -0.0876
  111OSM    H2F11501   0.160   2.581  10.295  0.1671  0.3853  0.0252
  111OSM    H2G11502   0.250   2.529  10.148  2.5336  0.1823 -0.4125
  111OSM    C3F11503   0.325   2.711  10.232  0.2658  0.9021 -0.0728
  111OSM    H3F11504   0.425   2.698  10.185  1.5980  3.6190  1.8818
  111OSM    H3G11505   0.339   2.768  10.326  0.8349  0.2125  0.2661
  111OSM    C4F11506   0.251   2.809  10.136  0.2541 -0.0710 -0.6607
  111OSM    H4F11507   0.296   2.910  10.149  1.3243 -0.8380  1.9499
  111OSM    H4G11508   0.144   2.796  10.161  0.4484 -0.0726  0.1705
  111OSM    C5F11509   0.273   2.765   9.987  1.0027  0.0454  0.2502
  111OSM    H5F11510   0.225   2.670   9.958 -2.2046  1.3129  1.1427
  111OSM    H5G11511   0.383   2.754   9.980  0.7339 -2.7842  0.0889
  111OSM    C6F11512   0.217   2.872   9.903  0.1457  0.4397  0.4549
  111OSM    H6F11513   0.267   2.970   9.920 -1.4852  1.0178  2.0728
  111OSM    H6G11514   0.110   2.880   9.932 -0.5407 -1.3752 -1.4773
  111OSM    C7F11515   0.237   2.839   9.754 -0.6229  0.7542  0.5167
  111OSM    H7F11516   0.211   2.731   9.753  0.9158  0.3666 -2.0266
  111OSM    H7G11517   0.346   2.842   9.734 -0.4905 -1.6612  0.7586
  111OSM    C8F11518   0.160   2.926   9.655  0.0911  0.5079  0.4815
  111OSM    H8F11519   0.147   3.026   9.701  1.2219  0.6953  0.3977
  111OSM    H8G11520   0.061   2.879   9.638 -0.1973  0.9526  0.8881
  111OSM    C9F11521   0.225   2.929   9.521  0.2026 -0.5463  0.1452
  111OSM    H9F11522   0.199   2.853   9.447 -1.8899 -0.0746  0.3729
  111OSM   C10F11523   0.309   3.031   9.488 -0.6034 -0.4246  0.5257
  111OSM   H10F11524   0.354   3.024   9.388 -0.8865 -0.5212  0.4044
  111OSM   C11F11525   0.352   3.149   9.565 -0.2838  0.2074 -0.0990
  111OSM   H11F11526   0.455   3.183   9.539 -0.3390  0.3252 -0.1645
  111OSM   H11G11527   0.334   3.138   9.675 -0.6868  0.6559 -0.1162
  111OSM   C12F11528   0.248   3.264   9.535  0.2845  0.1846  0.0819
  111OSM   H12F11529   0.144   3.225   9.527 -0.3584  1.6630  1.0385
  111OSM   H12G11530   0.288   3.317   9.446  0.2256  0.1737  0.0481
  111OSM   C13F11531   0.244   3.377   9.637  0.3949 -0.2644  0.0566
  111OSM   H13F11532   0.199   3.472   9.602  2.6532  0.5737 -0.6601
  111OSM   H13G11533   0.349   3.397   9.667 -0.0445 -1.0669  2.2793
  111OSM   C14F11534   0.178   3.337   9.762 -0.4702 -0.0583 -0.0410
  111OSM   H14F11535   0.209   3.237   9.799 -1.2889 -0.9488 -1.7408
  111OSM   H14G11536   0.068   3.338   9.752 -0.5609  0.6656  0.8813
  111OSM   C15F11537   0.223   3.433   9.870  0.3906 -0.1899  0.4510
  111OSM   H15F11538   0.180   3.531   9.841  0.5410 -1.2218 -3.5763
  111OSM   H15G11539   0.334   3.445   9.877  0.4952 -2.6030  5.0945
  111OSM   C16F11540   0.182   3.405  10.020 -0.0282  0.0504  0.2850
  111OSM   H16F11541   0.084   3.357  10.040  0.5207 -1.4757 -0.5942
  111OSM   H16G11542   0.192   3.502  10.073 -0.6669 -0.3565  1.1647
  111OSM   C17F11543   0.279   3.316  10.099  0.1395  0.1618 -0.1834
  111OSM   H17F11544   0.369   3.381  10.102 -0.4499  0.9830 -0.1391
  111OSM   H17G11545   0.292   3.219  10.047  2.2782 -0.1178  0.8178
  111OSM   C18F11546   0.235   3.289  10.248  0.2805  0.1532 -0.3353
  111OSM   H18F11547   0.255   3.376  10.315  2.1564 -0.9747  0.6086
  111OSM   H18G11548   0.297   3.207  10.289  1.0066  1.5400  1.4403
  111OSM   H18H11549   0.128   3.269  10.268  0.5315  0.1997  1.1430
  112OSM      N11550   6.711   0.144  11.106  0.0928 -0.1057 -0.0348
  112OSM    C1511551   6.855   0.159  11.065 -0.0315 -0.0460  0.3605
  112OSM   H15A11552   6.912   0.132  11.153 -3.7725  1.4454  3.4156
  112OSM   H15B11553   6.881   0.263  11.049 -0.9114 -0.0008 -0.8695
  112OSM   H15C11554   6.880   0.093  10.984 -5.6891 -1.0118 -0.8165
  112OSM    C1411555   6.686   0.012  11.169 -0.3246 -0.2507  0.1037
  112OSM   H14A11556   6.580   0.003  11.186 -0.4455 -1.2874 -1.1015
  112OSM   H14B11557   6.730   0.005  11.267 -3.5742  0.3132  1.6509
  112OSM   H14C11558   6.732  -0.070  11.115 -0.3321 -0.6997  0.7782
  112OSM    C1311559   6.679   0.250  11.199  0.0530 -0.1151 -0.8399
  112OSM   H13A11560   6.746   0.263  11.283  0.2571 -3.4132 -0.4456
  112OSM   H13B11561   6.583   0.221  11.237  1.4458 -2.3776  1.0805
  112OSM   H13C11562   6.672   0.337  11.136  0.5405  0.1935 -0.4737
  112OSM    C1211563   6.617   0.158  10.988  0.3566  0.5177 -0.1673
  112OSM   H12A11564   6.651   0.249  10.942  2.3500 -0.7258 -1.2219
  112OSM   H12B11565   6.517   0.162  11.029  0.4238  4.4067 -0.1858
  112OSM    C1111566   6.631   0.054  10.876  0.0428  1.0985  0.1833
  112OSM   H11A11567   6.562   0.082  10.794 -0.0739  1.3492  0.3665
  112OSM   H11B11568   6.599  -0.046  10.915 -1.6954  0.8014 -1.9063
  112OSM      P11569   6.801   0.143  10.701 -0.1357 -0.0086 -0.1146
  112OSM    O1311570   6.719   0.267  10.698  0.1292 -0.3123 -0.1244
  112OSM    O1411571   6.949   0.152  10.714  0.2411 -0.2553 -0.2127
  112OSM    O1111572   6.774   0.042  10.581 -0.1286 -0.3559  0.3839
  112OSM    O1211573   6.760   0.050  10.820  0.0557 -0.1375  0.0404
  112OSM    C1S11574   6.638   0.042  10.522  0.0481 -0.3403  0.2369
  112OSM    H1S11575   6.623   0.140  10.473  1.5253 -1.0336 -1.7041
  112OSM    H1T11576   6.567   0.027  10.606 -2.3669 -0.6513 -1.8118
  112OSM     NF11577   6.497  -0.042  10.333 -0.3869 -0.2002 -0.0907
  112OSM    HNF11578   6.411  -0.086  10.357  0.5036 -0.7691  2.2699
  112OSM    C2S11579   6.612  -0.074  10.425  0.4876  0.5895  0.1600
  112OSM    H2S11580   6.705  -0.091  10.367 -0.0770 -0.9317 -0.3083
  112OSM    C3S11581   6.588  -0.210  10.499  0.1095 -0.0116 -0.8946
  112OSM    H3S11582   6.498  -0.209  10.563  1.3236  2.8622  0.8515
  112OSM     O311583   6.695  -0.237  10.589  0.1301  0.3724  0.5537
  112OSM    HO311584   6.741  -0.154  10.605 -1.1993  1.1574  0.4033
  112OSM    C4S11585   6.566  -0.320  10.404 -0.1132 -0.1489  0.3254
  112OSM    H4S11586   6.459  -0.348  10.403 -0.3818  0.9004 -0.9406
  112OSM    C5S11587   6.649  -0.399  10.338 -0.1412 -0.0972  0.5003
  112OSM    H5S11588   6.756  -0.404  10.367 -0.2959  1.7255  1.5191
  112OSM    C6S11589   6.613  -0.522  10.253 -0.1177  0.0893 -0.6709
  112OSM    H6S11590   6.503  -0.538  10.253 -0.3945  1.8110  0.8585
  112OSM    H6T11591   6.663  -0.618  10.278  1.4010  0.6250 -1.6416
  112OSM    C7S11592   6.642  -0.487  10.105 -0.0270  0.2733  0.5844
  112OSM    H7S11593   6.636  -0.585  10.053  1.3162  0.6283 -0.2639
  112OSM    H7T11594   6.742  -0.445  10.081 -0.2761  0.6997  0.2895
  112OSM    C8S11595   6.532  -0.390  10.032 -0.4148  0.3591  0.2488
  112OSM    H8S11596   6.552  -0.287  10.069  1.4657  0.4307 -0.8636
  112OSM    H8T11597   6.433  -0.424  10.067 -0.7470 -0.1106 -1.1221
  112OSM    C9S11598   6.525  -0.415   9.883 -0.8105 -0.7146 -0.0069
  112OSM    H9S11599   6.495  -0.521   9.872 -2.9675 -0.0721 -0.5519
  112OSM    H9T11600   6.628  -0.406   9.842 -1.1432  1.7438 -0.3905
  112OSM   C10S11601   6.438  -0.313   9.822  0.2018 -0.8721 -0.0406
  112OSM   H10S11602   6.479  -0.214   9.850 -0.8973 -0.0718 -1.2023
  112OSM   H10T11603   6.337  -0.322   9.868  0.7193  1.2232  1.5262
  112OSM   C11S11604   6.422  -0.331   9.669 -0.9399 -0.4233 -1.2410
  112OSM   H11S11605   6.357  -0.421   9.656 -2.3329  0.5489 -1.1167
  112OSM   H11T11606   6.518  -0.342   9.614  0.8283  0.2451  1.6151
  112OSM   C12S11607   6.348  -0.209   9.615 -0.4828  0.3244 -0.0264
  112OSM   H12S11608   6.350  -0.125   9.688 -0.6310 -0.4000  0.8137
  112OSM   H12T11609   6.239  -0.224   9.605 -0.7702  1.8902  0.5754
  112OSM   C13S11610   6.403  -0.175   9.476 -0.3191  0.4374  0.0435
  112OSM   H13S11611   6.396  -0.275   9.427  1.2503 -0.6290  1.9319
  112OSM   H13T11612   6.508  -0.137   9.477  0.3113 -1.1947  3.3785
  112OSM   C14S11613   6.322  -0.068   9.404  0.1847  0.4785  0.7005
  112OSM   H14S11614   6.390   0.013   9.370 -0.3563  0.4845 -0.4039
  112OSM   H14T11615   6.264  -0.028   9.489 -0.5351  2.4428 -0.6631
  112OSM   C15S11616   6.242  -0.113   9.283 -0.5391  0.3245 -0.4061
  112OSM   H15S11617   6.178  -0.026   9.257 -2.2427 -0.1615  1.9494
  112OSM   H15T11618   6.170  -0.193   9.312 -2.7879  3.5045  3.2750
  112OSM   C16S11619   6.329  -0.148   9.157  0.0093  0.8331  0.5186
  112OSM   H16S11620   6.390  -0.239   9.173 -1.5723 -0.3679 -0.1791
  112OSM   H16T11621   6.399  -0.065   9.133  1.7745 -0.8999 -0.5084
  112OSM   C17S11622   6.246  -0.170   9.029  0.3078 -0.6429  0.2261
  112OSM   H17S11623   6.296  -0.141   8.935  2.3977 -2.1762  0.8270
  112OSM   H17T11624   6.147  -0.119   9.033 -0.1892 -1.4862 -0.9983
  112OSM   C18S11625   6.216  -0.327   9.021  0.4992  0.0905  0.5051
  112OSM   H18S11626   6.216  -0.375   9.121  0.3100 -0.2357  0.3491
  112OSM   H18T11627   6.296  -0.358   8.950  0.5753  4.9737 -1.7838
  112OSM   H18U11628   6.120  -0.352   8.972 -0.3539  2.4139  0.9299
  112OSM    C1F11629   6.509   0.022  10.220 -0.7069 -0.0392  0.0503
  112OSM     OF11630   6.616   0.069  10.187  0.2154  0.0624 -0.1899
  112OSM    C2F11631   6.388   0.014  10.128 -0.3888  0.5288  0.1923
  112OSM    H2F11632   6.299   0.033  10.192  2.3636  2.8556  3.5120
  112OSM    H2G11633   6.366  -0.087  10.086 -1.0562  0.0243  1.7175
  112OSM    C3F11634   6.404   0.120  10.024 -0.0977 -0.0272  0.0876
  112OSM    H3F11635   6.505   0.103   9.980 -0.9771 -0.4804 -1.8131
  112OSM    H3G11636   6.417   0.223  10.061  3.9097 -1.5230  3.2288
  112OSM    C4F11637   6.284   0.105   9.924 -0.7384  0.3294 -0.2181
  112OSM    H4F11638   6.186   0.123   9.971  0.1769  1.2579  1.3813
  112OSM    H4G11639   6.280  -0.001   9.891  1.8748  0.9702 -2.8765
  112OSM    C5F11640   6.312   0.196   9.800 -0.3743  0.1846  0.1666
  112OSM    H5F11641   6.418   0.182   9.770  0.0303 -1.2222  2.1347
  112OSM    H5G11642   6.304   0.304   9.828 -3.8466 -0.1927  0.7574
  112OSM    C6F11643   6.217   0.168   9.693  0.8698 -0.4688  0.2241
  112OSM    H6F11644   6.207   0.058   9.692  2.8697 -0.6600 -0.7544
  112OSM    H6G11645   6.261   0.203   9.598  2.9783 -1.5335  0.7995
  112OSM    C7F11646   6.070   0.219   9.707 -0.2987  0.5607 -0.1670
  112OSM    H7F11647   6.081   0.320   9.751 -1.0110  0.2769  0.6807
  112OSM    H7G11648   6.015   0.162   9.784  0.8046  0.7288  0.7643
  112OSM    C8F11649   5.998   0.217   9.573  0.2109  0.1940 -0.2034
  112OSM    H8F11650   5.892   0.188   9.589  0.9076 -1.7905  0.9975
  112OSM    H8G11651   6.047   0.131   9.522  0.8308 -0.0635  0.8038
  112OSM    C9F11652   6.023   0.349   9.492 -0.0172 -0.4628  0.8138
  112OSM    H9F11653   6.006   0.442   9.548 -0.5061  0.4508 -0.8206
  112OSM   C10F11654   6.044   0.353   9.360  0.9164  0.9347  0.1529
  112OSM   H10F11655   6.027   0.450   9.311  1.0297  1.7868  1.7630
  112OSM   C11F11656   6.056   0.236   9.263  0.5597 -0.0333  0.6621
  112OSM   H11F11657   6.071   0.139   9.315 -0.4233 -0.4386  0.1962
  112OSM   H11G11658   6.136   0.263   9.191 -0.2683  1.8698  0.4289
  112OSM   C12F11659   5.931   0.222   9.175 -0.5383  0.6029 -0.5276
  112OSM   H12F11660   5.844   0.214   9.242  0.0221  2.0495  0.3985
  112OSM   H12G11661   5.943   0.127   9.119 -0.8821 -0.3019  0.9039
  112OSM   C13F11662   5.908   0.331   9.064  0.2799  0.0898 -0.1811
  112OSM   H13F11663   5.932   0.432   9.104  1.8737  1.1313 -3.5701
  112OSM   H13G11664   5.800   0.323   9.038  0.3534 -1.1210 -0.1457
  112OSM   C14F11665   5.979   0.307   8.932  0.1906  0.3948  0.0205
  112OSM   H14F11666   6.005   0.200   8.924 -0.6997  0.3086 -2.1189
  112OSM   H14G11667   6.069   0.371   8.923 -0.7114  1.4614 -1.8205
  112OSM   C15F11668   5.903   0.317   8.798 -0.5326 -0.2454  0.2144
  112OSM   H15F11669   5.842   0.409   8.791 -2.4073 -1.4979 -0.4132
  112OSM   H15G11670   5.823   0.241   8.787 -0.8089 -0.2541  2.1332
  112OSM   C16F11671   5.991   0.300   8.678  0.3834 -0.1200  0.0335
  112OSM   H16F11672   6.037   0.199   8.678 -0.3575 -0.5234  4.0233
  112OSM   H16G11673   6.077   0.370   8.685 -0.4516  0.9409 -0.2242
  112OSM   C17F11674   5.929   0.314   8.545  0.0411 -0.2477  0.0554
  112OSM   H17F11675   5.899   0.421   8.552  0.6294 -0.1321  0.8830
  112OSM   H17G11676   5.832   0.260   8.543 -1.3274  2.1488  0.5591
  112OSM   C18F11677   6.015   0.305   8.415  0.0869 -0.0632  0.2248
  112OSM   H18F11678   5.958   0.356   8.334  0.8361  0.7635  0.2042
  112OSM   H18G11679   6.025   0.200   8.381  2.4460  0.9533 -2.4157
  112OSM   H18H11680   6.117   0.346   8.429 -0.2735  0.1514  2.3427
  113OSM      N11681   6.735   6.016  11.030  0.1768  0.1007  0.3411
  113OSM    C1511682   6.818   5.975  11.143  0.1794  0.3013  0.0280
  113OSM   H15A11683   6.917   6.018  11.137  0.7103 -0.7725  0.8638
  113OSM   H15B11684   6.844   5.870  11.138  3.1573  1.0830 -1.8551
  113OSM   H15C11685   6.770   5.998  11.237 -1.4259 -1.0496 -0.4271
  113OSM    C1411686   6.608   5.951  11.035 -0.0038  0.4442 -0.1796
  113OSM   H14A11687   6.618   5.844  11.020  0.9955  0.2878  1.4651
  113OSM   H14B11688   6.536   5.980  10.961 -1.9739 -0.0644  1.4950
  113OSM   H14C11689   6.563   5.974  11.130  0.2419 -0.7647  0.2404
  113OSM    C1311690   6.709   6.162  11.025  0.3823 -0.8625  0.3832
  113OSM   H13A11691   6.800   6.218  11.010  0.1455 -0.7377 -0.5951
  113OSM   H13B11692   6.656   6.196  11.113 -2.2694  2.2891 -2.3387
  113OSM   H13C11693   6.644   6.177  10.941  1.0717 -0.1674 -0.0387
  113OSM    C1211694   6.806   5.988  10.902  0.2273  0.6152  0.2265
  113OSM   H12A11695   6.887   6.059  10.901 -0.1341  1.0318 -2.6043
  113OSM   H12B11696   6.736   6.007  10.822  0.1982 -1.1739 -0.2050
  113OSM    C1111697   6.862   5.845  10.871  0.4604  0.9787 -0.2996
  113OSM   H11A11698   6.885   5.843  10.762  3.0308  2.1506  0.1780
  113OSM   H11B11699   6.784   5.768  10.883  1.7088 -0.2779 -0.1206
  113OSM      P11700   7.122   5.888  10.918  0.1435 -0.2631 -0.1750
  113OSM    O1311701   7.112   6.037  10.920  0.1356  0.2979  0.3582
  113OSM    O1411702   7.221   5.827  11.006 -0.2353 -0.0893  0.1159
  113OSM    O1111703   7.150   5.837  10.767 -0.4572  0.2830 -0.0023
  113OSM    O1211704   6.979   5.822  10.950  0.0257  0.9587  0.2999
  113OSM    C1S11705   7.190   5.699  10.747  0.4560 -0.1140  0.3929
  113OSM    H1S11706   7.117   5.633  10.797 -0.7406  2.0424  1.5606
  113OSM    H1T11707   7.288   5.677  10.794 -0.0945 -2.5047  0.4612
  113OSM     NF11708   7.216   5.515  10.581 -0.0476  0.3889  0.3750
  113OSM    HNF11709   7.304   5.486  10.543 -0.9772  1.1768 -2.5200
  113OSM    C2S11710   7.178   5.654  10.596  0.2908 -0.6528 -0.6663
  113OSM    H2S11711   7.078   5.672  10.551  0.0012 -0.0097  0.2307
  113OSM    C3S11712   7.266   5.750  10.498 -0.2121 -0.2742 -0.3362
  113OSM    H3S11713   7.372   5.745  10.532 -0.6200  0.5856  1.0980
  113OSM     O311714   7.230   5.888  10.487  0.2225  0.0775  0.1592
  113OSM    HO311715   7.174   5.908  10.562  2.2385  0.4042  1.6252
  113OSM    C4S11716   7.261   5.689  10.357 -0.6502  0.0152  0.1071
  113OSM    H4S11717   7.173   5.735  10.308 -0.4125 -1.3910 -1.6642
  113OSM    C5S11718   7.354   5.619  10.282 -0.1656  0.3995  0.2561
  113OSM    H5S11719   7.451   5.587  10.321 -1.6988 -2.5197  1.8204
  113OSM    C6S11720   7.331   5.567  10.141 -0.0847 -0.1285 -1.0196
  113OSM    H6S11721   7.333   5.457  10.154  0.2446 -0.1768 -1.4735
  113OSM    H6T11722   7.414   5.608  10.079  2.2936 -0.3774  1.8749
  113OSM    C7S11723   7.201   5.597  10.070 -0.0503  0.7652  0.4483
  113OSM    H7S11724   7.176   5.703  10.047 -0.0852 -0.0403 -3.5418
  113OSM    H7T11725   7.113   5.557  10.127  1.4293 -1.9099  0.9605
  113OSM    C8S11726   7.180   5.514   9.936 -0.0237  0.2979 -0.8394
  113OSM    H8S11727   7.152   5.409   9.958 -0.9130  1.0187  1.5185
  113OSM    H8T11728   7.270   5.521   9.870  0.9276  0.3403  0.4350
  113OSM    C9S11729   7.072   5.577   9.846 -0.0111  0.6092  0.5032
  113OSM    H9S11730   7.094   5.684   9.824 -0.0441  0.8289  1.4924
  113OSM    H9T11731   6.978   5.566   9.904 -0.9965 -1.5542 -1.4291
  113OSM   C10S11732   7.059   5.497   9.715 -0.4332 -0.2852  0.1241
  113OSM   H10S11733   7.049   5.389   9.737  0.6627 -0.1711  1.2444
  113OSM   H10T11734   7.162   5.515   9.676 -0.6128 -1.2826 -0.8467
  113OSM   C11S11735   6.962   5.565   9.613  0.2731 -0.2212 -0.3266
  113OSM   H11S11736   6.977   5.672   9.638 -1.5916  0.1077 -0.5117
  113OSM   H11T11737   6.853   5.556   9.631  0.1711 -0.0961 -0.8602
  113OSM   C12S11738   6.987   5.537   9.462  0.2002 -0.3053  0.2380
  113OSM   H12S11739   6.959   5.433   9.437 -1.8078 -0.1433  1.7431
  113OSM   H12T11740   7.098   5.532   9.454  0.6156  1.3405  3.8224
  113OSM   C13S11741   6.935   5.641   9.370  0.1502  0.0949 -0.0406
  113OSM   H13S11742   6.969   5.742   9.402 -1.5657  0.4507  0.7156
  113OSM   H13T11743   6.824   5.648   9.375  0.3000  1.4830  1.8978
  113OSM   C14S11744   6.992   5.620   9.223  0.0551 -0.2155 -0.6221
  113OSM   H14S11745   6.997   5.510   9.210  1.3754 -0.1197 -1.0167
  113OSM   H14T11746   7.098   5.653   9.220 -1.2193  4.0641 -3.0566
  113OSM   C15S11747   6.909   5.690   9.126 -0.0580  0.1336  0.1922
  113OSM   H15S11748   6.911   5.799   9.148 -0.1113 -0.1753  1.7650
  113OSM   H15T11749   6.805   5.649   9.126  1.3223 -3.5392  0.7837
  113OSM   C16S11750   6.967   5.670   8.987  0.5944  0.1617 -0.5400
  113OSM   H16S11751   6.927   5.583   8.931 -1.4770  1.3701 -0.9621
  113OSM   H16T11752   7.078   5.661   8.979  0.6134 -0.3874  0.2557
  113OSM   C17S11753   6.921   5.794   8.895 -0.2444 -0.8875 -0.4929
  113OSM   H17S11754   6.961   5.886   8.943  0.7433 -0.7428 -1.5827
  113OSM   H17T11755   6.811   5.801   8.897 -0.1620  0.5676 -0.6458
  113OSM   C18S11756   6.968   5.784   8.751 -0.0511 -0.0399  0.3170
  113OSM   H18S11757   6.957   5.876   8.688 -0.4664 -1.5732 -1.9063
  113OSM   H18T11758   6.912   5.709   8.692 -0.9358 -0.9814  2.3294
  113OSM   H18U11759   7.076   5.761   8.745 -0.3165 -1.2351 -0.0249
  113OSM    C1F11760   7.129   5.412  10.606 -0.0592  0.1365 -0.1119
  113OSM     OF11761   7.021   5.448  10.660  0.4053 -0.5428 -0.5060
  113OSM    C2F11762   7.161   5.271  10.559 -1.3263 -0.9369  0.0867
  113OSM    H2F11763   7.204   5.215  10.645  0.5685 -2.3874 -1.7559
  113OSM    H2G11764   7.249   5.281  10.491  0.6538 -0.6135  2.6230
  113OSM    C3F11765   7.048   5.190  10.503 -0.5541  0.4672 -0.2301
  113OSM    H3F11766   6.973   5.164  10.581 -0.5431  1.8771  0.2506
  113OSM    H3G11767   7.085   5.090  10.469 -2.0475 -1.3168  3.1335
  113OSM    C4F11768   6.975   5.264  10.389  0.0977 -0.9059  0.2570
  113OSM    H4F11769   6.922   5.346  10.442  0.5087 -1.1162  1.0041
  113OSM    H4G11770   6.891   5.200  10.355 -1.2635  2.0545 -2.1281
  113OSM    C5F11771   7.061   5.314  10.279 -0.0080  0.2334  0.3412
  113OSM    H5F11772   7.149   5.372  10.314 -0.6226  1.2556  0.2293
  113OSM    H5G11773   7.000   5.380  10.213  0.3849 -0.2953 -0.5556
  113OSM    C6F11774   7.112   5.199  10.190 -0.1992  0.2492  0.1070
  113OSM    H6F11775   7.168   5.129  10.256 -1.1873 -1.8288 -1.2119
  113OSM    H6G11776   7.178   5.242  10.112  2.2632 -0.9471  1.4499
  113OSM    C7F11777   6.993   5.118  10.128 -0.5407 -0.2232  0.2728
  113OSM    H7F11778   6.917   5.196  10.107  1.2431  0.5821 -3.6090
  113OSM    H7G11779   6.967   5.037  10.199  0.3625  0.4303  1.3518
  113OSM    C8F11780   7.038   5.044   9.997 -0.1841 -0.6801  0.0956
  113OSM    H8F11781   7.127   4.982  10.021 -1.8105 -2.4827  1.5420
  113OSM    H8G11782   7.061   5.119   9.918  0.1328 -0.6028  0.2580
  113OSM    C9F11783   6.918   4.961   9.962  0.1479  0.0833 -0.2094
  113OSM    H9F11784   6.905   4.875  10.028 -2.9304  1.6341  1.2707
  113OSM   C10F11785   6.817   4.999   9.875  0.9870 -0.2994  0.1760
  113OSM   H10F11786   6.726   4.938   9.877 -1.3456  3.0612 -0.0323
  113OSM   C11F11787   6.807   5.135   9.806  1.0673  0.4236  0.5967
  113OSM   H11F11788   6.899   5.197   9.810  0.2444  1.6599  0.3880
  113OSM   H11G11789   6.728   5.200   9.849  0.8907  0.2509  0.5339
  113OSM   C12F11790   6.767   5.122   9.656 -0.4462 -0.7118  0.1954
  113OSM   H12F11791   6.683   5.056   9.627  1.0110 -1.4458 -2.6240
  113OSM   H12G11792   6.854   5.088   9.596 -1.3846  1.3853 -2.4919
  113OSM   C13F11793   6.746   5.261   9.587 -1.0615 -0.2465  0.0650
  113OSM   H13F11794   6.844   5.314   9.585 -0.5199 -1.1269  2.3553
  113OSM   H13G11795   6.669   5.305   9.654  0.9797 -0.9502  2.9216
  113OSM   C14F11796   6.690   5.251   9.442 -0.3357 -0.4051  0.1485
  113OSM   H14F11797   6.596   5.193   9.442  0.5508 -2.0079 -3.8197
  113OSM   H14G11798   6.754   5.186   9.378 -0.7240 -0.6406 -0.0043
  113OSM   C15F11799   6.664   5.383   9.368 -0.1355  0.2210 -0.2992
  113OSM   H15F11800   6.752   5.448   9.351 -0.9935  1.5351  0.1959
  113OSM   H15G11801   6.589   5.441   9.425 -0.5201  0.6232 -1.2109
  113OSM   C16F11802   6.597   5.349   9.229 -0.2022 -0.8302 -0.3503
  113OSM   H16F11803   6.536   5.438   9.205  1.8742  1.5098  2.5356
  113OSM   H16G11804   6.535   5.259   9.247 -0.2073 -1.1129 -1.7802
  113OSM   C17F11805   6.696   5.327   9.113 -0.2231  0.1484  0.0575
  113OSM   H17F11806   6.739   5.224   9.111  0.3395  0.3278  1.7739
  113OSM   H17G11807   6.776   5.402   9.132 -0.3747 -0.2238  2.3572
  113OSM   C18F11808   6.636   5.355   8.974  0.2211 -0.0015 -0.2587
  113OSM   H18F11809   6.704   5.340   8.887 -1.7524 -0.5442 -1.7531
  113OSM   H18G11810   6.606   5.462   8.966  0.2997 -0.0252 -0.8887
  113OSM   H18H11811   6.545   5.294   8.955  0.2181 -0.5058  1.3395
  114OSM      N11812   1.755   4.477  11.859  0.2796 -0.9213  0.1684
  114OSM    C1511813   1.776   4.499  12.001  0.4090 -0.4000 -0.1544
  114OSM   H15A11814   1.814   4.600  12.010  0.2207 -0.2839 -0.6823
  114OSM   H15B11815   1.842   4.435  12.058 -1.2284 -0.4050  1.8173
  114OSM   H15C11816   1.689   4.481  12.063  2.4126 -2.9092  2.0704
  114OSM    C1411817   1.700   4.341  11.833  0.5087 -0.3045  0.0127
  114OSM   H14A11818   1.681   4.335  11.726  1.4667  0.4509 -0.1975
  114OSM   H14B11819   1.598   4.324  11.864 -0.5020  2.4574 -1.6158
  114OSM   H14C11820   1.762   4.257  11.858  2.2224  0.3808 -1.8086
  114OSM    C1311821   1.657   4.576  11.809  0.2765  0.3087  0.4439
  114OSM   H13A11822   1.564   4.585  11.864  0.1906 -1.0106  0.5261
  114OSM   H13B11823   1.625   4.564  11.707  0.6919 -2.9503  0.6325
  114OSM   H13C11824   1.708   4.669  11.829  0.0226  0.1184  2.0311
  114OSM    C1211825   1.889   4.487  11.794 -0.6926  0.9655 -0.2858
  114OSM   H12A11826   1.951   4.406  11.829  0.6638  1.2156 -1.9760
  114OSM   H12B11827   1.931   4.583  11.823  3.4920 -1.2767  1.5820
  114OSM    C1111828   1.898   4.473  11.639  0.4037  0.0703 -0.1933
  114OSM   H11A11829   1.818   4.538  11.597 -1.1522 -1.5851  0.1242
  114OSM   H11B11830   1.869   4.372  11.603  2.0380 -0.4857  0.0339
  114OSM      P11831   2.062   4.650  11.561  0.3819  0.3498 -0.4668
  114OSM    O1311832   2.004   4.744  11.656  0.1256  0.1544 -0.1252
  114OSM    O1411833   2.210   4.650  11.539 -0.2588  0.2360  0.4298
  114OSM    O1111834   1.982   4.668  11.424  0.2061  0.3815  0.2565
  114OSM    O1211835   2.026   4.508  11.598 -0.2857  0.8189  0.8021
  114OSM    C1S11836   2.031   4.623  11.300  0.4723  0.1049 -0.2554
  114OSM    H1S11837   1.977   4.529  11.275 -0.0679  0.7159 -1.4023
  114OSM    H1T11838   2.139   4.598  11.298  1.2961  3.2323  1.2439
  114OSM     NF11839   2.053   4.679  11.061 -0.1473 -0.2618  0.4768
  114OSM    HNF11840   2.134   4.721  11.020 -1.0887  1.2903  0.1840
  114OSM    C2S11841   2.008   4.730  11.184 -0.7170 -0.5411  0.3044
  114OSM    H2S11842   1.900   4.748  11.167 -0.4134  0.9137 -0.1854
  114OSM    C3S11843   2.076   4.859  11.229 -0.1934  0.1488 -0.3226
  114OSM    H3S11844   2.184   4.845  11.251 -0.6692 -1.1972  1.2871
  114OSM     O311845   2.026   4.925  11.345  0.2904 -0.0071  0.4140
  114OSM    HO311846   1.963   4.862  11.382  0.3841  1.4433  3.1820
  114OSM    C4S11847   2.074   4.965  11.114 -0.2028  0.2038  0.5626
  114OSM    H4S11848   2.173   4.958  11.066 -0.2323  0.8195  0.4000
  114OSM    C5S11849   1.966   5.039  11.079  0.1980 -0.3585 -0.7547
  114OSM    H5S11850   1.876   5.038  11.143 -0.0746  0.7882 -1.0948
  114OSM    C6S11851   1.964   5.135  10.964 -0.0738 -1.0361 -0.2124
  114OSM    H6S11852   2.069   5.152  10.932  0.6567 -1.5078  1.8384
  114OSM    H6T11853   1.916   5.232  10.987 -0.1742 -0.8549 -1.2020
  114OSM    C7S11854   1.886   5.084  10.837 -0.5309  0.4326  0.0004
  114OSM    H7S11855   1.899   5.164  10.762  1.2691  1.0743  0.9493
  114OSM    H7T11856   1.777   5.085  10.855 -0.1872  0.4554  2.1991
  114OSM    C8S11857   1.938   4.943  10.793  0.2920  0.1585  0.1288
  114OSM    H8S11858   1.886   4.864  10.852 -1.8293  0.4014 -1.3959
  114OSM    H8T11859   2.047   4.939  10.816  0.1238  1.2610  1.1981
  114OSM    C9S11860   1.930   4.915  10.650 -0.2768  0.3296  0.1550
  114OSM    H9S11861   1.977   4.816  10.631  1.6239  0.6362  2.9671
  114OSM    H9T11862   1.990   4.991  10.597  0.8301 -0.1737  0.6733
  114OSM   C10S11863   1.791   4.939  10.593  0.2014  0.1627 -0.6586
  114OSM   H10S11864   1.754   5.043  10.610  0.4272 -0.3405  3.3455
  114OSM   H10T11865   1.721   4.876  10.651  0.2619  0.6266 -0.0796
  114OSM   C11S11866   1.791   4.909  10.440  0.2268  0.3870 -0.0705
  114OSM   H11S11867   1.805   4.799  10.443  2.1045  0.5551 -1.4931
  114OSM   H11T11868   1.881   4.956  10.393  0.5905 -0.6395 -0.3991
  114OSM   C12S11869   1.667   4.945  10.360  0.2544  0.1548  0.2383
  114OSM   H12S11870   1.642   5.053  10.347 -0.3998  0.0934  0.9350
  114OSM   H12T11871   1.580   4.891  10.404 -0.8394  2.4469  1.0084
  114OSM   C13S11872   1.687   4.894  10.214 -0.5091  0.6066 -0.5865
  114OSM   H13S11873   1.712   4.786  10.202  0.6156  0.6741  1.1228
  114OSM   H13T11874   1.762   4.964  10.172 -0.0028 -0.6750 -1.8465
  114OSM   C14S11875   1.565   4.904  10.125 -0.2637  0.0847  0.3634
  114OSM   H14S11876   1.518   5.003  10.143 -0.0798  0.2698 -0.1670
  114OSM   H14T11877   1.485   4.833  10.156  1.9062 -1.6132  2.2345
  114OSM   C15S11878   1.599   4.900   9.975  0.1480 -0.5738  0.5496
  114OSM   H15S11879   1.639   4.801   9.942  0.4160 -0.0537 -0.7114
  114OSM   H15T11880   1.679   4.973   9.952 -0.5446  0.2063  0.5913
  114OSM   C16S11881   1.479   4.922   9.889 -0.1033 -0.2573 -0.0701
  114OSM   H16S11882   1.419   5.010   9.921  0.0117 -0.9684  2.2023
  114OSM   H16T11883   1.415   4.832   9.901 -0.2108 -0.2097 -0.2927
  114OSM   C17S11884   1.513   4.927   9.739 -0.5704  0.0063 -0.5969
  114OSM   H17S11885   1.544   4.829   9.697 -1.5534 -0.7682  0.4553
  114OSM   H17T11886   1.600   4.995   9.725  0.2930 -1.1959 -1.2164
  114OSM   C18S11887   1.402   4.976   9.649  0.0745 -0.0642  0.2349
  114OSM   H18S11888   1.363   5.071   9.692  0.5561  0.2300  0.0172
  114OSM   H18T11889   1.320   4.900   9.652  0.9839 -1.0051  2.7123
  114OSM   H18U11890   1.446   4.992   9.549  0.2879 -0.5439  0.2511
  114OSM    C1F11891   1.988   4.588  11.004  0.1664  0.5780  0.2162
  114OSM     OF11892   1.892   4.534  11.054  0.3423  0.4911  0.3373
  114OSM    C2F11893   2.031   4.551  10.871  0.2543 -0.0257 -0.0979
  114OSM    H2F11894   2.138   4.524  10.862  0.1896 -0.4016  0.2542
  114OSM    H2G11895   2.009   4.635  10.802 -1.6793 -0.1467  0.3347
  114OSM    C3F11896   1.952   4.431  10.821 -0.2081 -0.3065  0.2363
  114OSM    H3F11897   1.842   4.448  10.827 -0.3593 -1.9894  2.5784
  114OSM    H3G11898   1.954   4.348  10.894  1.2764 -0.6991 -0.2370
  114OSM    C4F11899   1.996   4.382  10.683 -0.3397 -0.3926  0.5696
  114OSM    H4F11900   1.938   4.289  10.665 -0.4153  0.3361 -3.3925
  114OSM    H4G11901   2.103   4.360  10.669 -0.8210 -2.6103  0.2001
  114OSM    C5F11902   1.939   4.482  10.578 -0.4144  0.3716  0.1394
  114OSM    H5F11903   1.984   4.584  10.576 -0.8042  0.5415  0.0550
  114OSM    H5G11904   1.834   4.503  10.608 -0.4248  0.5440 -0.0163
  114OSM    C6F11905   1.938   4.423  10.440 -0.0214 -0.1107  0.0173
  114OSM    H6F11906   1.874   4.333  10.433  0.9280 -0.9793  2.2220
  114OSM    H6G11907   2.037   4.391  10.403 -0.3969 -0.9589 -0.2628
  114OSM    C7F11908   1.888   4.523  10.332  0.7550 -0.4224 -0.2545
  114OSM    H7F11909   1.962   4.606  10.334 -1.3697  1.5074 -0.6457
  114OSM    H7G11910   1.792   4.566  10.368  1.2460  2.2837 -2.0145
  114OSM    C8F11911   1.868   4.453  10.196 -0.2057  0.3590  0.9140
  114OSM    H8F11912   1.803   4.523  10.139  1.2184  0.7712 -0.2465
  114OSM    H8G11913   1.802   4.364  10.193  0.3356 -0.0616  1.3017
  114OSM    C9F11914   1.995   4.441  10.118 -0.5219 -0.3417  0.5274
  114OSM    H9F11915   2.082   4.435  10.185 -0.1138 -0.3716  0.0010
  114OSM   C10F11916   2.012   4.438   9.983  0.0623 -0.4467  0.2371
  114OSM   H10F11917   2.114   4.434   9.942 -0.0918 -0.3115 -0.1522
  114OSM   C11F11918   1.900   4.454   9.889  0.3891 -0.6226  0.0372
  114OSM   H11F11919   1.811   4.494   9.943  0.3232 -1.3598  0.4766
  114OSM   H11G11920   1.858   4.358   9.851 -0.7953  0.4020 -1.3416
  114OSM   C12F11921   1.923   4.550   9.767 -0.2517  0.4516  0.3895
  114OSM   H12F11922   2.027   4.532   9.733 -0.5535 -0.0353 -0.2809
  114OSM   H12G11923   1.919   4.652   9.810  0.1428  0.3274  0.7291
  114OSM   C13F11924   1.819   4.520   9.655  0.4061 -0.5690 -0.0653
  114OSM   H13F11925   1.719   4.536   9.701 -0.6221 -0.5873 -2.2118
  114OSM   H13G11926   1.838   4.417   9.618  0.7167 -1.0854  1.5150
  114OSM   C14F11927   1.821   4.621   9.539 -0.0842  0.7372  0.0684
  114OSM   H14F11928   1.790   4.721   9.576 -2.4759 -0.2260  0.7921
  114OSM   H14G11929   1.744   4.587   9.467 -0.2801 -0.3643  0.7824
  114OSM   C15F11930   1.954   4.628   9.454 -0.0995 -0.4270  0.5501
  114OSM   H15F11931   1.983   4.527   9.418 -2.2908 -0.8227 -0.1917
  114OSM   H15G11932   2.040   4.672   9.509  0.9338  1.1299 -2.2290
  114OSM   C16F11933   1.927   4.704   9.321  1.1146  1.0185 -0.8500
  114OSM   H16F11934   1.907   4.810   9.349  1.5438  0.4651  1.7366
  114OSM   H16G11935   1.845   4.649   9.271  1.1733 -1.8692  2.0255
  114OSM   C17F11936   2.027   4.689   9.208 -0.3919 -0.0550 -0.8838
  114OSM   H17F11937   2.014   4.586   9.170  1.2363  0.0463 -1.7403
  114OSM   H17G11938   2.130   4.698   9.249  0.2097 -2.2052 -1.8755
  114OSM   C18F11939   2.016   4.794   9.089  0.0160  0.1984 -0.6356
  114OSM   H18F11940   1.941   4.760   9.015 -0.1971 -0.3606 -0.1671
  114OSM   H18G11941   2.117   4.800   9.042 -0.3704 -1.9609 -1.8146
  114OSM   H18H11942   1.985   4.894   9.124  0.1583  0.3119 -0.8328
  115OSM      N11943   3.561   1.989   5.895  0.3116 -0.7869  0.5628
  115OSM    C1511944   3.507   2.125   5.898  0.0959 -0.2380  0.2202
  115OSM   H15A11945   3.463   2.155   5.804  0.6334  0.7036  0.2643
  115OSM   H15B11946   3.586   2.194   5.924 -1.3211  1.1516  0.8631
  115OSM   H15C11947   3.427   2.122   5.970 -0.6393  0.8746 -0.5376
  115OSM    C1411948   3.444   1.889   5.873 -0.6775  0.1250 -0.2992
  115OSM   H14A11949   3.492   1.796   5.846  0.1151  1.1498 -2.6006
  115OSM   H14B11950   3.371   1.921   5.801 -0.8436  1.1548  0.3120
  115OSM   H14C11951   3.385   1.870   5.961  1.0115  2.5166  1.4159
  115OSM    C1311952   3.656   1.982   5.778 -0.7062  0.7015  0.1967
  115OSM   H13A11953   3.712   1.889   5.774  1.3523  1.9584 -1.5065
  115OSM   H13B11954   3.727   2.063   5.788  0.3651  0.0482 -1.7415
  115OSM   H13C11955   3.609   1.991   5.682 -1.5844  1.3908  0.6897
  115OSM    C1211956   3.624   1.969   6.033 -0.6456 -0.6680 -0.1882
  115OSM   H12A11957   3.691   2.053   6.045 -2.8773  1.4029 -1.5876
  115OSM   H12B11958   3.690   1.884   6.034 -0.6731 -0.6798  1.4811
  115OSM    C1111959   3.539   1.954   6.161 -0.0830 -0.1752  0.3987
  115OSM   H11A11960   3.472   2.041   6.177 -0.8896 -0.9059  1.0837
  115OSM   H11B11961   3.616   1.959   6.241  0.7146 -1.4031 -0.2816
  115OSM      P11962   3.324   1.814   6.229  0.0687  0.2812 -0.1016
  115OSM    O1311963   3.238   1.899   6.139 -0.3979 -0.3826 -0.5158
  115OSM    O1411964   3.288   1.668   6.249 -0.2959  0.0892  0.0143
  115OSM    O1111965   3.327   1.894   6.369 -0.1284 -0.1026 -0.3095
  115OSM    O1211966   3.466   1.824   6.163 -0.0423  0.2756  0.3623
  115OSM    C1S11967   3.365   1.821   6.484 -0.1177 -0.3143 -0.2009
  115OSM    H1S11968   3.456   1.759   6.473  1.4758  2.1692 -1.3511
  115OSM    H1T11969   3.288   1.743   6.501  0.8248 -0.7632  2.2423
  115OSM     NF11970   3.422   1.837   6.722  0.7195  0.3395 -0.6405
  115OSM    HNF11971   3.350   1.785   6.768 -0.5791  1.1372 -1.7284
  115OSM    C2S11972   3.366   1.912   6.613 -1.0880  0.3157 -0.2622
  115OSM    H2S11973   3.434   1.999   6.598 -0.4980 -0.0134  0.4543
  115OSM    C3S11974   3.228   1.967   6.654  0.9037 -0.0072  0.0664
  115OSM    H3S11975   3.158   1.881   6.664  1.6002 -0.6350 -0.4340
  115OSM     O311976   3.170   2.049   6.551 -0.0195  0.0416 -0.5898
  115OSM    HO311977   3.221   2.047   6.469  1.5850  2.1164  0.3143
  115OSM    C4S11978   3.235   2.043   6.789 -0.5864 -0.0962  0.3728
  115OSM    H4S11979   3.235   1.973   6.874 -0.7387  1.0135  1.3069
  115OSM    C5S11980   3.244   2.175   6.808  0.3130  0.2855  0.1897
  115OSM    H5S11981   3.261   2.234   6.717  0.0385 -0.1207 -0.1311
  115OSM    C6S11982   3.248   2.244   6.942 -0.0895 -0.0508  0.1929
  115OSM    H6S11983   3.186   2.335   6.923  0.4196 -0.0692 -1.7070
  115OSM    H6T11984   3.350   2.281   6.963 -0.4204  0.7317  0.4389
  115OSM    C7S11985   3.191   2.167   7.062  0.3387  0.5025 -0.2190
  115OSM    H7S11986   3.239   2.068   7.080 -1.1765 -0.2037 -0.0111
  115OSM    H7T11987   3.083   2.150   7.044  0.0909  1.0013  0.7647
  115OSM    C8S11988   3.189   2.245   7.201 -0.5256  0.2357  0.2012
  115OSM    H8S11989   3.134   2.341   7.216 -0.2760  0.0612  2.2854
  115OSM    H8T11990   3.294   2.272   7.225 -1.0241  2.8094 -0.3543
  115OSM    C9S11991   3.158   2.163   7.324  0.1147  0.1139  0.6524
  115OSM    H9S11992   3.208   2.065   7.314  0.0455  0.0440  0.9854
  115OSM    H9T11993   3.051   2.133   7.325  1.0248 -3.2518  1.6187
  115OSM   C10S11994   3.181   2.233   7.457 -0.0576 -0.3032  0.6063
  115OSM   H10S11995   3.099   2.308   7.458  0.9548  0.8050  2.3232
  115OSM   H10T11996   3.272   2.295   7.444 -0.4754  0.2369  0.2331
  115OSM   C11S11997   3.188   2.134   7.573 -0.1540 -0.0585 -0.6280
  115OSM   H11S11998   3.263   2.056   7.549 -0.0555 -0.9654  2.5059
  115OSM   H11T11999   3.088   2.085   7.575 -1.1961  2.0236 -0.0142
  115OSM   C12S12000   3.206   2.223   7.697  0.3432  0.3100 -0.2906
  115OSM   H12S12001   3.157   2.321   7.677  1.6841  1.0049 -0.1801
  115OSM   H12T12002   3.310   2.252   7.722 -0.3661  1.2084  1.7439
  115OSM   C13S12003   3.150   2.144   7.816 -0.0907  0.6161 -0.2549
  115OSM   H13S12004   3.228   2.067   7.838 -0.2392  1.1860  2.4239
  115OSM   H13T12005   3.056   2.096   7.782 -0.3396  1.2462 -0.4580
  115OSM   C14S12006   3.118   2.234   7.939 -0.8135  0.2984 -0.6630
  115OSM   H14S12007   3.028   2.294   7.911 -1.0780 -0.2697 -1.0479
  115OSM   H14T12008   3.199   2.304   7.966  0.5113 -2.7135  3.6079
  115OSM   C15S12009   3.092   2.154   8.067  0.2622 -0.1085  0.6901
  115OSM   H15S12010   3.031   2.063   8.052  0.9641 -0.4153 -0.3951
  115OSM   H15T12011   3.031   2.203   8.145  0.4644  1.6962 -0.2467
  115OSM   C16S12012   3.219   2.113   8.134  0.2039 -0.5677 -0.4098
  115OSM   H16S12013   3.272   2.206   8.163  1.9275 -1.9391  0.9356
  115OSM   H16T12014   3.288   2.071   8.057  0.4288 -1.4885  0.2898
  115OSM   C17S12015   3.188   2.021   8.253 -0.0988 -0.4685  0.6361
  115OSM   H17S12016   3.107   1.951   8.225 -0.6596 -0.9321  3.2416
  115OSM   H17T12017   3.149   2.084   8.336  2.3927  1.0560  0.6940
  115OSM   C18S12018   3.308   1.950   8.310 -0.2747  0.0860  0.1154
  115OSM   H18S12019   3.379   2.031   8.337 -1.1519  0.5546  1.0178
  115OSM   H18T12020   3.356   1.884   8.234 -0.3150  0.2043 -0.0120
  115OSM   H18U12021   3.287   1.895   8.404 -0.8528 -0.8902 -0.5746
  115OSM    C1F12022   3.548   1.808   6.732 -0.0840  0.6045  0.1570
  115OSM     OF12023   3.633   1.841   6.650  0.4709 -0.4571 -0.6781
  115OSM    C2F12024   3.582   1.734   6.857  0.1695  0.0405  0.1934
  115OSM    H2F12025   3.670   1.669   6.840  0.1507  0.5582 -1.9399
  115OSM    H2G12026   3.501   1.665   6.888 -0.2131  0.5422  0.3263
  115OSM    C3F12027   3.609   1.836   6.977  0.0824  0.1242 -0.3088
  115OSM    H3F12028   3.516   1.894   6.993  0.5253  0.3094  1.7618
  115OSM    H3G12029   3.694   1.905   6.960 -0.5721  0.9244 -0.3286
  115OSM    C4F12030   3.633   1.757   7.107 -0.4683  0.1456  0.1927
  115OSM    H4F12031   3.731   1.704   7.112 -1.8093 -2.2815  2.2867
  115OSM    H4G12032   3.553   1.681   7.116 -0.1831 -0.2640 -0.6651
  115OSM    C5F12033   3.627   1.853   7.229 -0.1839  0.5631  0.1183
  115OSM    H5F12034   3.543   1.920   7.202  1.1356  2.2572  0.0507
  115OSM    H5G12035   3.724   1.908   7.226  0.3323 -0.3186  0.7269
  115OSM    C6F12036   3.596   1.788   7.364  0.3570 -0.3963  0.0264
  115OSM    H6F12037   3.683   1.795   7.433 -0.6196  2.1335  1.0667
  115OSM    H6G12038   3.573   1.681   7.346 -1.2465  0.0964 -0.9521
  115OSM    C7F12039   3.477   1.855   7.436  0.3894  0.0907 -0.1719
  115OSM    H7F12040   3.397   1.864   7.360  1.2455 -3.6945 -1.6095
  115OSM    H7G12041   3.503   1.956   7.473 -1.4013  1.1340 -1.6806
  115OSM    C8F12042   3.454   1.758   7.552  0.4333  0.4979 -0.3031
  115OSM    H8F12043   3.546   1.713   7.595  1.4027  1.3389 -1.4655
  115OSM    H8G12044   3.398   1.675   7.505  0.4386  0.2784  0.0800
  115OSM    C9F12045   3.373   1.813   7.661  0.4757 -0.6300  0.0658
  115OSM    H9F12046   3.425   1.899   7.706 -0.1099 -0.1970 -0.0796
  115OSM   C10F12047   3.262   1.768   7.716  0.1466  0.4912  0.4143
  115OSM   H10F12048   3.227   1.826   7.802  2.4165  0.6892  1.2434
  115OSM   C11F12049   3.188   1.637   7.691 -0.0955 -0.4817  0.4832
  115OSM   H11F12050   3.258   1.568   7.639 -0.0265  2.2592 -3.3142
  115OSM   H11G12051   3.099   1.661   7.629  0.3399 -0.4417 -0.1273
  115OSM   C12F12052   3.152   1.563   7.825  0.5069 -0.1115 -0.1333
  115OSM   H12F12053   3.248   1.558   7.881 -1.4514  1.4924  3.5573
  115OSM   H12G12054   3.118   1.463   7.792 -0.9854  0.4160 -0.2566
  115OSM   C13F12055   3.060   1.633   7.917  0.1829  0.4942  0.0313
  115OSM   H13F12056   2.957   1.599   7.891  0.0909  0.3657  0.5414
  115OSM   H13G12057   3.052   1.743   7.915 -2.5046  0.4182  2.8790
  115OSM   C14F12058   3.070   1.603   8.065  0.2216 -0.5880 -0.0979
  115OSM   H14F12059   3.166   1.653   8.091  0.1741  0.5182 -1.9965
  115OSM   H14G12060   3.073   1.495   8.088  2.3823 -0.8956 -1.8085
  115OSM   C15F12061   2.954   1.657   8.150  0.0168 -0.4942  0.1735
  115OSM   H15F12062   2.861   1.602   8.126  0.5256 -0.5697 -1.7503
  115OSM   H15G12063   2.933   1.761   8.117 -2.2571 -1.5804 -1.9561
  115OSM   C16F12064   2.967   1.662   8.303  0.1454  0.3843  0.9190
  115OSM   H16F12065   3.009   1.758   8.339  0.6744  0.6658 -0.4032
  115OSM   H16G12066   3.050   1.598   8.340 -0.4316 -0.3550  0.9448
  115OSM   C17F12067   2.831   1.645   8.370  0.0662 -0.2426 -0.3663
  115OSM   H17F12068   2.779   1.553   8.336  2.5721 -2.1742  0.8159
  115OSM   H17G12069   2.763   1.729   8.345  0.6537  0.0588 -0.9552
  115OSM   C18F12070   2.844   1.639   8.522 -0.2997 -0.8012  0.5631
  115OSM   H18F12071   2.865   1.737   8.569 -0.3376 -0.2846 -0.4927
  115OSM   H18G12072   2.920   1.566   8.557 -0.7807  0.5852  4.8998
  115OSM   H18H12073   2.748   1.603   8.566 -0.8301  1.0438  0.9500
  116OSM      N12074   2.208   0.221   6.397 -0.2170 -0.2957  0.6303
  116OSM    C1512075   2.125   0.096   6.363  0.8886  0.6660 -0.8411
  116OSM   H15A12076   2.158   0.009   6.417  0.5914  1.0358 -0.0477
  116OSM   H15B12077   2.131   0.064   6.261 -1.5018  1.6010 -1.3205
  116OSM   H15C12078   2.027   0.118   6.403  0.7010 -0.1422 -0.8431
  116OSM    C1412079   2.218   0.307   6.275 -0.6056  0.6182  0.6893
  116OSM   H14A12080   2.286   0.385   6.307 -2.7949  1.0032  4.7034
  116OSM   H14B12081   2.122   0.350   6.252 -0.1378  2.0082  1.3104
  116OSM   H14C12082   2.265   0.271   6.185 -1.2884  1.2417  0.0787
  116OSM    C1312083   2.162   0.301   6.510  0.7764  0.5150  0.4590
  116OSM   H13A12084   2.059   0.333   6.496  0.8498  1.1790  1.3940
  116OSM   H13B12085   2.214   0.396   6.509  1.7406 -0.0080  1.4516
  116OSM   H13C12086   2.169   0.259   6.609 -2.1947 -0.5095  0.2816
  116OSM    C1212087   2.348   0.173   6.430 -0.4988  0.7485 -0.7591
  116OSM   H12A12088   2.341   0.083   6.489 -0.2914 -0.7857 -3.0172
  116OSM   H12B12089   2.402   0.256   6.473  0.5833 -0.3412  0.0279
  116OSM    C1112090   2.442   0.131   6.310 -0.1355 -0.3042 -0.1198
  116OSM   H11A12091   2.549   0.128   6.341 -0.8846  1.5558  2.9051
  116OSM   H11B12092   2.435   0.204   6.227 -2.2823  0.4574  0.6891
  116OSM      P12093   2.418  -0.124   6.336 -0.3631 -0.1071  0.2284
  116OSM    O1312094   2.315  -0.221   6.311  0.1362 -0.0512 -0.4067
  116OSM    O1412095   2.553  -0.173   6.322 -0.5780 -0.3688 -0.1041
  116OSM    O1112096   2.402  -0.095   6.489 -0.1663  0.4663  0.4116
  116OSM    O1212097   2.401   0.011   6.250 -0.0541  0.1596  0.1813
  116OSM    C1S12098   2.459  -0.188   6.588  0.4037  0.1397  0.0526
  116OSM    H1S12099   2.569  -0.191   6.601  0.0737 -1.3924  2.9537
  116OSM    H1T12100   2.432  -0.291   6.555 -0.4236  0.2366  0.4023
  116OSM     NF12101   2.461  -0.264   6.825  0.0704  0.1251  0.9877
  116OSM    HNF12102   2.400  -0.335   6.859  0.0414 -0.3802 -0.1003
  116OSM    C2S12103   2.395  -0.169   6.729 -0.0356 -0.0934  0.3048
  116OSM    H2S12104   2.437  -0.068   6.751  0.4693 -0.0132 -1.0095
  116OSM    C3S12105   2.239  -0.175   6.735 -0.7607  0.1521  0.1305
  116OSM    H3S12106   2.205  -0.279   6.719 -1.1286 -0.3475  3.7068
  116OSM     O312107   2.177  -0.097   6.640 -0.0520 -0.4673 -0.0963
  116OSM    HO312108   2.254  -0.064   6.593 -0.9652 -0.5585 -1.7030
  116OSM    C4S12109   2.196  -0.117   6.871  0.7791 -0.4788  0.4278
  116OSM    H4S12110   2.205  -0.008   6.877 -0.7356 -0.4327  2.2443
  116OSM    C5S12111   2.142  -0.183   6.969  0.6521 -0.0464 -0.0870
  116OSM    H5S12112   2.140  -0.291   6.949  0.3384  0.0063 -0.3362
  116OSM    C6S12113   2.100  -0.134   7.106  0.4679  0.2657 -0.7346
  116OSM    H6S12114   1.992  -0.159   7.116  0.1553  2.3928  1.7046
  116OSM    H6T12115   2.107  -0.023   7.109 -0.3905  0.3087 -0.0546
  116OSM    C7S12116   2.179  -0.189   7.225 -0.1913 -0.0955 -0.6085
  116OSM    H7S12117   2.287  -0.169   7.216 -0.3358  1.4104  0.8011
  116OSM    H7T12118   2.149  -0.296   7.230  0.1773 -0.1885 -0.3749
  116OSM    C8S12119   2.133  -0.111   7.352  0.1198  0.7604  0.2032
  116OSM    H8S12120   2.025  -0.124   7.372 -0.3003  3.5569 -0.1108
  116OSM    H8T12121   2.167  -0.007   7.331  1.7958  0.2147  0.0928
  116OSM    C9S12122   2.204  -0.168   7.469 -0.3465  0.2447  0.0085
  116OSM    H9S12123   2.315  -0.162   7.463 -0.2197  1.7072  2.8650
  116OSM    H9T12124   2.187  -0.277   7.478 -1.5312  0.4849  0.7853
  116OSM   C10S12125   2.172  -0.107   7.606  0.8259  0.3021  0.4063
  116OSM   H10S12126   2.064  -0.096   7.626  0.7413 -2.4956  1.6305
  116OSM   H10T12127   2.209  -0.003   7.589 -0.4292  0.4303 -1.7276
  116OSM   C11S12128   2.249  -0.171   7.723 -0.0780 -0.5292  0.8540
  116OSM   H11S12129   2.359  -0.176   7.706 -0.0550 -1.9811  1.3464
  116OSM   H11T12130   2.213  -0.272   7.750 -0.7233 -0.4445  0.3030
  116OSM   C12S12131   2.234  -0.083   7.846 -0.5491  0.8964 -0.1629
  116OSM   H12S12132   2.130  -0.045   7.858 -0.7505  0.3725 -0.2440
  116OSM   H12T12133   2.300   0.006   7.852  0.2362  0.3804 -0.9684
  116OSM   C13S12134   2.273  -0.158   7.978 -0.2422  0.3251  0.6391
  116OSM   H13S12135   2.377  -0.194   7.966 -0.6260 -1.7052  3.0836
  116OSM   H13T12136   2.215  -0.252   7.969 -2.2974  1.5896  0.3291
  116OSM   C14S12137   2.261  -0.095   8.109  0.9472  0.5965  0.1788
  116OSM   H14S12138   2.173  -0.027   8.113  2.1454  2.3476 -1.7817
  116OSM   H14T12139   2.347  -0.025   8.118  1.3850  0.2955 -1.4727
  116OSM   C15S12140   2.279  -0.194   8.228  0.0980  0.3230  0.1279
  116OSM   H15S12141   2.189  -0.259   8.223  0.5285 -0.1938 -1.1373
  116OSM   H15T12142   2.290  -0.138   8.323 -2.1875  0.0678  0.5670
  116OSM   C16S12143   2.400  -0.292   8.227 -0.6601 -0.5658  0.1009
  116OSM   H16S12144   2.407  -0.337   8.125 -0.6643  0.2754 -0.2729
  116OSM   H16T12145   2.387  -0.378   8.296  1.6448 -0.5528  0.5953
  116OSM   C17S12146   2.532  -0.221   8.268 -0.3572 -0.2277 -0.6237
  116OSM   H17S12147   2.537  -0.130   8.204  0.8552  0.7266  0.8084
  116OSM   H17T12148   2.603  -0.302   8.239  0.1690  0.0570 -0.1336
  116OSM   C18S12149   2.565  -0.178   8.408  0.4874 -0.5875 -0.3748
  116OSM   H18S12150   2.657  -0.115   8.411 -0.6597  1.0614  0.4077
  116OSM   H18T12151   2.579  -0.258   8.485  0.6789  1.4791  1.7921
  116OSM   H18U12152   2.477  -0.121   8.443  2.0913  2.3719 -1.0094
  116OSM    C1F12153   2.595  -0.262   6.850 -0.7585 -0.8977 -0.8623
  116OSM     OF12154   2.664  -0.182   6.791  0.1577 -0.1123 -0.4780
  116OSM    C2F12155   2.646  -0.352   6.956 -0.3260 -0.6223 -0.1244
  116OSM    H2F12156   2.680  -0.443   6.902 -0.3802 -0.9211  0.3453
  116OSM    H2G12157   2.559  -0.386   7.015 -0.8581 -0.7491 -0.9778
  116OSM    C3F12158   2.750  -0.287   7.047  0.2160  0.8319  0.0420
  116OSM    H3F12159   2.713  -0.209   7.117  0.3470  2.1337 -1.3398
  116OSM    H3G12160   2.832  -0.240   6.988 -0.7440  0.7388 -1.3765
  116OSM    C4F12161   2.802  -0.392   7.154  0.3112 -0.1736 -0.2715
  116OSM    H4F12162   2.859  -0.473   7.102 -1.2687 -0.1036 -2.1763
  116OSM    H4G12163   2.716  -0.446   7.199 -0.4675 -0.0368 -1.5766
  116OSM    C5F12164   2.883  -0.308   7.259  0.4907  0.2195 -0.1178
  116OSM    H5F12165   2.806  -0.237   7.293  1.0953  0.1570  1.4024
  116OSM    H5G12166   2.968  -0.255   7.210  0.3263  0.4120 -0.1969
  116OSM    C6F12167   2.939  -0.388   7.375 -0.5516  0.5113  0.3050
  116OSM    H6F12168   3.030  -0.446   7.346 -0.0656  2.2863 -1.8412
  116OSM    H6G12169   2.868  -0.459   7.424  0.9183  0.0800  1.8952
  116OSM    C7F12170   2.993  -0.293   7.488  0.1321  0.0696  0.2325
  116OSM    H7F12171   2.905  -0.253   7.543  0.6677 -1.8270  2.5479
  116OSM    H7G12172   3.052  -0.211   7.440  1.8475 -1.9966 -1.2958
  116OSM    C8F12173   3.078  -0.370   7.585  0.6796 -0.8059 -0.3782
  116OSM    H8F12174   3.128  -0.457   7.538 -0.5538 -2.0152  0.5171
  116OSM    H8G12175   3.001  -0.429   7.639 -0.5148  0.8948 -0.1730
  116OSM    C9F12176   3.181  -0.307   7.664 -0.3024  0.5414  0.2321
  116OSM    H9F12177   3.255  -0.250   7.606  0.6610  0.5476  1.4394
  116OSM   C10F12178   3.202  -0.302   7.794 -0.6916  0.7229 -0.1396
  116OSM   H10F12179   3.283  -0.235   7.825  0.7318 -1.6379  1.3979
  116OSM   C11F12180   3.111  -0.367   7.898  0.2516 -0.1198  0.1368
  116OSM   H11F12181   3.154  -0.463   7.934 -0.6908 -0.9661 -0.9528
  116OSM   H11G12182   3.009  -0.390   7.860  0.6229  0.2708 -1.0890
  116OSM   C12F12183   3.088  -0.285   8.031  0.1156  0.6619  0.1739
  116OSM   H12F12184   3.029  -0.357   8.091  0.7684 -0.4219 -0.4564
  116OSM   H12G12185   3.029  -0.192   8.015  2.4648  2.2668  0.6658
  116OSM   C13F12186   3.220  -0.266   8.103  0.0033 -0.1988 -0.2417
  116OSM   H13F12187   3.261  -0.168   8.071 -1.0161 -0.6619 -3.1560
  116OSM   H13G12188   3.297  -0.337   8.066  0.6356 -0.4058  1.4443
  116OSM   C14F12189   3.204  -0.265   8.257  0.1692 -0.0306 -0.8965
  116OSM   H14F12190   3.204  -0.373   8.286 -0.4621  0.2958  0.3360
  116OSM   H14G12191   3.107  -0.214   8.275 -0.4435 -2.4638  3.5358
  116OSM   C15F12192   3.313  -0.213   8.359 -1.5050  0.0246 -0.4484
  116OSM   H15F12193   3.308  -0.102   8.356  0.9647  0.1610 -0.5822
  116OSM   H15G12194   3.411  -0.226   8.309 -1.3609 -0.3033 -0.0776
  116OSM   C16F12195   3.299  -0.268   8.503  0.1266 -0.0346  0.0557
  116OSM   H16F12196   3.361  -0.360   8.508 -1.9739 -1.4442  0.3299
  116OSM   H16G12197   3.195  -0.300   8.522 -0.4326  2.8574  2.3367
  116OSM   C17F12198   3.334  -0.168   8.619  0.5317  0.6990  0.0425
  116OSM   H17F12199   3.241  -0.107   8.625 -1.6559 -2.5071 -0.3948
  116OSM   H17G12200   3.431  -0.117   8.600  0.6550  0.7898  0.8885
  116OSM   C18F12201   3.327  -0.234   8.760 -0.0647 -0.6370  0.0654
  116OSM   H18F12202   3.412  -0.300   8.789  0.5694 -0.1491 -0.6624
  116OSM   H18G12203   3.233  -0.293   8.764  0.8480 -2.1915 -1.0222
  116OSM   H18H12204   3.313  -0.157   8.839  0.7299  2.1600 -2.4391
  117OSM      N12205   0.903   2.216   6.069 -0.5695  0.6776  0.3545
  117OSM    C1512206   1.005   2.230   5.956  0.6981 -0.2195  0.5318
  117OSM   H15A12207   0.968   2.259   5.859 -0.3967 -0.3041  0.9228
  117OSM   H15B12208   1.055   2.135   5.941 -0.1102 -0.3913 -1.2256
  117OSM   H15C12209   1.075   2.311   5.968 -0.1087  0.6197 -0.2895
  117OSM    C1412210   0.825   2.338   6.078  0.3863 -0.6076 -0.8288
  117OSM   H14A12211   0.779   2.352   6.174 -0.7217 -2.6316 -1.0406
  117OSM   H14B12212   0.739   2.324   6.015  0.4557  0.0715 -1.0855
  117OSM   H14C12213   0.885   2.425   6.051 -0.3502  1.0690  2.6306
  117OSM    C1312214   0.815   2.101   6.024  0.2414  0.3003  0.4291
  117OSM   H13A12215   0.728   2.093   6.088 -0.3172  0.3587 -0.3041
  117OSM   H13B12216   0.859   2.002   6.027 -1.5455 -0.4683  2.6626
  117OSM   H13C12217   0.792   2.118   5.920  1.8986 -0.9381 -0.1556
  117OSM    C1212218   0.977   2.177   6.197 -0.1910 -0.1366 -0.5668
  117OSM   H12A12219   1.034   2.261   6.234 -0.6326  0.0664 -0.3510
  117OSM   H12B12220   1.057   2.110   6.168  1.1579  0.8853  0.7164
  117OSM    C1112221   0.882   2.125   6.313 -0.1285  0.3910 -0.1739
  117OSM   H11A12222   0.816   2.211   6.337 -0.8800  0.8891 -3.8139
  117OSM   H11B12223   0.951   2.118   6.401 -2.9655 -0.4661  2.0706
  117OSM      P12224   0.873   1.858   6.308 -0.3678 -0.1150 -0.3273
  117OSM    O1312225   0.770   1.759   6.292  0.0162 -0.1968  0.7788
  117OSM    O1412226   0.988   1.838   6.214  0.5426  0.4517  0.6595
  117OSM    O1112227   0.927   1.850   6.459 -0.0027 -0.3662 -0.3328
  117OSM    O1212228   0.807   2.000   6.294  0.0714 -0.3408 -0.5975
  117OSM    C1S12229   0.828   1.824   6.556  0.4427  0.3576  0.2221
  117OSM    H1S12230   0.776   1.728   6.537 -0.4739  0.9106 -0.1088
  117OSM    H1T12231   0.750   1.903   6.553  0.5075  0.4236  0.2721
  117OSM     NF12232   0.793   1.782   6.802 -0.2664 -0.0085 -1.0492
  117OSM    HNF12233   0.752   1.843   6.869  1.1710  0.5527 -0.6596
  117OSM    C2S12234   0.882   1.842   6.704 -0.5394 -0.0964  0.1312
  117OSM    H2S12235   0.976   1.785   6.722  0.6115  1.7462  0.0151
  117OSM    C3S12236   0.913   1.996   6.724  0.0155  0.2256 -0.2429
  117OSM    H3S12237   0.832   2.059   6.680 -0.2457  0.0739  0.0171
  117OSM     O312238   1.031   2.024   6.644 -0.1474  0.1936  0.3731
  117OSM    HO312239   1.045   1.953   6.581  2.8642  2.2682 -1.4456
  117OSM    C4S12240   0.950   2.033   6.864 -0.8217 -0.4293  0.3261
  117OSM    H4S12241   1.047   1.995   6.898 -0.4367 -1.1556 -1.5332
  117OSM    C5S12242   0.869   2.113   6.945  0.6540 -0.2976 -0.0066
  117OSM    H5S12243   0.773   2.143   6.901  0.5711  0.5202  0.7272
  117OSM    C6S12244   0.903   2.160   7.085  0.6878 -0.0450 -0.5365
  117OSM    H6S12245   0.806   2.160   7.139  1.2565 -3.0121  0.5778
  117OSM    H6T12246   0.933   2.267   7.084 -1.7319  0.6936  0.6746
  117OSM    C7S12247   1.006   2.084   7.171 -0.0699  0.6105 -1.1216
  117OSM    H7S12248   1.082   2.019   7.122  3.0870  2.2621  1.4092
  117OSM    H7T12249   0.940   2.012   7.225 -0.3268  1.2134 -0.6298
  117OSM    C8S12250   1.072   2.165   7.279 -0.2751 -0.1161  0.1407
  117OSM    H8S12251   0.994   2.193   7.354  1.7684 -0.7449  2.5901
  117OSM    H8T12252   1.122   2.251   7.230  2.1578 -1.2411  0.5797
  117OSM    C9S12253   1.189   2.096   7.353 -0.5343 -0.0694 -0.0352
  117OSM    H9S12254   1.262   2.072   7.273 -0.9514  1.7955 -0.9781
  117OSM    H9T12255   1.139   1.998   7.372 -0.6644 -0.6710 -3.1757
  117OSM   C10S12256   1.242   2.178   7.476 -0.0404  0.3448 -0.7289
  117OSM   H10S12257   1.167   2.183   7.557 -1.3180  1.3726 -1.9449
  117OSM   H10T12258   1.234   2.284   7.442  0.9577  0.3748 -0.9116
  117OSM   C11S12259   1.385   2.143   7.516 -0.3186  0.4180  0.5485
  117OSM   H11S12260   1.456   2.167   7.435  0.4365  0.4121  1.2032
  117OSM   H11T12261   1.377   2.034   7.534 -2.3152  0.7458  1.8114
  117OSM   C12S12262   1.427   2.219   7.641  0.0667 -0.2212  0.2072
  117OSM   H12S12263   1.417   2.329   7.628 -0.6050 -0.4350 -1.1992
  117OSM   H12T12264   1.531   2.184   7.658  0.4119 -0.3181 -1.9390
  117OSM   C13S12265   1.354   2.170   7.768 -1.0851  0.3148  0.0980
  117OSM   H13S12266   1.358   2.059   7.773  0.5518  0.3365 -0.4019
  117OSM   H13T12267   1.247   2.197   7.754 -1.4743 -1.0694  0.3221
  117OSM   C14S12268   1.407   2.214   7.905 -0.1459 -0.4766 -0.8569
  117OSM   H14S12269   1.427   2.322   7.916  0.4466 -0.7273  0.5699
  117OSM   H14T12270   1.507   2.166   7.913  0.4247  0.6190 -1.2746
  117OSM   C15S12271   1.321   2.157   8.018  0.3815 -0.5981  0.5797
  117OSM   H15S12272   1.326   2.048   7.998  1.9142  0.0659 -3.1109
  117OSM   H15T12273   1.217   2.192   8.003  1.0797  1.6878  0.8575
  117OSM   C16S12274   1.370   2.197   8.161 -0.4086 -0.6236 -0.1027
  117OSM   H16S12275   1.391   2.306   8.156  0.7534 -0.7766  1.0848
  117OSM   H16T12276   1.471   2.168   8.198 -0.3852  0.3463  0.6033
  117OSM   C17S12277   1.263   2.174   8.270 -0.9572 -0.2399  0.7267
  117OSM   H17S12278   1.241   2.066   8.257 -1.7523  0.3861 -4.2549
  117OSM   H17T12279   1.176   2.228   8.227  1.7418  1.1579 -3.2708
  117OSM   C18S12280   1.306   2.199   8.411 -0.9877 -0.0757  0.3323
  117OSM   H18S12281   1.376   2.121   8.448 -1.0504 -0.4992 -0.4221
  117OSM   H18T12282   1.222   2.215   8.481 -3.0008 -2.2249 -1.5254
  117OSM   H18U12283   1.363   2.295   8.419 -0.4973 -0.4576  1.4870
  117OSM    C1F12284   0.770   1.647   6.813 -0.4258 -0.1564  0.5258
  117OSM     OF12285   0.842   1.569   6.744  0.1301 -0.3627  0.1390
  117OSM    C2F12286   0.662   1.611   6.912 -0.0190  0.3492 -0.5473
  117OSM    H2F12287   0.629   1.505   6.904  0.0218  0.2602  0.4398
  117OSM    H2G12288   0.581   1.682   6.884 -0.5242  0.7260  1.7864
  117OSM    C3F12289   0.704   1.642   7.052 -0.5111 -0.3256 -0.3388
  117OSM    H3F12290   0.786   1.716   7.059  0.8943 -1.9206  0.4615
  117OSM    H3G12291   0.739   1.543   7.087  0.5245  0.0100 -0.4309
  117OSM    C4F12292   0.594   1.689   7.143 -0.7891 -0.4173 -0.3322
  117OSM    H4F12293   0.523   1.606   7.164  0.6616 -1.5289  0.1659
  117OSM    H4G12294   0.531   1.765   7.092  0.2153  0.0652 -0.8621
  117OSM    C5F12295   0.640   1.739   7.282  0.5447  0.0834  0.7710
  117OSM    H5F12296   0.684   1.840   7.273  0.1565  0.1480 -0.5838
  117OSM    H5G12297   0.709   1.667   7.331 -1.1827 -0.9251  1.7419
  117OSM    C6F12298   0.522   1.747   7.382  0.3828  0.2852  0.2625
  117OSM    H6F12299   0.453   1.660   7.378  0.0724  0.5212  0.4579
  117OSM    H6G12300   0.456   1.836   7.369  2.5466  2.1241  1.5564
  117OSM    C7F12301   0.579   1.758   7.523  0.5786 -0.5021  0.5845
  117OSM    H7F12302   0.642   1.667   7.535  1.4824  0.3797  2.7196
  117OSM    H7G12303   0.500   1.738   7.599  0.6651 -2.1744  0.2578
  117OSM    C8F12304   0.647   1.894   7.555  0.2685  0.5834 -0.4146
  117OSM    H8F12305   0.565   1.961   7.589  0.0481  0.6621 -1.0932
  117OSM    H8G12306   0.685   1.943   7.462 -1.2089  1.9755 -0.3122
  117OSM    C9F12307   0.757   1.878   7.665 -0.1082 -0.3128  0.1116
  117OSM    H9F12308   0.805   1.779   7.670 -0.7145 -0.6986 -1.5782
  117OSM   C10F12309   0.801   1.980   7.750 -0.8721  0.2813  0.1086
  117OSM   H10F12310   0.881   1.966   7.825 -0.3900 -0.5587 -0.5541
  117OSM   C11F12311   0.754   2.120   7.755  0.1218  0.0308 -0.1869
  117OSM   H11F12312   0.678   2.144   7.677  0.6495 -1.0706 -1.0497
  117OSM   H11G12313   0.844   2.185   7.747  1.3305 -1.4856  0.8568
  117OSM   C12F12314   0.701   2.155   7.898 -0.2294  0.5674  0.4288
  117OSM   H12F12315   0.608   2.099   7.922  0.5295 -0.1840  1.6212
  117OSM   H12G12316   0.666   2.258   7.875  1.1727  0.3943 -2.7013
  117OSM   C13F12317   0.788   2.141   8.014  0.9268  0.1298  0.5610
  117OSM   H13F12318   0.893   2.162   7.986  0.2752  0.0347 -2.1286
  117OSM   H13G12319   0.776   2.033   8.037 -0.5056  0.1669  0.0676
  117OSM   C14F12320   0.737   2.224   8.130  0.0603 -0.1835 -0.1350
  117OSM   H14F12321   0.643   2.180   8.170  1.3857 -1.9136  1.1789
  117OSM   H14G12322   0.715   2.326   8.094  1.2021  0.3362  0.6083
  117OSM   C15F12323   0.840   2.225   8.240  0.5156 -0.1834 -1.0090
  117OSM   H15F12324   0.932   2.285   8.223  0.3753  0.3859  0.2147
  117OSM   H15G12325   0.867   2.121   8.267 -0.0876 -0.0250  0.2493
  117OSM   C16F12326   0.773   2.281   8.367 -0.1008 -0.6000 -0.6289
  117OSM   H16F12327   0.685   2.216   8.383 -0.7935  0.9090  1.9418
  117OSM   H16G12328   0.742   2.385   8.342 -0.9524 -0.0047  2.6832
  117OSM   C17F12329   0.860   2.290   8.491 -0.0540  0.3667 -0.5827
  117OSM   H17F12330   0.964   2.310   8.458  1.0619  0.3234  2.6681
  117OSM   H17G12331   0.822   2.377   8.550  0.6856 -1.3257  2.4967
  117OSM   C18F12332   0.860   2.165   8.575 -0.2725  0.2815 -0.2681
  117OSM   H18F12333   0.758   2.140   8.610 -0.0029  0.4047  0.6170
  117OSM   H18G12334   0.919   2.173   8.668 -0.8451  1.6568 -0.0215
  117OSM   H18H12335   0.889   2.079   8.509 -0.3129 -1.2252  1.6453
  118OSM      N12336   3.198   4.223   5.847 -0.6315 -0.4609 -0.1680
  118OSM    C1512337   3.151   4.318   5.956 -0.5478  0.4882 -0.9370
  118OSM   H15A12338   3.065   4.370   5.915 -0.5251 -2.0856 -4.5302
  118OSM   H15B12339   3.235   4.377   5.990 -1.0241  0.4383  0.3486
  118OSM   H15C12340   3.113   4.269   6.044 -1.7774  1.6639 -0.7888
  118OSM    C1412341   3.070   4.165   5.790 -0.5654 -0.3569 -0.1283
  118OSM   H14A12342   3.020   4.107   5.866 -2.4033  0.5859 -0.5904
  118OSM   H14B12343   3.094   4.108   5.701 -0.9940 -1.2767  0.3368
  118OSM   H14C12344   3.004   4.246   5.760  2.7466  1.4867 -2.7844
  118OSM    C1312345   3.268   4.308   5.747  0.5645 -0.0424 -0.9451
  118OSM   H13A12346   3.200   4.381   5.707 -0.2496 -0.6478 -0.6962
  118OSM   H13B12347   3.303   4.263   5.655  1.4296  0.8254 -1.0482
  118OSM   H13C12348   3.349   4.368   5.785 -0.9520  1.9494 -0.7595
  118OSM    C1212349   3.298   4.117   5.896 -0.0227  0.0606 -0.6742
  118OSM   H12A12350   3.396   4.162   5.902 -0.5732  1.0434  1.0802
  118OSM   H12B12351   3.302   4.044   5.817  2.2575  0.4941 -1.0127
  118OSM    C1112352   3.258   4.039   6.023  0.5017  0.0936  0.2189
  118OSM   H11A12353   3.338   3.962   6.022  0.3673 -0.0925 -2.6027
  118OSM   H11B12354   3.164   3.982   6.011  0.5528  0.0663 -0.0607
  118OSM      P12355   3.357   4.126   6.252  0.4226  0.1075  0.0917
  118OSM    O1312356   3.477   4.193   6.203 -0.2880 -0.4155 -0.1638
  118OSM    O1412357   3.290   4.168   6.377  0.0589  0.2582  0.4419
  118OSM    O1112358   3.386   3.966   6.261 -0.4858  0.0736  0.2911
  118OSM    O1212359   3.248   4.126   6.139 -0.2248 -0.0777  0.4479
  118OSM    C1S12360   3.491   3.903   6.339 -0.3529  0.3071  0.0650
  118OSM    H1S12361   3.591   3.948   6.319  0.0188 -0.2740  0.6136
  118OSM    H1T12362   3.496   3.797   6.308  2.5297  0.2755  0.4588
  118OSM     NF12363   3.588   3.832   6.554  0.3468 -0.4182 -0.6581
  118OSM    HNF12364   3.602   3.734   6.549 -0.0628 -0.5363  0.3930
  118OSM    C2S12365   3.467   3.893   6.493  0.4514  0.4227 -0.5381
  118OSM    H2S12366   3.439   3.993   6.533 -0.6772 -0.1762  0.2119
  118OSM    C3S12367   3.335   3.809   6.531  0.0069  0.0715  0.1169
  118OSM    H3S12368   3.353   3.707   6.492 -0.3674  0.5695 -1.3676
  118OSM     O312369   3.212   3.860   6.468  0.1246 -0.0015  0.0781
  118OSM    HO312370   3.231   3.945   6.427 -0.5695 -1.0851 -2.6102
  118OSM    C4S12371   3.317   3.806   6.677 -1.0778  0.2296 -0.3416
  118OSM    H4S12372   3.314   3.901   6.732 -4.5386  0.4327 -0.7321
  118OSM    C5S12373   3.267   3.705   6.749  1.3672  1.3755  0.0559
  118OSM    H5S12374   3.247   3.609   6.698  1.0277  2.0873 -1.1726
  118OSM    C6S12375   3.243   3.717   6.891 -0.1530 -0.9671  0.0351
  118OSM    H6S12376   3.141   3.683   6.917  0.2284 -1.9865  0.2435
  118OSM    H6T12377   3.269   3.816   6.934 -1.6755 -0.0614 -1.1126
  118OSM    C7S12378   3.318   3.611   6.973 -0.2244  0.5172  0.0154
  118OSM    H7S12379   3.427   3.629   6.969 -0.1973  0.3664  0.0493
  118OSM    H7T12380   3.296   3.509   6.934  1.0464  0.8857 -1.7396
  118OSM    C8S12381   3.270   3.606   7.113 -0.1474 -0.4225 -0.0698
  118OSM    H8S12382   3.172   3.553   7.121 -0.7635  0.4324 -1.7803
  118OSM    H8T12383   3.258   3.708   7.153  0.9764  0.9607 -3.1022
  118OSM    C9S12384   3.360   3.525   7.215  0.6356 -0.2042  1.1161
  118OSM    H9S12385   3.454   3.575   7.246 -0.5730  1.4274  2.2400
  118OSM    H9T12386   3.379   3.438   7.148 -2.7059 -0.9084  0.9575
  118OSM   C10S12387   3.300   3.468   7.348 -0.3741 -0.5108  0.4208
  118OSM   H10S12388   3.205   3.419   7.319  0.0568 -1.5517  0.7673
  118OSM   H10T12389   3.272   3.548   7.420 -2.7193 -2.1606  1.3978
  118OSM   C11S12390   3.400   3.377   7.414 -0.0571  0.5301  0.6780
  118OSM   H11S12391   3.497   3.425   7.437 -0.0720  0.6794  0.4285
  118OSM   H11T12392   3.422   3.286   7.355 -0.0315  1.2585 -0.4448
  118OSM   C12S12393   3.345   3.331   7.551  0.4362  0.5090  0.0109
  118OSM   H12S12394   3.235   3.319   7.544  0.5573 -0.2903 -0.6921
  118OSM   H12T12395   3.362   3.407   7.630  0.9500  0.2349  0.1667
  118OSM   C13S12396   3.416   3.207   7.608  0.0329 -0.0166  0.1418
  118OSM   H13S12397   3.526   3.225   7.608  0.4939 -2.5639 -0.3789
  118OSM   H13T12398   3.403   3.131   7.528 -0.2496 -0.6453  0.7827
  118OSM   C14S12399   3.363   3.151   7.742  1.0220 -0.3392  0.1791
  118OSM   H14S12400   3.410   3.053   7.766  2.6536  0.6930  1.3559
  118OSM   H14T12401   3.252   3.142   7.742  0.9627  0.1645  2.1532
  118OSM   C15S12402   3.396   3.241   7.865  0.5641 -0.1120  0.1083
  118OSM   H15S12403   3.367   3.346   7.848  1.7533 -0.1585 -2.4746
  118OSM   H15T12404   3.506   3.241   7.879  0.3884 -0.7786  1.6317
  118OSM   C16S12405   3.340   3.186   7.998 -0.9421  0.0886  0.6017
  118OSM   H16S12406   3.389   3.090   8.026  0.7694  0.3715 -1.3347
  118OSM   H16T12407   3.234   3.155   7.995 -1.1917  0.9226  0.6693
  118OSM   C17S12408   3.361   3.285   8.113 -0.6755  0.2023  0.6063
  118OSM   H17S12409   3.329   3.388   8.086  0.4040  0.4444  0.2511
  118OSM   H17T12410   3.469   3.291   8.136 -1.0629 -0.6390  2.8205
  118OSM   C18S12411   3.296   3.233   8.239 -0.0515 -0.4360  0.3526
  118OSM   H18S12412   3.324   3.292   8.329 -0.8119 -1.3491  1.2021
  118OSM   H18T12413   3.320   3.128   8.265 -0.0337 -1.1899 -2.5874
  118OSM   H18U12414   3.187   3.245   8.222  0.3444  0.7331 -1.4809
  118OSM    C1F12415   3.693   3.908   6.589  0.0999 -0.7711 -0.0877
  118OSM     OF12416   3.688   4.026   6.574  0.2391 -0.2454 -0.1344
  118OSM    C2F12417   3.808   3.840   6.649 -0.6024 -0.0274 -0.1831
  118OSM    H2F12418   3.837   3.749   6.594  1.5113  0.0105  0.8018
  118OSM    H2G12419   3.764   3.804   6.745 -1.1001 -0.0674 -0.4266
  118OSM    C3F12420   3.927   3.934   6.674 -0.1935  0.5663 -0.5905
  118OSM    H3F12421   3.890   4.007   6.749 -1.6364 -0.0233 -0.7132
  118OSM    H3G12422   3.964   3.988   6.584  1.5598  0.2430 -0.0837
  118OSM    C4F12423   4.047   3.868   6.742 -1.2312 -0.5356 -0.2220
  118OSM    H4F12424   4.129   3.935   6.775 -0.5568 -0.3748 -2.1453
  118OSM    H4G12425   4.087   3.797   6.666  0.4459  0.3006 -0.1562
  118OSM    C5F12426   4.017   3.767   6.858 -0.7171  0.3966 -0.7313
  118OSM    H5F12427   3.927   3.716   6.818 -0.6082 -1.5703  1.4363
  118OSM    H5G12428   3.987   3.829   6.945  0.0888 -3.3369  2.3584
  118OSM    C6F12429   4.124   3.661   6.889  0.3145  0.4287 -0.6083
  118OSM    H6F12430   4.164   3.619   6.794 -3.3403 -2.3334 -1.0118
  118OSM    H6G12431   4.089   3.576   6.952 -0.9990  2.2154  1.1289
  118OSM    C7F12432   4.255   3.713   6.943  0.3180  0.1599  0.1237
  118OSM    H7F12433   4.236   3.793   7.018  0.8034  1.6743 -1.3368
  118OSM    H7G12434   4.302   3.775   6.864 -0.2793 -0.2961 -0.5953
  118OSM    C8F12435   4.343   3.602   6.992 -0.1340  0.6351  0.0805
  118OSM    H8F12436   4.447   3.641   6.997 -0.0092  0.4420 -0.9356
  118OSM    H8G12437   4.340   3.519   6.918  2.2119 -0.0482  0.7364
  118OSM    C9F12438   4.300   3.553   7.129  0.7430  0.4343  0.0574
  118OSM    H9F12439   4.205   3.498   7.126  2.6703 -2.9591 -1.7265
  118OSM   C10F12440   4.349   3.603   7.245 -0.1598  0.4705 -0.9492
  118OSM   H10F12441   4.309   3.553   7.335 -0.6743  2.7069  0.1051
  118OSM   C11F12442   4.455   3.703   7.263  0.4677  0.0601 -0.1727
  118OSM   H11F12443   4.450   3.781   7.184 -2.6435 -0.1258 -0.2237
  118OSM   H11G12444   4.553   3.650   7.262 -0.0167 -0.9477  1.9898
  118OSM   C12F12445   4.437   3.794   7.395 -0.6667  0.0604 -0.1409
  118OSM   H12F12446   4.345   3.856   7.398  0.5929  1.9928 -0.8209
  118OSM   H12G12447   4.521   3.865   7.379  0.3874 -1.2783 -0.6704
  118OSM   C13F12448   4.458   3.725   7.525 -0.7691 -0.0997 -0.6080
  118OSM   H13F12449   4.553   3.669   7.517  0.2475  1.3632  0.9034
  118OSM   H13G12450   4.377   3.649   7.527  0.2230 -1.1576  0.9942
  118OSM   C14F12451   4.475   3.796   7.656 -0.2650 -0.5000  0.3096
  118OSM   H14F12452   4.385   3.858   7.674  0.1666 -0.6279  3.1479
  118OSM   H14G12453   4.568   3.856   7.642 -1.6566  0.9980 -2.8875
  118OSM   C15F12454   4.486   3.706   7.782  0.1548  0.4377 -0.1704
  118OSM   H15F12455   4.478   3.778   7.866 -0.2723 -0.8134  0.8707
  118OSM   H15G12456   4.588   3.662   7.779  0.5651  1.3694 -0.2107
  118OSM   C16F12457   4.367   3.611   7.797  0.7936 -0.5250  0.2553
  118OSM   H16F12458   4.359   3.541   7.711 -0.7032  1.0806 -0.9523
  118OSM   H16G12459   4.263   3.649   7.793 -0.0436 -2.6412  1.4650
  118OSM   C17F12460   4.389   3.527   7.919  0.3899  0.1431 -0.0271
  118OSM   H17F12461   4.474   3.565   7.980  0.7027  0.1994 -0.4967
  118OSM   H17G12462   4.432   3.431   7.885 -0.6970 -0.2709 -0.2667
  118OSM   C18F12463   4.262   3.500   8.003 -0.3142 -0.1215 -0.0110
  118OSM   H18F12464   4.213   3.414   7.952 -2.7657  0.6546  0.9343
  118OSM   H18G12465   4.185   3.579   8.023 -2.1142 -1.1398 -2.5237
  118OSM   H18H12466   4.291   3.459   8.101 -1.0551 -1.9709 -0.5322
  119OSM      N12467   4.342   3.158   5.657 -0.5396 -0.2631 -0.4534
  119OSM    C1512468   4.295   3.193   5.795 -0.2897  0.1115 -0.1812
  119OSM   H15A12469   4.373   3.177   5.867 -0.4163  1.8310  0.3613
  119OSM   H15B12470   4.209   3.135   5.825 -1.4213  1.9523  0.1671
  119OSM   H15C12471   4.275   3.297   5.812  1.7788  0.5997 -0.5190
  119OSM    C1412472   4.262   3.232   5.555  0.0307 -0.2810 -0.5179
  119OSM   H14A12473   4.163   3.191   5.553  1.1795 -3.2097  0.6935
  119OSM   H14B12474   4.304   3.224   5.455  1.3901 -2.0079  0.1696
  119OSM   H14C12475   4.263   3.338   5.578 -1.2019  0.0107 -1.7135
  119OSM    C1312476   4.482   3.195   5.644 -1.0114 -0.0242 -0.2491
  119OSM   H13A12477   4.541   3.137   5.712 -1.1624 -0.0365 -0.1286
  119OSM   H13B12478   4.507   3.296   5.674 -1.2545 -0.1727  0.4625
  119OSM   H13C12479   4.518   3.170   5.545 -0.3218 -4.0060  0.9471
  119OSM    C1212480   4.317   3.004   5.636  0.3658 -0.3563  0.0759
  119OSM   H12A12481   4.350   2.986   5.535 -2.5477 -1.1741 -0.7712
  119OSM   H12B12482   4.213   2.977   5.643  0.3595 -0.6461 -1.0522
  119OSM    C1112483   4.394   2.912   5.736 -0.0119  0.5750  0.2853
  119OSM   H11A12484   4.359   2.808   5.716 -2.0891  1.3180 -0.1279
  119OSM   H11B12485   4.341   2.949   5.827  0.8595 -0.2362  1.1213
  119OSM      P12486   4.616   2.820   5.840  0.4960  0.4552  0.0359
  119OSM    O1312487   4.573   2.681   5.807  0.1129 -0.6332 -0.2127
  119OSM    O1412488   4.761   2.847   5.844 -0.0598  0.6335 -0.6295
  119OSM    O1112489   4.549   2.861   5.982 -0.3906  0.6959 -0.3669
  119OSM    O1212490   4.541   2.922   5.739  0.2914 -0.0662 -0.2095
  119OSM    C1S12491   4.565   2.759   6.082 -0.6677 -0.5740  0.2279
  119OSM    H1S12492   4.668   2.718   6.075  0.8419  3.1811 -0.7063
  119OSM    H1T12493   4.480   2.689   6.068  0.0760 -1.2235 -1.1164
  119OSM     NF12494   4.544   2.713   6.329  0.3020  0.3380 -0.1584
  119OSM    HNF12495   4.451   2.680   6.347  0.3615  0.3053  0.0923
  119OSM    C2S12496   4.547   2.817   6.223  0.0053 -0.5472 -0.5779
  119OSM    H2S12497   4.638   2.875   6.249 -1.2620  0.4267  1.8962
  119OSM    C3S12498   4.419   2.901   6.245 -1.1653 -0.2794 -0.8026
  119OSM    H3S12499   4.329   2.838   6.229  0.2094 -1.6824 -3.2828
  119OSM     O312500   4.402   3.010   6.152 -0.9830 -0.2368 -0.3337
  119OSM    HO312501   4.441   2.990   6.066  0.2830  1.3208 -0.1351
  119OSM    C4S12502   4.416   2.970   6.380  0.1575 -0.2669 -0.4896
  119OSM    H4S12503   4.505   3.030   6.401  0.7002 -1.1673 -0.1917
  119OSM    C5S12504   4.322   2.951   6.472 -0.2294  0.4893 -0.9791
  119OSM    H5S12505   4.256   2.862   6.466  0.7429 -0.5011  2.3198
  119OSM    C6S12506   4.318   3.015   6.610 -0.1242 -0.1849 -0.3660
  119OSM    H6S12507   4.281   2.939   6.683 -1.8659  0.5180 -0.4757
  119OSM    H6T12508   4.238   3.092   6.619 -1.3288 -1.6928  2.4553
  119OSM    C7S12509   4.448   3.088   6.644 -0.2768 -0.5568 -0.0774
  119OSM    H7S12510   4.452   3.161   6.560 -0.8333 -1.9001 -1.2911
  119OSM    H7T12511   4.547   3.038   6.644 -0.4354 -0.8896  1.6477
  119OSM    C8S12512   4.432   3.179   6.768  0.4365 -0.3493 -0.2087
  119OSM    H8S12513   4.338   3.237   6.758 -0.7211 -2.5302 -2.2660
  119OSM    H8T12514   4.523   3.240   6.790 -1.1148  2.0270 -0.2352
  119OSM    C9S12515   4.407   3.098   6.898 -0.2593 -0.7293 -0.9690
  119OSM    H9S12516   4.496   3.033   6.909 -0.4500 -1.4070 -3.2713
  119OSM    H9T12517   4.317   3.033   6.889 -1.1621  0.4838 -0.8140
  119OSM   C10S12518   4.397   3.179   7.031 -0.1057 -0.3018  1.2212
  119OSM   H10S12519   4.316   3.254   7.016  1.6960  1.0728 -2.3243
  119OSM   H10T12520   4.487   3.238   7.059  0.0819 -0.3588  0.7411
  119OSM   C11S12521   4.360   3.093   7.156 -0.3847  0.6001  0.4270
  119OSM   H11S12522   4.432   3.009   7.168 -0.3003  0.9250  2.2177
  119OSM   H11T12523   4.258   3.054   7.135  0.2937 -0.0911 -1.8064
  119OSM   C12S12524   4.354   3.177   7.292 -0.2125  0.5606  0.1221
  119OSM   H12S12525   4.268   3.247   7.283  0.6313  1.5318 -0.5329
  119OSM   H12T12526   4.449   3.233   7.294 -0.4882  1.0074  2.8790
  119OSM   C13S12527   4.349   3.092   7.418  0.3339  0.1056 -0.3971
  119OSM   H13S12528   4.439   3.028   7.415 -0.2900 -0.8948  1.7526
  119OSM   H13T12529   4.255   3.034   7.403 -0.6543  0.9801  2.1027
  119OSM   C14S12530   4.343   3.174   7.548  0.2959  0.1732 -0.5517
  119OSM   H14S12531   4.252   3.237   7.540 -0.5430 -0.8274  0.6897
  119OSM   H14T12532   4.440   3.228   7.546 -0.2289  1.0835 -1.6177
  119OSM   C15S12533   4.342   3.090   7.679  0.0797 -0.0620  0.2479
  119OSM   H15S12534   4.411   3.003   7.671  0.0536 -0.0489 -0.1646
  119OSM   H15T12535   4.239   3.049   7.684  0.3186 -0.9573 -1.5559
  119OSM   C16S12536   4.384   3.155   7.812  0.0698  0.5188 -0.4170
  119OSM   H16S12537   4.305   3.230   7.835 -0.8788 -0.2337 -1.1683
  119OSM   H16T12538   4.475   3.219   7.816  0.7662 -0.5841  2.9859
  119OSM   C17S12539   4.372   3.052   7.928 -0.2615  0.0518  0.4998
  119OSM   H17S12540   4.435   2.962   7.916  0.0811  0.3984 -0.3191
  119OSM   H17T12541   4.265   3.025   7.914 -0.2334 -0.0476  0.4766
  119OSM   C18S12542   4.387   3.109   8.073 -0.6069 -0.3560  0.4191
  119OSM   H18S12543   4.330   3.204   8.075 -1.0349 -0.5838 -0.6185
  119OSM   H18T12544   4.493   3.124   8.104 -0.0246  0.8419 -1.9504
  119OSM   H18U12545   4.349   3.035   8.146 -0.0948 -0.1712  0.8813
  119OSM    C1F12546   4.644   2.627   6.348  0.3304 -0.2582 -0.3158
  119OSM     OF12547   4.753   2.654   6.294  0.7485  0.2673 -0.7951
  119OSM    C2F12548   4.616   2.505   6.434 -0.2209 -0.2857  0.1313
  119OSM    H2F12549   4.714   2.468   6.471 -0.7248 -1.3237  0.4417
  119OSM    H2G12550   4.582   2.431   6.359  2.1118 -1.3214  0.0394
  119OSM    C3F12551   4.522   2.529   6.558 -0.1183  0.9262  0.4800
  119OSM    H3F12552   4.480   2.432   6.590 -0.9041  0.6982 -1.2014
  119OSM    H3G12553   4.435   2.594   6.533 -0.3127  0.6000  0.3047
  119OSM    C4F12554   4.591   2.586   6.687 -0.5985  0.0315  0.0762
  119OSM    H4F12555   4.659   2.665   6.650  2.1638 -2.7685 -1.1030
  119OSM    H4G12556   4.643   2.505   6.742 -0.3175  0.2386  0.1140
  119OSM    C5F12557   4.487   2.647   6.784 -0.0401  0.0932  0.2546
  119OSM    H5F12558   4.410   2.572   6.813  2.5263 -2.2772  1.0918
  119OSM    H5G12559   4.443   2.741   6.742 -0.5279 -0.3295 -0.1847
  119OSM    C6F12560   4.560   2.693   6.914  0.6024 -0.0118  0.2510
  119OSM    H6F12561   4.618   2.786   6.894  0.9224 -0.5179 -1.2647
  119OSM    H6G12562   4.641   2.618   6.928 -0.2503 -0.5593  2.5563
  119OSM    C7F12563   4.466   2.695   7.031  0.5522 -0.1152 -0.1833
  119OSM    H7F12564   4.417   2.596   7.038  2.2889 -1.0606 -1.2454
  119OSM    H7G12565   4.379   2.763   7.015  0.7754  0.2510  0.1392
  119OSM    C8F12566   4.531   2.739   7.173  0.0154  0.2772  0.9033
  119OSM    H8F12567   4.570   2.842   7.161  1.4379 -0.4273 -0.7064
  119OSM    H8G12568   4.607   2.659   7.185 -1.6876 -1.4791  0.4136
  119OSM    C9F12569   4.428   2.746   7.279 -0.4958  0.0827 -0.0615
  119OSM    H9F12570   4.327   2.714   7.249 -0.0052 -1.4450 -0.1526
  119OSM   C10F12571   4.464   2.740   7.408 -0.3042  1.0095  0.2218
  119OSM   H10F12572   4.383   2.742   7.483  0.1952  1.5149  0.7493
  119OSM   C11F12573   4.601   2.745   7.470 -0.2651  0.0916  0.7062
  119OSM   H11F12574   4.617   2.846   7.513 -0.8196  0.0493  1.0134
  119OSM   H11G12575   4.675   2.735   7.388 -0.5895  2.2264  0.1338
  119OSM   C12F12576   4.625   2.663   7.593 -0.1727  1.3707 -0.1609
  119OSM   H12F12577   4.733   2.640   7.606 -0.4758  0.3753  0.6655
  119OSM   H12G12578   4.579   2.562   7.592  0.1892  1.2102 -1.7322
  119OSM   C13F12579   4.577   2.728   7.725 -0.4054  0.2606  0.2225
  119OSM   H13F12580   4.474   2.771   7.720 -0.2202  0.5617 -1.5634
  119OSM   H13G12581   4.640   2.816   7.749 -0.8638  0.7522 -0.3723
  119OSM   C14F12582   4.595   2.639   7.845  0.0716 -0.0172 -0.0038
  119OSM   H14F12583   4.698   2.601   7.864  0.3639  0.3173 -0.8496
  119OSM   H14G12584   4.555   2.537   7.831 -2.8991  1.2379 -0.9698
  119OSM   C15F12585   4.548   2.698   7.975 -0.1492 -0.3600  0.1184
  119OSM   H15F12586   4.438   2.712   7.967  0.0457  0.4602 -1.1055
  119OSM   H15G12587   4.595   2.795   8.001 -0.1310 -0.4454  0.4121
  119OSM   C16F12588   4.575   2.611   8.105  0.0100  0.4684 -0.2976
  119OSM   H16F12589   4.677   2.566   8.102 -0.5386 -0.7555 -1.5098
  119OSM   H16G12590   4.501   2.528   8.114  1.4833 -0.6250  2.3031
  119OSM   C17F12591   4.564   2.690   8.236  0.1283  0.0681 -0.3810
  119OSM   H17F12592   4.556   2.616   8.318 -0.9824  0.6111 -0.0023
  119OSM   H17G12593   4.470   2.748   8.232 -0.1269 -0.4417 -2.4966
  119OSM   C18F12594   4.679   2.793   8.271 -0.7103  0.3671 -0.6955
  119OSM   H18F12595   4.699   2.871   8.194 -2.0247  0.6878 -0.7247
  119OSM   H18G12596   4.772   2.742   8.303  0.8777  4.0395  0.8028
  119OSM   H18H12597   4.646   2.847   8.362 -1.2178  0.7079 -1.0773
  120OSM      N12598   2.423   0.926   6.722 -0.1072 -0.2348 -0.8400
  120OSM    C1512599   2.274   0.925   6.717 -0.3731  0.5422  0.0817
  120OSM   H15A12600   2.239   0.895   6.815 -0.2238  0.2042  0.0291
  120OSM   H15B12601   2.253   0.835   6.662  0.4106 -0.2827  1.1220
  120OSM   H15C12602   2.226   1.005   6.662  1.8006  1.3619 -0.6548
  120OSM    C1412603   2.468   1.041   6.812  0.0763 -0.1798  0.0945
  120OSM   H14A12604   2.443   1.136   6.765  2.1833 -0.1691 -1.0553
  120OSM   H14B12605   2.575   1.029   6.808  0.1981  0.7226  0.4885
  120OSM   H14C12606   2.430   1.040   6.913  0.2784  1.1046  0.1903
  120OSM    C1312607   2.465   0.800   6.790 -0.0913  0.4708  0.2171
  120OSM   H13A12608   2.444   0.713   6.729  1.0051 -1.3164  2.2971
  120OSM   H13B12609   2.429   0.795   6.892  1.0462  4.9301  0.9440
  120OSM   H13C12610   2.573   0.798   6.794 -0.1778 -1.6170  6.0965
  120OSM    C1212611   2.486   0.932   6.576  0.2668 -0.1768  0.4757
  120OSM   H12A12612   2.592   0.951   6.583  0.4543 -1.2269  0.4898
  120OSM   H12B12613   2.437   1.009   6.517 -0.6361 -0.8244  0.3624
  120OSM    C1112614   2.448   0.810   6.486 -0.0256 -0.4185 -0.0774
  120OSM   H11A12615   2.481   0.841   6.385  2.6914  1.1812  1.2561
  120OSM   H11B12616   2.338   0.794   6.488 -0.1622  0.5094 -0.0873
  120OSM      P12617   2.456   0.550   6.495 -0.1639 -0.1350  0.0154
  120OSM    O1312618   2.320   0.564   6.443 -0.2345 -0.0267  0.1724
  120OSM    O1412619   2.556   0.484   6.408  0.0433  0.1911  0.4191
  120OSM    O1112620   2.454   0.490   6.640  0.5781 -0.0797  0.0368
  120OSM    O1212621   2.518   0.697   6.534  0.1719  0.2603  0.6007
  120OSM    C1S12622   2.582   0.474   6.696  0.8608 -0.2643  0.0162
  120OSM    H1S12623   2.632   0.572   6.710 -0.6860  0.7023 -1.2201
  120OSM    H1T12624   2.652   0.409   6.638  0.7081 -0.4579  0.0471
  120OSM     NF12625   2.688   0.395   6.902 -0.0861 -0.2338  0.3623
  120OSM    HNF12626   2.720   0.303   6.924  1.4763 -0.4565 -2.6314
  120OSM    C2S12627   2.563   0.394   6.832  0.0308 -0.1312 -0.0229
  120OSM    H2S12628   2.487   0.450   6.890  0.4589 -0.7034  1.1079
  120OSM    C3S12629   2.502   0.254   6.810 -0.0914  0.5916  0.1121
  120OSM    H3S12630   2.571   0.193   6.748 -0.7261 -0.1933  0.1798
  120OSM     O312631   2.381   0.261   6.731  0.2366 -0.0304  0.2310
  120OSM    HO312632   2.384   0.342   6.679 -1.3215 -0.1720 -0.0966
  120OSM    C4S12633   2.471   0.192   6.940 -0.0029  0.2203 -0.3508
  120OSM    H4S12634   2.404   0.249   7.007 -1.3734 -1.7363 -0.0231
  120OSM    C5S12635   2.512   0.074   6.983  0.6823  0.3278  0.2376
  120OSM    H5S12636   2.576   0.019   6.912  2.7395  2.3828  0.4156
  120OSM    C6S12637   2.486  -0.002   7.112  0.2390 -0.6792  0.4590
  120OSM    H6S12638   2.514  -0.108   7.093 -1.4520 -0.8420 -1.3018
  120OSM    H6T12639   2.379  -0.000   7.142 -0.3889  0.7487 -1.7275
  120OSM    C7S12640   2.560   0.055   7.234  0.1889  0.1989  0.2185
  120OSM    H7S12641   2.664   0.069   7.197 -0.0429  0.9221 -0.1618
  120OSM    H7T12642   2.567  -0.036   7.297 -0.9725 -0.2353 -0.2653
  120OSM    C8S12643   2.498   0.180   7.300 -0.0645  0.1208  0.5616
  120OSM    H8S12644   2.393   0.159   7.327 -0.8531  0.0752 -2.3966
  120OSM    H8T12645   2.499   0.257   7.220 -0.4458 -0.0214  0.4220
  120OSM    C9S12646   2.579   0.225   7.419  0.0553 -0.2479 -0.2211
  120OSM    H9S12647   2.540   0.326   7.442 -0.4224 -0.5770  0.4318
  120OSM    H9T12648   2.686   0.232   7.388  0.1129  1.5037  0.3208
  120OSM   C10S12649   2.561   0.137   7.545 -0.2990  0.3958  0.1141
  120OSM   H10S12650   2.630   0.051   7.529 -0.7149  0.0210  0.3291
  120OSM   H10T12651   2.460   0.101   7.573  0.6413 -0.7927  2.0496
  120OSM   C11S12652   2.621   0.200   7.672 -0.2263 -0.5726  0.2960
  120OSM   H11S12653   2.555   0.278   7.717 -0.6748 -1.1577  0.6589
  120OSM   H11T12654   2.712   0.254   7.637 -1.2636 -0.6438 -2.6412
  120OSM   C12S12655   2.658   0.103   7.779 -0.3168 -0.2433 -0.1277
  120OSM   H12S12656   2.729   0.030   7.736  0.1884 -0.1678  0.5797
  120OSM   H12T12657   2.568   0.043   7.806  0.1872 -0.3900  1.2826
  120OSM   C13S12658   2.713   0.168   7.901  0.4031  0.4273  0.3948
  120OSM   H13S12659   2.638   0.236   7.946 -0.0737  0.5735 -0.6284
  120OSM   H13T12660   2.795   0.235   7.868  1.4288 -0.0983  1.7816
  120OSM   C14S12661   2.767   0.068   8.000  0.7060  0.0650  0.2863
  120OSM   H14S12662   2.831  -0.010   7.954  0.4253 -0.0682  0.1255
  120OSM   H14T12663   2.679   0.004   8.022 -0.7119  1.9370  0.1650
  120OSM   C15S12664   2.847   0.121   8.125  0.0648  0.5201 -0.3933
  120OSM   H15S12665   2.792   0.203   8.177 -1.2416 -0.4383 -0.2334
  120OSM   H15T12666   2.943   0.169   8.097 -0.0476 -0.1758 -1.9657
  120OSM   C16S12667   2.898   0.011   8.221 -0.6285 -0.2167  0.5276
  120OSM   H16S12668   2.971  -0.057   8.172 -0.9569  0.8766 -1.5072
  120OSM   H16T12669   2.813  -0.048   8.262 -0.5496 -2.1367 -1.9365
  120OSM   C17S12670   2.959   0.068   8.352 -0.5424 -0.1612  0.2015
  120OSM   H17S12671   2.991  -0.020   8.412  1.1041  0.8811  0.8921
  120OSM   H17T12672   2.899   0.145   8.405 -0.0775  1.0835 -1.0508
  120OSM   C18S12673   3.085   0.142   8.324  0.1925 -0.1433  0.2277
  120OSM   H18S12674   3.071   0.244   8.282 -1.3752 -0.7315 -0.6895
  120OSM   H18T12675   3.142   0.081   8.251  0.0250  1.3196 -1.1374
  120OSM   H18U12676   3.154   0.154   8.411  0.0429 -1.5423  0.5440
  120OSM    C1F12677   2.758   0.505   6.936  0.2661  1.0837 -0.0302
  120OSM     OF12678   2.724   0.620   6.906 -0.0569 -0.2987 -0.6430
  120OSM    C2F12679   2.879   0.484   7.016  0.0482  0.1871 -0.2879
  120OSM    H2F12680   2.970   0.486   6.953 -0.2125 -1.8173 -0.7705
  120OSM    H2G12681   2.881   0.380   7.055 -0.7132  0.0087 -0.7139
  120OSM    C3F12682   2.887   0.587   7.124  0.4972 -0.5257 -0.5766
  120OSM    H3F12683   2.883   0.694   7.095  2.1058  0.4367  2.4778
  120OSM    H3G12684   2.990   0.566   7.161  0.9970  1.9951 -0.4318
  120OSM    C4F12685   2.783   0.566   7.231 -0.1558 -0.1371 -0.4078
  120OSM    H4F12686   2.788   0.463   7.270 -0.1286  0.3914  1.0202
  120OSM    H4G12687   2.685   0.596   7.188 -0.5747  0.3996  0.9079
  120OSM    C5F12688   2.804   0.653   7.353  0.0160 -0.1452 -0.3281
  120OSM    H5F12689   2.773   0.759   7.338 -2.2083  0.3333  6.1498
  120OSM    H5G12690   2.913   0.659   7.374 -0.1082  0.9693  0.0650
  120OSM    C6F12691   2.737   0.600   7.482  0.2729  0.4367 -0.8407
  120OSM    H6F12692   2.782   0.499   7.498 -0.5619 -0.0099 -1.2904
  120OSM    H6G12693   2.627   0.596   7.467 -0.0186 -0.5634  1.4018
  120OSM    C7F12694   2.774   0.677   7.610 -0.3886 -0.2424 -0.4601
  120OSM    H7F12695   2.707   0.765   7.613  0.2071  0.1959  0.4904
  120OSM    H7G12696   2.880   0.708   7.596 -0.3387 -0.4005 -0.4335
  120OSM    C8F12697   2.741   0.586   7.730 -0.2333  0.3139  0.1657
  120OSM    H8F12698   2.819   0.509   7.749  0.5015  1.4531  1.9025
  120OSM    H8G12699   2.654   0.519   7.709 -0.3829 -0.8653  4.0318
  120OSM    C9F12700   2.710   0.673   7.848  0.1513  0.2140 -0.3165
  120OSM    H9F12701   2.656   0.764   7.816  1.8107  0.4740 -2.5120
  120OSM   C10F12702   2.744   0.667   7.977 -0.4938 -0.1774 -0.1593
  120OSM   H10F12703   2.712   0.742   8.051  1.3871  1.4472 -0.9404
  120OSM   C11F12704   2.827   0.555   8.028  0.1682  0.1000 -0.0506
  120OSM   H11F12705   2.934   0.568   8.000  0.5749 -4.0000 -0.6835
  120OSM   H11G12706   2.799   0.457   7.985 -1.8404  0.4229  0.4714
  120OSM   C12F12707   2.828   0.547   8.183 -0.1362 -0.2051  0.1301
  120OSM   H12F12708   2.851   0.648   8.223  0.5122 -0.8819  1.5080
  120OSM   H12G12709   2.911   0.480   8.215 -1.6977 -1.1891  2.2010
  120OSM   C13F12710   2.701   0.487   8.243 -0.7090  0.0794  0.4867
  120OSM   H13F12711   2.667   0.396   8.190  0.2083 -1.0383  1.8003
  120OSM   H13G12712   2.628   0.571   8.229  1.1562  1.3653 -1.9480
  120OSM   C14F12713   2.719   0.488   8.390  0.3834 -0.2159  0.5901
  120OSM   H14F12714   2.739   0.586   8.439 -0.8106  0.0608  0.5421
  120OSM   H14G12715   2.812   0.431   8.410 -0.9145 -1.7460  2.3001
  120OSM   C15F12716   2.602   0.412   8.457 -0.4388  0.0026 -0.3023
  120OSM   H15F12717   2.570   0.318   8.407  1.9269 -0.0189 -1.8222
  120OSM   H15G12718   2.511   0.475   8.466 -0.8709 -0.3670 -2.0285
  120OSM   C16F12719   2.641   0.371   8.602  0.4424 -0.3477  0.5534
  120OSM   H16F12720   2.678   0.462   8.655 -1.0378  1.0903 -0.8031
  120OSM   H16G12721   2.724   0.299   8.598  2.3634  1.8510 -0.2293
  120OSM   C17F12722   2.530   0.300   8.684  0.4754  0.4768  0.2082
  120OSM   H17F12723   2.441   0.367   8.690  0.3487  0.3642 -0.3969
  120OSM   H17G12724   2.569   0.294   8.788 -0.6964 -1.6934  0.5500
  120OSM   C18F12725   2.500   0.159   8.635  0.3036 -0.4134  0.5959
  120OSM   H18F12726   2.418   0.163   8.559 -0.3532 -0.7630  1.2793
  120OSM   H18G12727   2.453   0.115   8.726 -1.2488 -0.3433 -0.1558
  120OSM   H18H12728   2.586   0.095   8.607  2.1818  1.9552  0.8507
  121OSM      N12729   4.400   2.146   5.801 -0.3976 -0.4320  0.1801
  121OSM    C1512730   4.316   2.151   5.674  0.6053  0.5952  0.5204
  121OSM   H15A12731   4.280   2.054   5.644 -0.9622  1.8919 -1.9796
  121OSM   H15B12732   4.380   2.192   5.598  0.5339  0.2485  0.2721
  121OSM   H15C12733   4.226   2.210   5.691  2.5052  3.1157  2.1382
  121OSM    C1412734   4.524   2.067   5.776  0.1429 -0.0499 -1.4250
  121OSM   H14A12735   4.580   2.082   5.867 -0.8564 -0.7712 -0.6742
  121OSM   H14B12736   4.569   2.114   5.689  2.7957  1.4109  0.6508
  121OSM   H14C12737   4.505   1.964   5.753 -3.8760  0.4842 -0.8096
  121OSM    C1312738   4.446   2.287   5.827 -0.2449  0.6141  0.1377
  121OSM   H13A12739   4.477   2.333   5.734  0.0879 -0.8180 -0.4699
  121OSM   H13B12740   4.522   2.281   5.903 -0.8092 -1.7375  0.5523
  121OSM   H13C12741   4.359   2.340   5.863 -0.9332  0.1503 -0.8081
  121OSM    C1212742   4.317   2.092   5.915  0.2309 -0.3914  0.7058
  121OSM   H12A12743   4.372   2.078   6.007 -1.0939  2.2082  1.9511
  121OSM   H12B12744   4.285   1.991   5.892 -0.0705  0.2022 -1.5721
  121OSM    C1112745   4.187   2.162   5.954  0.0948  0.3074  0.6706
  121OSM   H11A12746   4.142   2.097   6.032  1.5928 -1.7583 -0.1692
  121OSM   H11B12747   4.108   2.168   5.877  0.4360  0.6998  0.3495
  121OSM      P12748   4.095   2.375   6.065 -0.3577 -0.2616 -0.3188
  121OSM    O1312749   4.147   2.484   6.151 -0.0250 -0.1690  0.3320
  121OSM    O1412750   4.020   2.408   5.942 -0.3109 -0.1719 -0.1808
  121OSM    O1112751   4.011   2.274   6.146  0.2940 -0.0044 -0.0017
  121OSM    O1212752   4.219   2.290   6.017 -0.3321  0.0267 -1.1591
  121OSM    C1S12753   4.051   2.205   6.264 -0.2836  0.1563  0.1010
  121OSM    H1S12754   4.145   2.255   6.295  0.3033 -0.0136 -1.3768
  121OSM    H1T12755   4.049   2.094   6.259  0.3187  0.2094 -1.9495
  121OSM     NF12756   4.005   2.192   6.506  0.7055  0.2407  0.4043
  121OSM    HNF12757   3.958   2.113   6.545  1.1927 -0.2124  0.0760
  121OSM    C2S12758   3.950   2.240   6.377 -0.0776 -0.0233  0.0218
  121OSM    H2S12759   3.939   2.349   6.391  0.4478  0.1202 -0.6381
  121OSM    C3S12760   3.806   2.185   6.344  0.1598 -0.0657  0.1609
  121OSM    H3S12761   3.814   2.077   6.369  1.1385  0.5418  2.6473
  121OSM     O312762   3.769   2.194   6.210 -0.6705  0.7094  0.3604
  121OSM    HO312763   3.846   2.220   6.158  0.6172 -0.9111  1.4020
  121OSM    C4S12764   3.706   2.253   6.431 -0.2903 -0.8437 -0.3756
  121OSM    H4S12765   3.662   2.343   6.385  1.2616 -0.5998 -1.4150
  121OSM    C5S12766   3.646   2.190   6.537 -0.4172 -0.9528 -0.1303
  121OSM    H5S12767   3.664   2.084   6.560  0.3458 -0.6027  0.9052
  121OSM    C6S12768   3.539   2.263   6.618 -0.1876  0.1769  0.1929
  121OSM    H6S12769   3.535   2.192   6.703  0.8257  0.7865  0.7414
  121OSM    H6T12770   3.437   2.255   6.573 -0.8592 -1.0975  1.8865
  121OSM    C7S12771   3.562   2.401   6.677  0.3724  1.0920 -0.1122
  121OSM    H7S12772   3.475   2.439   6.735  0.7866  1.9433 -0.0611
  121OSM    H7T12773   3.581   2.473   6.595  0.5021  0.2586 -0.8273
  121OSM    C8S12774   3.689   2.408   6.770 -0.3881  0.1738  0.0368
  121OSM    H8S12775   3.727   2.511   6.786  0.0427 -0.1254  0.9538
  121OSM    H8T12776   3.777   2.365   6.717  0.8573  1.8755  0.6698
  121OSM    C9S12777   3.671   2.338   6.905  0.3108 -0.2279  0.0185
  121OSM    H9S12778   3.662   2.228   6.900  0.5843 -0.2477 -0.0250
  121OSM    H9T12779   3.580   2.378   6.956 -0.8732 -3.3191  0.4034
  121OSM   C10S12780   3.790   2.366   6.995  0.2178  0.0281 -0.1096
  121OSM   H10S12781   3.823   2.471   7.011  1.0088 -0.2714  0.2713
  121OSM   H10T12782   3.880   2.315   6.954 -0.1515 -1.0911  0.4354
  121OSM   C11S12783   3.756   2.308   7.131 -0.0148 -0.2456  0.5261
  121OSM   H11S12784   3.737   2.203   7.103  0.9771 -0.3322  0.1784
  121OSM   H11T12785   3.659   2.337   7.177  0.1780 -0.7161  1.2457
  121OSM   C12S12786   3.866   2.329   7.233  0.2870 -0.0421 -0.1681
  121OSM   H12S12787   3.854   2.430   7.277 -0.8842 -0.6678  0.9563
  121OSM   H12T12788   3.963   2.322   7.179  1.0407  1.9258  0.8776
  121OSM   C13S12789   3.869   2.226   7.349 -0.4183  0.0017 -0.0074
  121OSM   H13S12790   3.964   2.249   7.402  2.0790 -2.7603 -3.0235
  121OSM   H13T12791   3.875   2.125   7.302 -2.4855  0.9962 -2.5286
  121OSM   C14S12792   3.751   2.237   7.441  0.3795  0.3596  0.1837
  121OSM   H14S12793   3.657   2.208   7.389 -0.8504  3.3985  0.5862
  121OSM   H14T12794   3.728   2.341   7.470  0.8798  0.6046 -0.2983
  121OSM   C15S12795   3.752   2.140   7.563  0.4257  0.4088  0.3995
  121OSM   H15S12796   3.841   2.171   7.621 -0.5414  0.4638  1.8927
  121OSM   H15T12797   3.763   2.037   7.525  1.6548  0.0757  1.6523
  121OSM   C16S12798   3.628   2.164   7.659 -0.1320 -0.0029  1.0112
  121OSM   H16S12799   3.537   2.122   7.613 -0.0084  0.5009  0.2958
  121OSM   H16T12800   3.617   2.274   7.677 -2.4426 -0.0414 -0.0715
  121OSM   C17S12801   3.662   2.102   7.793  0.5998  0.1982 -0.0607
  121OSM   H17S12802   3.743   2.159   7.843  3.0689 -1.6414 -1.8328
  121OSM   H17T12803   3.703   2.000   7.780 -0.3356 -0.6201  2.9940
  121OSM   C18S12804   3.551   2.101   7.894  0.2133 -0.3621  0.0512
  121OSM   H18S12805   3.529   2.206   7.925 -0.6601 -1.0114  1.6930
  121OSM   H18T12806   3.588   2.042   7.980 -0.8744 -0.7833  0.2343
  121OSM   H18U12807   3.456   2.057   7.856 -0.7316  1.0339  0.7482
  121OSM    C1F12808   4.100   2.255   6.578  0.6479 -0.2559  0.4381
  121OSM     OF12809   4.150   2.360   6.533  0.2126 -0.2298 -0.0955
  121OSM    C2F12810   4.137   2.201   6.715  0.3607  0.3065 -0.1614
  121OSM    H2F12811   4.215   2.122   6.704  2.2857  2.0837  0.4339
  121OSM    H2G12812   4.044   2.155   6.756  0.0509  0.9151 -0.1816
  121OSM    C3F12813   4.187   2.308   6.814  0.4291  0.1155  0.3259
  121OSM    H3F12814   4.114   2.390   6.796  0.8774  0.3070 -0.6533
  121OSM    H3G12815   4.282   2.349   6.774  1.2115 -2.5916 -0.7294
  121OSM    C4F12816   4.209   2.255   6.953  0.2341 -0.0575  0.7590
  121OSM    H4F12817   4.266   2.161   6.943 -1.0628 -0.9325  1.3997
  121OSM    H4G12818   4.111   2.224   6.996 -0.3888  1.7157  0.6791
  121OSM    C5F12819   4.273   2.348   7.060  0.1935 -0.1569 -0.2710
  121OSM    H5F12820   4.212   2.441   7.067  0.3779 -0.1058  0.6647
  121OSM    H5G12821   4.379   2.367   7.036  0.6054 -0.5870  1.1753
  121OSM    C6F12822   4.271   2.275   7.201  0.2188  0.0491  0.0769
  121OSM    H6F12823   4.333   2.183   7.194  1.7576  1.1876 -1.4888
  121OSM    H6G12824   4.166   2.241   7.216  0.1999  1.1625  2.6596
  121OSM    C7F12825   4.327   2.359   7.308  0.8347 -0.4076 -0.0841
  121OSM    H7F12826   4.280   2.457   7.285  0.0233 -0.7531  0.0858
  121OSM    H7G12827   4.437   2.374   7.303  0.6437  1.4569  0.7916
  121OSM    C8F12828   4.286   2.306   7.451 -0.0817  1.0189  0.3460
  121OSM    H8F12829   4.299   2.195   7.453 -0.3243  0.9609 -0.9007
  121OSM    H8G12830   4.179   2.329   7.435 -0.4554 -2.3809 -2.8201
  121OSM    C9F12831   4.332   2.379   7.570  0.0344  0.1676 -0.9852
  121OSM    H9F12832   4.401   2.461   7.545  1.8979 -0.9502  0.3714
  121OSM   C10F12833   4.288   2.361   7.694 -0.0404 -0.1561 -0.4839
  121OSM   H10F12834   4.327   2.426   7.773 -2.3032  0.9854 -0.2679
  121OSM   C11F12835   4.191   2.252   7.736  0.4740  0.2181 -0.2800
  121OSM   H11F12836   4.221   2.169   7.669  0.6999  0.2155 -0.1763
  121OSM   H11G12837   4.087   2.287   7.723  0.8759  1.4450 -0.2344
  121OSM   C12F12838   4.202   2.213   7.887  0.2772 -0.8442  0.8934
  121OSM   H12F12839   4.267   2.284   7.943  0.7706 -0.8454  0.3275
  121OSM   H12G12840   4.253   2.115   7.898  3.3431  0.4798 -0.7732
  121OSM   C13F12841   4.065   2.212   7.955 -0.2991  0.4648  0.3238
  121OSM   H13F12842   3.988   2.149   7.906  0.2937  0.1453 -0.2094
  121OSM   H13G12843   4.035   2.319   7.954  0.7097  0.7516 -0.6580
  121OSM   C14F12844   4.074   2.187   8.108 -0.6730  0.3614  0.4467
  121OSM   H14F12845   4.137   2.274   8.135 -1.5957  1.4650 -0.8808
  121OSM   H14G12846   4.126   2.092   8.133 -0.5457  0.2597 -0.2066
  121OSM   C15F12847   3.948   2.202   8.179  0.5741 -0.1623  0.2627
  121OSM   H15F12848   3.906   2.299   8.147 -1.7274 -2.3942 -3.8807
  121OSM   H15G12849   3.966   2.207   8.289 -1.5958  0.4009  0.6113
  121OSM   C16F12850   3.839   2.091   8.149  0.2902 -1.0131  0.0202
  121OSM   H16F12851   3.842   2.068   8.041  0.1289 -0.3885 -0.1211
  121OSM   H16G12852   3.736   2.126   8.172  0.3199 -0.2041 -1.0596
  121OSM   C17F12853   3.861   1.959   8.229 -0.4362  0.0857  0.2865
  121OSM   H17F12854   3.865   1.973   8.339 -2.2066 -1.1428  0.5368
  121OSM   H17G12855   3.961   1.917   8.205 -0.9590 -0.6795 -0.6015
  121OSM   C18F12856   3.750   1.866   8.196 -0.4958  0.8445  0.2727
  121OSM   H18F12857   3.758   1.776   8.262  1.1380 -0.4618 -1.6455
  121OSM   H18G12858   3.753   1.839   8.088 -0.6380 -0.1167  0.5024
  121OSM   H18H12859   3.644   1.900   8.199 -1.4229 -1.8523  0.0818
  122OSM      N12860   2.774   3.479   5.752 -0.2957 -0.5230 -0.4230
  122OSM    C1512861   2.828   3.598   5.679 -0.5238  1.0951 -0.0833
  122OSM   H15A12862   2.871   3.675   5.742  1.0753 -0.2160  0.4782
  122OSM   H15B12863   2.750   3.633   5.613  1.2691  0.8882 -2.3973
  122OSM   H15C12864   2.903   3.563   5.610 -1.5313 -0.5757 -0.3663
  122OSM    C1412865   2.690   3.399   5.659  0.1762  0.4510  0.2330
  122OSM   H14A12866   2.755   3.354   5.586  1.6579  2.0829  0.5048
  122OSM   H14B12867   2.616   3.460   5.609  0.3496  1.6427  1.4025
  122OSM   H14C12868   2.632   3.334   5.723 -1.6405  1.0160 -0.7834
  122OSM    C1312869   2.890   3.398   5.805  0.7317 -0.4584  0.3038
  122OSM   H13A12870   2.962   3.452   5.865  1.6820 -1.2923 -0.0590
  122OSM   H13B12871   2.955   3.368   5.724  0.9860  2.1755 -0.5270
  122OSM   H13C12872   2.846   3.310   5.850 -2.2541  1.8635  2.1325
  122OSM    C1212873   2.684   3.525   5.867  1.2366 -0.2584  0.2191
  122OSM   H12A12874   2.655   3.436   5.920 -0.0572  0.0483  0.0513
  122OSM   H12B12875   2.602   3.569   5.812  2.5042 -0.2411 -1.7295
  122OSM    C1112876   2.732   3.632   5.974  0.1219  0.6037 -0.5300
  122OSM   H11A12877   2.821   3.577   6.012 -0.1932  0.0642 -0.5645
  122OSM   H11B12878   2.652   3.635   6.051  0.4423 -0.3730 -0.1530
  122OSM      P12879   2.888   3.841   5.968 -0.6109 -0.0531 -0.1478
  122OSM    O1312880   3.005   3.768   5.912  0.3115 -0.0434 -0.4041
  122OSM    O1412881   2.872   3.988   5.933 -0.3688  0.3617 -0.2133
  122OSM    O1112882   2.868   3.805   6.120  0.1758 -0.4393 -0.1127
  122OSM    O1212883   2.770   3.757   5.910  0.2996  0.1503 -0.4933
  122OSM    C1S12884   2.951   3.867   6.227 -0.1408 -0.4975  1.0937
  122OSM    H1S12885   2.965   3.976   6.211  0.6319 -0.5895  1.1327
  122OSM    H1T12886   3.054   3.827   6.219  0.3210  1.1003 -1.4886
  122OSM     NF12887   2.940   3.946   6.477 -0.1883  0.1517 -0.8300
  122OSM    HNF12888   3.021   3.908   6.522 -0.1782  1.1466  0.0256
  122OSM    C2S12889   2.890   3.847   6.373  0.6414 -0.7617  0.0429
  122OSM    H2S12890   2.781   3.866   6.363  0.8608 -0.9688 -3.5380
  122OSM    C3S12891   2.911   3.694   6.404  0.2228 -0.2950  0.5442
  122OSM    H3S12892   3.020   3.670   6.403  0.0095 -1.3170  1.0596
  122OSM     O312893   2.859   3.602   6.308 -0.0701 -0.1658 -0.7280
  122OSM    HO312894   2.853   3.656   6.229  1.3140 -2.9171 -2.7939
  122OSM    C4S12895   2.856   3.651   6.534  0.2334  0.0402  0.0164
  122OSM    H4S12896   2.746   3.644   6.536  0.1041  1.6315  4.7702
  122OSM    C5S12897   2.925   3.638   6.647 -0.2865  0.0155  0.7164
  122OSM    H5S12898   3.030   3.667   6.636  0.5179 -2.8987  0.2698
  122OSM    C6S12899   2.880   3.608   6.787 -0.5749  0.0849  0.0822
  122OSM    H6S12900   2.956   3.541   6.832 -0.8751  0.1208  0.6535
  122OSM    H6T12901   2.788   3.546   6.780  0.1590 -0.9768 -0.1659
  122OSM    C7S12902   2.861   3.746   6.859  0.2458 -0.3026 -1.0284
  122OSM    H7S12903   2.796   3.822   6.811 -2.2235 -0.5653  1.7137
  122OSM    H7T12904   2.957   3.799   6.876 -1.4168  3.1412 -2.0560
  122OSM    C8S12905   2.809   3.735   6.997  0.1199 -0.3946  0.8430
  122OSM    H8S12906   2.873   3.656   7.042  2.5420  1.0813  0.0851
  122OSM    H8T12907   2.700   3.715   7.004  0.1270 -0.4200  0.8787
  122OSM    C9S12908   2.820   3.869   7.071  0.6978 -0.1000 -0.1826
  122OSM    H9S12909   2.759   3.945   7.020  0.4847 -0.7959 -0.9761
  122OSM    H9T12910   2.925   3.906   7.078  0.9389 -0.6367 -0.9496
  122OSM   C10S12911   2.759   3.840   7.213 -0.2915 -0.5394 -0.0568
  122OSM   H10S12912   2.672   3.772   7.210 -0.4659 -0.3998  1.3815
  122OSM   H10T12913   2.721   3.932   7.263  0.2189 -1.6807  2.5033
  122OSM   C11S12914   2.858   3.781   7.319 -0.2268 -0.3367 -0.0175
  122OSM   H11S12915   2.946   3.847   7.305 -1.3107  1.2046  0.3153
  122OSM   H11T12916   2.887   3.678   7.288 -1.8010 -0.5106 -0.9642
  122OSM   C12S12917   2.820   3.784   7.467  0.2218 -0.3031 -0.3535
  122OSM   H12S12918   2.719   3.743   7.486 -1.2887  3.5669  0.5076
  122OSM   H12T12919   2.794   3.887   7.500 -2.4145 -0.4445 -1.8150
  122OSM   C13S12920   2.919   3.730   7.574  0.1022  0.2533 -0.9264
  122OSM   H13S12921   2.889   3.755   7.678  0.3421  1.7403 -1.2061
  122OSM   H13T12922   3.014   3.784   7.558  0.3284  0.3410  0.6465
  122OSM   C14S12923   2.961   3.576   7.552  0.3463  0.1875 -0.3976
  122OSM   H14S12924   3.014   3.567   7.455 -0.8361 -2.8586 -0.8133
  122OSM   H14T12925   2.879   3.501   7.547  0.1600  0.0687  2.9452
  122OSM   C15S12926   3.059   3.540   7.663 -0.1686  1.1739 -0.8446
  122OSM   H15S12927   3.136   3.620   7.672  1.8602 -0.7596 -0.6035
  122OSM   H15T12928   3.114   3.451   7.625 -3.2778 -0.8344 -0.8002
  122OSM   C16S12929   2.985   3.510   7.802  0.5525 -0.1525  0.1522
  122OSM   H16S12930   2.914   3.426   7.790 -1.2213  1.5526 -1.6794
  122OSM   H16T12931   2.932   3.606   7.821 -0.1817 -0.4772 -0.2267
  122OSM   C17S12932   3.081   3.457   7.904  0.2081 -0.3318 -0.2231
  122OSM   H17S12933   3.170   3.520   7.929 -0.5387  0.6116  0.1113
  122OSM   H17T12934   3.115   3.360   7.863  0.3987  0.1867 -1.3337
  122OSM   C18S12935   3.016   3.422   8.041 -0.4002  0.2102  0.2163
  122OSM   H18S12936   2.979   3.515   8.090  0.1025  1.5594 -1.9215
  122OSM   H18T12937   3.090   3.374   8.108 -0.5131  0.8231  0.7885
  122OSM   H18U12938   2.936   3.346   8.027 -1.5267  1.1997  1.1836
  122OSM    C1F12939   2.902   4.075   6.468 -0.1481 -0.2183  0.5267
  122OSM     OF12940   2.827   4.115   6.377  0.0641  0.4481  0.4892
  122OSM    C2F12941   2.948   4.163   6.579  0.0582 -0.8067  0.2112
  122OSM    H2F12942   2.974   4.266   6.548 -1.1083 -0.3878  0.6176
  122OSM    H2G12943   3.044   4.124   6.619  0.9398  0.2547 -0.8376
  122OSM    C3F12944   2.841   4.151   6.694  0.0732  0.2855 -0.1979
  122OSM    H3F12945   2.819   4.042   6.705  0.1750  0.4033  1.2614
  122OSM    H3G12946   2.747   4.206   6.670 -0.9114 -0.0198  2.7434
  122OSM    C4F12947   2.888   4.203   6.834 -0.1415  0.4314 -0.2399
  122OSM    H4F12948   2.803   4.196   6.905 -1.4442 -2.2390 -1.9633
  122OSM    H4G12949   2.925   4.306   6.820 -1.2263  1.0009  0.9362
  122OSM    C5F12950   3.006   4.112   6.885  0.2275 -0.5728  0.4671
  122OSM    H5F12951   3.097   4.109   6.820 -0.7840  0.9183 -1.0862
  122OSM    H5G12952   2.961   4.011   6.883 -1.0511 -0.0090 -1.3885
  122OSM    C6F12953   3.035   4.149   7.037 -0.2178  0.0086 -0.2057
  122OSM    H6F12954   2.939   4.136   7.091  0.8293 -0.1541  1.6947
  122OSM    H6G12955   3.073   4.253   7.047 -2.8801  0.8594  1.6812
  122OSM    C7F12956   3.137   4.057   7.101  0.0553  0.2250 -0.1951
  122OSM    H7F12957   3.136   3.958   7.050 -0.3741 -0.4050  1.0018
  122OSM    H7G12958   3.104   4.034   7.205  1.0069  1.1409  0.3239
  122OSM    C8F12959   3.280   4.110   7.115 -0.3715 -0.7159 -0.0638
  122OSM    H8F12960   3.339   4.043   7.181  0.3501  1.2671  1.3451
  122OSM    H8G12961   3.269   4.206   7.171 -2.4605 -0.6904 -0.4609
  122OSM    C9F12962   3.350   4.134   6.978  0.0311  0.2275 -0.7903
  122OSM    H9F12963   3.291   4.187   6.901 -0.0809 -1.6094 -1.9836
  122OSM   C10F12964   3.479   4.102   6.939 -0.1710  0.1993  0.5113
  122OSM   H10F12965   3.516   4.135   6.842 -1.6016 -1.6256 -0.6927
  122OSM   C11F12966   3.583   4.041   7.031 -0.4544  0.0239  0.3364
  122OSM   H11F12967   3.561   4.060   7.138  1.6068  0.7813  0.6369
  122OSM   H11G12968   3.682   4.087   7.015 -0.8464  0.5355 -0.6978
  122OSM   C12F12969   3.590   3.892   6.993  0.3038  0.1519 -0.3588
  122OSM   H12F12970   3.632   3.896   6.890 -0.5902  3.8641 -0.6402
  122OSM   H12G12971   3.489   3.847   6.993 -0.1808  1.1014  2.9865
  122OSM   C13F12972   3.667   3.814   7.103 -0.3732 -0.1813  0.0797
  122OSM   H13F12973   3.629   3.833   7.206 -0.5605 -0.9719  0.1580
  122OSM   H13G12974   3.766   3.863   7.108  0.2266 -1.0975 -1.9870
  122OSM   C14F12975   3.685   3.663   7.076  0.9314  0.0612 -0.0454
  122OSM   H14F12976   3.700   3.657   6.966  1.9010  0.5915  0.0537
  122OSM   H14G12977   3.601   3.595   7.102  1.3640 -1.4207 -2.3957
  122OSM   C15F12978   3.813   3.611   7.137 -0.6534  0.4361  0.7265
  122OSM   H15F12979   3.890   3.683   7.102 -1.2427 -0.0196 -1.5892
  122OSM   H15G12980   3.835   3.505   7.110 -0.1939 -0.3569  3.9759
  122OSM   C16F12981   3.801   3.608   7.293  0.3039  0.1260 -0.1857
  122OSM   H16F12982   3.726   3.538   7.335  2.0769 -2.3414 -1.0228
  122OSM   H16G12983   3.752   3.702   7.326 -1.7997 -0.6176 -1.1216
  122OSM   C17F12984   3.933   3.588   7.367  0.2529 -0.1519 -0.2305
  122OSM   H17F12985   3.926   3.612   7.475 -1.5731  1.1082 -0.6075
  122OSM   H17G12986   4.004   3.666   7.331 -0.4774  0.7803  0.3435
  122OSM   C18F12987   3.995   3.448   7.344  0.1360  0.8955  0.3559
  122OSM   H18F12988   3.995   3.405   7.241 -1.2214  1.3572  0.1481
  122OSM   H18G12989   3.920   3.378   7.388  0.7563 -0.4543 -0.6915
  122OSM   H18H12990   4.097   3.445   7.386 -0.7245  0.2661  2.4558
  123OSM      N12991   1.614   6.428   6.588 -0.4246  0.5925  1.2622
  123OSM    C1512992   1.607   6.464   6.442 -0.8634  0.1653 -0.2754
  123OSM   H15A12993   1.664   6.554   6.424  1.6467 -1.1830  0.6677
  123OSM   H15B12994   1.503   6.473   6.414 -1.5773 -1.2118  1.7987
  123OSM   H15C12995   1.651   6.389   6.377 -0.8679  2.3311 -2.8438
  123OSM    C1412996   1.521   6.313   6.600 -0.1252 -0.2905  0.1883
  123OSM   H14A12997   1.546   6.224   6.544  0.2893 -0.4962  0.6993
  123OSM   H14B12998   1.422   6.336   6.564  0.8408  1.2197 -1.6196
  123OSM   H14C12999   1.519   6.279   6.702 -0.6241 -0.0694  0.2553
  123OSM    C1313000   1.747   6.385   6.631 -0.1310  0.9173  0.1327
  123OSM   H13A13001   1.785   6.295   6.586  0.2686 -0.0000  2.2875
  123OSM   H13B13002   1.754   6.369   6.737 -3.4701  0.8417  0.3890
  123OSM   H13C13003   1.823   6.455   6.599  1.4142 -0.4801  0.6719
  123OSM    C1213004   1.576   6.551   6.677  0.1871  0.8201 -0.1874
  123OSM   H12A13005   1.658   6.621   6.672  1.2397 -0.4424 -1.1703
  123OSM   H12B13006   1.566   6.518   6.779  1.0774 -3.4205 -1.3525
  123OSM    C1113007   1.445   6.624   6.653 -0.4285  0.8386  0.5343
  123OSM   H11A13008   1.408   6.675   6.744  1.1834  0.4272  1.4387
  123OSM   H11B13009   1.366   6.547   6.647 -1.2970  1.7849 -0.3873
  123OSM      P13010   1.517   6.847   6.497 -0.2690 -0.2868 -0.0788
  123OSM    O1313011   1.663   6.838   6.505 -0.1110  0.1344 -0.1082
  123OSM    O1413012   1.448   6.902   6.384 -0.4748 -0.7121  0.0135
  123OSM    O1113013   1.465   6.924   6.628 -0.3721  0.4098  0.6598
  123OSM    O1213014   1.450   6.704   6.526  0.5109  0.0323 -0.4517
  123OSM    C1S13015   1.538   6.928   6.751 -0.9109  0.1292  0.6080
  123OSM    H1S13016   1.633   6.986   6.744 -0.9334  0.0248 -0.6500
  123OSM    H1T13017   1.564   6.826   6.783  0.2805  0.4461  0.6851
  123OSM     NF13018   1.542   7.011   6.999  0.3887  0.7549 -0.6978
  123OSM    HNF13019   1.527   6.952   7.078 -0.8597  0.7075 -0.9530
  123OSM    C2S13020   1.457   6.991   6.875 -0.0916 -0.3801  0.0833
  123OSM    H2S13021   1.422   7.092   6.842 -2.4325 -0.3606  2.4916
  123OSM    C3S13022   1.328   6.917   6.901  0.7767  0.4109  0.6502
  123OSM    H3S13023   1.355   6.817   6.940 -1.0706 -0.8167 -1.1405
  123OSM     O313024   1.253   6.900   6.781  0.3302 -0.0644 -0.3085
  123OSM    HO313025   1.307   6.934   6.709 -0.9900 -0.2982 -1.4353
  123OSM    C4S13026   1.254   6.993   7.011 -0.3553 -0.6285 -0.7318
  123OSM    H4S13027   1.245   7.103   7.009 -0.9325 -0.6867 -1.3521
  123OSM    C5S13028   1.185   6.930   7.109 -1.1573 -0.0481 -0.2569
  123OSM    H5S13029   1.185   6.820   7.122 -2.5413 -0.2287 -1.7311
  123OSM    C6S13030   1.098   6.997   7.216  0.0839  0.3447 -0.3368
  123OSM    H6S13031   1.002   6.940   7.222 -0.4934  1.5278  1.9632
  123OSM    H6T13032   1.078   7.103   7.191 -1.2514  0.3295  0.6198
  123OSM    C7S13033   1.154   6.989   7.356  0.4283 -0.3629 -0.0568
  123OSM    H7S13034   1.240   7.055   7.379  0.2664 -0.3395  0.4855
  123OSM    H7T13035   1.173   6.881   7.374 -0.6936 -0.3335  1.3496
  123OSM    C8S13036   1.041   7.031   7.461 -0.3046  0.8443 -0.0560
  123OSM    H8S13037   0.992   7.108   7.398  1.0140  1.2442 -0.6193
  123OSM    H8T13038   1.077   7.079   7.555  0.8355 -0.2422  0.0730
  123OSM    C9S13039   0.929   6.922   7.501  0.1538 -0.9814  0.0510
  123OSM    H9S13040   0.879   6.874   7.414  0.4043 -1.1622  0.0092
  123OSM    H9T13041   0.843   6.971   7.552 -0.2349 -0.7693 -0.7992
  123OSM   C10S13042   0.979   6.815   7.594  0.0400  0.0961 -0.3101
  123OSM   H10S13043   1.036   6.861   7.677 -0.1662  0.6289 -0.4634
  123OSM   H10T13044   1.051   6.750   7.539  0.5317 -0.7769  1.3482
  123OSM   C11S13045   0.868   6.738   7.663 -0.1444  0.0549  0.1042
  123OSM   H11S13046   0.838   6.646   7.608 -0.0821 -1.5215  2.6597
  123OSM   H11T13047   0.776   6.799   7.669  0.1759  0.3894  1.6821
  123OSM   C12S13048   0.889   6.696   7.809 -0.1160  0.3407  0.1619
  123OSM   H12S13049   0.801   6.646   7.853 -1.8592  2.2918 -1.0377
  123OSM   H12T13050   0.892   6.792   7.864  0.1507 -0.3689  1.4126
  123OSM   C13S13051   1.013   6.607   7.844 -0.3563 -0.2863 -0.3112
  123OSM   H13S13052   1.107   6.651   7.803 -1.8627  2.0501 -1.4000
  123OSM   H13T13053   1.004   6.510   7.791 -0.8402 -0.5154  0.1954
  123OSM   C14S13054   1.017   6.588   7.989 -0.6696 -0.0746 -0.8650
  123OSM   H14S13055   0.916   6.554   8.021  0.7518 -3.3465  0.3952
  123OSM   H14T13056   1.030   6.688   8.035 -1.9786 -0.7218  1.0173
  123OSM   C15S13057   1.114   6.484   8.044  0.3100 -1.0106  0.3588
  123OSM   H15S13058   1.216   6.506   8.006  0.0225  1.7431  1.0603
  123OSM   H15T13059   1.080   6.387   8.002 -1.6281  0.0233 -0.5068
  123OSM   C16S13060   1.113   6.468   8.195  0.0733  0.3531 -0.9898
  123OSM   H16S13061   1.015   6.431   8.231  1.8498 -3.5386  0.1657
  123OSM   H16T13062   1.141   6.568   8.234  0.6095 -0.9251  2.0566
  123OSM   C17S13063   1.210   6.363   8.255 -0.7574  0.0711  0.6747
  123OSM   H17S13064   1.229   6.391   8.361 -1.2039 -1.8927  1.2928
  123OSM   H17T13065   1.310   6.361   8.207  0.3835  0.5456  2.9529
  123OSM   C18S13066   1.156   6.224   8.257  0.7837  0.1576 -0.7746
  123OSM   H18S13067   1.214   6.159   8.327  0.6996  1.6548  0.7101
  123OSM   H18T13068   1.152   6.171   8.159  1.7495 -1.1352 -0.1299
  123OSM   H18U13069   1.057   6.223   8.308  1.0685  1.1533 -0.1958
  123OSM    C1F13070   1.661   7.071   7.001  0.2325  0.5474  0.3538
  123OSM     OF13071   1.697   7.152   6.915 -0.2294 -0.2063  0.4708
  123OSM    C2F13072   1.740   7.035   7.120  0.5060 -0.1305  0.3124
  123OSM    H2F13073   1.808   6.949   7.103  1.9701  1.1005 -0.1976
  123OSM    H2G13074   1.673   7.004   7.203  1.6360 -0.7185  1.0103
  123OSM    C3F13075   1.834   7.146   7.174  0.3234 -0.0823 -0.9130
  123OSM    H3F13076   1.909   7.160   7.094  0.7838  1.8255 -0.1788
  123OSM    H3G13077   1.883   7.105   7.265 -1.6657  0.6024  0.5078
  123OSM    C4F13078   1.773   7.285   7.199 -0.3808 -0.5187  0.4098
  123OSM    H4F13079   1.736   7.327   7.103 -0.1771 -1.5481 -0.1288
  123OSM    H4G13080   1.855   7.342   7.249  0.7651 -1.3745 -0.4593
  123OSM    C5F13081   1.662   7.279   7.309 -0.6132 -0.5114  0.2441
  123OSM    H5F13082   1.674   7.345   7.397  2.0674  0.6515 -0.9556
  123OSM    H5G13083   1.657   7.176   7.350  0.7674  0.1507  2.1325
  123OSM    C6F13084   1.523   7.324   7.253 -0.1437 -0.6430  0.5803
  123OSM    H6F13085   1.499   7.258   7.167  2.0388 -0.3849 -0.2467
  123OSM    H6G13086   1.540   7.428   7.219  2.9701 -0.2690  3.0728
  123OSM    C7F13087   1.404   7.309   7.353 -0.1232 -0.3490 -0.1324
  123OSM    H7F13088   1.406   7.212   7.407 -1.2903 -1.0164 -1.2612
  123OSM    H7G13089   1.315   7.296   7.287  0.5055  0.6859 -1.2244
  123OSM    C8F13090   1.367   7.431   7.434  0.1236 -0.1978  0.0812
  123OSM    H8F13091   1.334   7.516   7.370 -2.7482 -0.0162  1.7324
  123OSM    H8G13092   1.458   7.460   7.491  0.0811 -0.9450  0.5342
  123OSM    C9F13093   1.250   7.404   7.524 -0.5226  0.1486 -0.5936
  123OSM    H9F13094   1.159   7.464   7.509 -1.9647 -1.6401  0.6867
  123OSM   C10F13095   1.235   7.311   7.621 -0.4964 -0.1108  0.0298
  123OSM   H10F13096   1.141   7.304   7.678 -0.6460 -2.9121 -0.4739
  123OSM   C11F13097   1.339   7.217   7.673 -0.3141  0.1710  0.1805
  123OSM   H11F13098   1.431   7.215   7.611  0.3893  0.1567  1.2285
  123OSM   H11G13099   1.296   7.115   7.661  2.2030 -0.9552  0.5144
  123OSM   C12F13100   1.363   7.242   7.824 -0.4949  0.2712  0.1583
  123OSM   H12F13101   1.403   7.345   7.839 -0.3341  0.4066 -1.1203
  123OSM   H12G13102   1.443   7.169   7.849  0.2274  0.9238 -0.2332
  123OSM   C13F13103   1.250   7.220   7.920 -0.2780  0.6512 -0.4872
  123OSM   H13F13104   1.161   7.286   7.910 -1.8008 -0.9700  1.7057
  123OSM   H13G13105   1.296   7.270   8.008 -1.2057  0.0539  0.3477
  123OSM   C14F13106   1.226   7.080   7.969  0.7776  0.1011  0.6763
  123OSM   H14F13107   1.319   7.022   7.983  0.3772 -0.3975  1.2915
  123OSM   H14G13108   1.164   7.025   7.896  1.1932  0.7063 -0.1442
  123OSM   C15F13109   1.151   7.091   8.102  0.8846  0.0687 -0.7010
  123OSM   H15F13110   1.053   7.141   8.087  1.5724  1.3375 -1.0537
  123OSM   H15G13111   1.216   7.157   8.163  0.0110 -0.5967  0.9926
  123OSM   C16F13112   1.138   6.953   8.171  0.5556 -0.6308  0.0615
  123OSM   H16F13113   1.230   6.894   8.148  0.5764 -1.6533  2.5999
  123OSM   H16G13114   1.043   6.909   8.133  0.2492  0.3514 -0.3225
  123OSM   C17F13115   1.128   6.962   8.323 -0.8828  0.2062 -0.4769
  123OSM   H17F13116   1.084   6.877   8.379  0.2395  0.0711  0.2197
  123OSM   H17G13117   1.067   7.051   8.349  0.6961  1.7011 -1.7329
  123OSM   C18F13118   1.256   6.985   8.400 -0.3062  0.7015 -0.6529
  123OSM   H18F13119   1.309   7.080   8.375 -0.5261  1.9484  3.2698
  123OSM   H18G13120   1.318   6.898   8.369 -0.6005 -0.1510  1.1059
  123OSM   H18H13121   1.232   6.998   8.507  1.3714 -3.3640  0.3089
  124OSM      N13122   1.143   3.496   6.100 -0.6319  1.0168  0.3890
  124OSM    C1513123   1.261   3.489   6.005 -0.3411  0.4229  0.0165
  124OSM   H15A13124   1.266   3.567   5.930  0.8613 -0.7261 -1.1266
  124OSM   H15B13125   1.269   3.391   5.960 -0.0284  0.5494 -0.2060
  124OSM   H15C13126   1.354   3.500   6.060 -0.2184  0.0229 -0.1141
  124OSM    C1413127   1.141   3.620   6.179 -0.2340  0.2644  0.1926
  124OSM   H14A13128   1.219   3.612   6.253  0.5581  0.2541 -0.6455
  124OSM   H14B13129   1.048   3.646   6.228 -1.5786  0.1550 -2.2023
  124OSM   H14C13130   1.155   3.706   6.115  1.3998 -1.0528 -1.2443
  124OSM    C1313131   1.012   3.491   6.008  0.3904 -0.7717 -0.7672
  124OSM   H13A13132   0.924   3.513   6.066  1.1283  0.8998 -0.2750
  124OSM   H13B13133   1.005   3.393   5.963  0.3289 -0.4918 -1.3774
  124OSM   H13C13134   1.013   3.566   5.931 -2.9018  0.7412  0.5923
  124OSM    C1213135   1.147   3.372   6.191  0.3417 -0.2582  0.0487
  124OSM   H12A13136   1.140   3.283   6.130 -1.0221 -0.1437  0.0315
  124OSM   H12B13137   1.054   3.381   6.245  1.4242 -0.3262  1.9597
  124OSM    C1113138   1.262   3.355   6.296  0.7339 -0.0785 -0.7350
  124OSM   H11A13139   1.238   3.260   6.348  0.5163  1.3626  1.9041
  124OSM   H11B13140   1.266   3.446   6.360 -2.0222  1.3969 -2.5481
  124OSM      P13141   1.450   3.189   6.195 -0.3716 -0.3606  0.0794
  124OSM    O1313142   1.342   3.124   6.115 -0.0807 -0.7042 -0.0213
  124OSM    O1413143   1.587   3.214   6.134 -0.0519  0.3963  0.5865
  124OSM    O1113144   1.468   3.135   6.337 -0.1491  0.1595  0.4701
  124OSM    O1213145   1.392   3.333   6.232  0.4788 -0.1697 -0.0089
  124OSM    C1S13146   1.548   3.206   6.430  0.5168  0.2117 -0.1528
  124OSM    H1S13147   1.496   3.301   6.455 -0.1957  0.3750 -2.1200
  124OSM    H1T13148   1.653   3.222   6.397  0.8919  1.0473  1.4141
  124OSM     NF13149   1.652   3.200   6.652  0.3065 -0.3601 -0.3036
  124OSM    HNF13150   1.745   3.167   6.662  0.6985  0.5280 -0.9582
  124OSM    C2S13151   1.556   3.126   6.566  0.0725  0.8177  0.4682
  124OSM    H2S13152   1.456   3.116   6.612  0.4191  1.3539  1.3572
  124OSM    C3S13153   1.598   2.982   6.542 -0.3122  0.3805  0.5037
  124OSM    H3S13154   1.702   3.003   6.510 -0.6837  2.0606  0.3471
  124OSM     O313155   1.516   2.903   6.456  0.4453  0.8989  0.0198
  124OSM    HO313156   1.475   2.976   6.409 -0.3186  1.0011  0.8296
  124OSM    C4S13157   1.606   2.921   6.680  0.1392  0.1267  0.2436
  124OSM    H4S13158   1.508   2.927   6.730 -0.1761 -0.1116 -0.3523
  124OSM    C5S13159   1.712   2.871   6.749  0.0898  0.3991  0.3821
  124OSM    H5S13160   1.812   2.884   6.706  1.0014  1.0043  2.5685
  124OSM    C6S13161   1.710   2.819   6.888  0.0756  0.7242 -0.6530
  124OSM    H6S13162   1.786   2.738   6.890  0.4127  1.0499 -0.2341
  124OSM    H6T13163   1.618   2.758   6.902  0.1201  0.3666 -1.8681
  124OSM    C7S13164   1.734   2.908   7.015  0.2701  0.1227  0.3182
  124OSM    H7S13165   1.649   2.980   7.019  0.1280 -0.0335  0.1062
  124OSM    H7T13166   1.828   2.964   6.997 -0.2691  1.0553  0.3202
  124OSM    C8S13167   1.737   2.826   7.141 -0.5293 -0.3554 -0.3156
  124OSM    H8S13168   1.820   2.755   7.117 -1.4522 -2.0063  1.2302
  124OSM    H8T13169   1.641   2.771   7.150 -0.1226 -0.8020  1.7713
  124OSM    C9S13170   1.746   2.911   7.270  0.2760 -0.5962  0.9217
  124OSM    H9S13171   1.639   2.931   7.291  0.0237 -2.6775  1.7000
  124OSM    H9T13172   1.813   3.000   7.261 -0.2515 -0.4632 -1.8955
  124OSM   C10S13173   1.800   2.823   7.389 -0.5362 -0.0761  0.4472
  124OSM   H10S13174   1.895   2.776   7.356 -0.6709  0.6396 -1.0106
  124OSM   H10T13175   1.730   2.739   7.404 -1.1269  0.2856 -0.2389
  124OSM   C11S13176   1.808   2.905   7.520 -0.0609 -0.2151 -0.4143
  124OSM   H11S13177   1.711   2.958   7.527  1.4885  3.2676 -3.7095
  124OSM   H11T13178   1.882   2.987   7.511  0.2346 -0.7855 -3.7161
  124OSM   C12S13179   1.844   2.817   7.640 -0.0929  0.5338 -0.2367
  124OSM   H12S13180   1.946   2.776   7.625 -0.3618  0.0183 -0.6592
  124OSM   H12T13181   1.781   2.730   7.669  1.2489 -0.0795  0.9000
  124OSM   C13S13182   1.865   2.903   7.767  0.0548 -0.2496 -0.2835
  124OSM   H13S13183   1.765   2.927   7.807 -0.2022 -0.9975 -0.4768
  124OSM   H13T13184   1.925   2.993   7.743  1.1523 -0.7951  0.3694
  124OSM   C14S13185   1.923   2.824   7.885 -0.1294 -0.1718  0.3280
  124OSM   H14S13186   2.033   2.811   7.871  0.0568  0.3323  1.2988
  124OSM   H14T13187   1.880   2.722   7.876 -0.7204  0.2558 -1.9397
  124OSM   C15S13188   1.881   2.885   8.019 -0.0691  0.1897 -0.5488
  124OSM   H15S13189   1.779   2.929   8.015 -0.0027  0.4083  0.1179
  124OSM   H15T13190   1.952   2.965   8.047  1.0404 -0.2571 -2.0313
  124OSM   C16S13191   1.874   2.776   8.126 -0.1959  0.8447 -0.2533
  124OSM   H16S13192   1.950   2.695   8.127 -0.5608  0.5011 -0.2925
  124OSM   H16T13193   1.778   2.723   8.107 -1.1789  1.2970  3.1087
  124OSM   C17S13194   1.866   2.851   8.262  0.1826 -0.7696 -0.0159
  124OSM   H17S13195   1.797   2.938   8.253  1.2764  0.0755 -0.3316
  124OSM   H17T13196   1.966   2.895   8.284 -0.7333  1.7314 -0.6151
  124OSM   C18S13197   1.815   2.771   8.382 -0.5270  0.0493 -0.1999
  124OSM   H18S13198   1.712   2.730   8.371 -0.3213 -0.2426 -1.0909
  124OSM   H18T13199   1.812   2.833   8.475 -1.7060  1.4045 -1.1212
  124OSM   H18U13200   1.881   2.683   8.393 -1.9787 -1.2885 -1.8776
  124OSM    C1F13201   1.623   3.323   6.685 -0.4216 -0.2113  0.0054
  124OSM     OF13202   1.508   3.362   6.689  0.5827  0.0963 -0.1959
  124OSM    C2F13203   1.739   3.423   6.708 -0.1202 -0.4155  0.1795
  124OSM    H2F13204   1.746   3.485   6.616  2.3177 -1.2893 -0.2554
  124OSM    H2G13205   1.840   3.379   6.725  0.3178 -0.1117 -1.5167
  124OSM    C3F13206   1.702   3.524   6.812  0.3816  0.1910 -0.4560
  124OSM    H3F13207   1.700   3.476   6.912 -1.4589  1.4254  0.1303
  124OSM    H3G13208   1.601   3.568   6.795  0.5099  1.1175  1.0709
  124OSM    C4F13209   1.809   3.620   6.834 -0.4715 -0.7658  0.7784
  124OSM    H4F13210   1.785   3.721   6.794  0.3848 -0.0979  1.9184
  124OSM    H4G13211   1.910   3.590   6.797 -0.9982 -1.0882 -0.4278
  124OSM    C5F13212   1.809   3.664   6.984  0.4268  0.2508 -0.4654
  124OSM    H5F13213   1.829   3.585   7.059 -0.0312 -0.4528 -1.0764
  124OSM    H5G13214   1.712   3.708   7.014  1.2431  0.1493  2.3881
  124OSM    C6F13215   1.918   3.772   7.020  0.4915 -0.2076 -0.6346
  124OSM    H6F13216   1.935   3.839   6.932 -1.2340 -0.6038 -1.2870
  124OSM    H6G13217   2.017   3.725   7.037 -0.1682 -1.5513 -0.5185
  124OSM    C7F13218   1.889   3.860   7.142  0.4755  0.6146 -0.1056
  124OSM    H7F13219   1.784   3.892   7.124  0.8681  1.1531 -1.5023
  124OSM    H7G13220   1.956   3.948   7.152 -0.1872  1.2528 -1.1583
  124OSM    C8F13221   1.882   3.773   7.271 -0.3152 -0.1011 -0.0435
  124OSM    H8F13222   1.977   3.717   7.287  0.3941  1.0298 -0.2892
  124OSM    H8G13223   1.803   3.695   7.264 -1.4395  1.2120 -2.5839
  124OSM    C9F13224   1.836   3.847   7.395  0.6629 -0.9896 -0.4899
  124OSM    H9F13225   1.761   3.925   7.376  1.6150 -0.2222 -1.1305
  124OSM   C10F13226   1.883   3.839   7.524 -0.4388 -0.1087  0.0414
  124OSM   H10F13227   1.839   3.911   7.594 -0.9443  0.6837 -1.0844
  124OSM   C11F13228   2.002   3.743   7.571  0.7710 -0.6799 -0.2054
  124OSM   H11F13229   2.096   3.802   7.565 -1.1198  2.3685 -0.8029
  124OSM   H11G13230   2.001   3.652   7.506 -0.2549 -0.7046 -0.1488
  124OSM   C12F13231   1.981   3.704   7.718 -0.2912  0.0310 -0.1315
  124OSM   H12F13232   1.966   3.791   7.785  2.9822  0.3559  0.2589
  124OSM   H12G13233   2.067   3.645   7.756 -0.8168 -0.3543  0.4740
  124OSM   C13F13234   1.854   3.630   7.746  0.1061 -0.2482  0.5435
  124OSM   H13F13235   1.824   3.567   7.659  1.0079 -0.3669  0.3063
  124OSM   H13G13236   1.775   3.708   7.741 -0.3399 -0.7972 -1.6966
  124OSM   C14F13237   1.864   3.537   7.874 -0.0649  0.4994  0.1758
  124OSM   H14F13238   1.935   3.456   7.849  0.8180  0.7666  1.7946
  124OSM   H14G13239   1.762   3.494   7.889  0.2645 -0.7128 -0.9477
  124OSM   C15F13240   1.892   3.617   7.997  0.5267 -0.4740 -0.5186
  124OSM   H15F13241   1.828   3.707   8.012  0.5252 -0.8245  1.7083
  124OSM   H15G13242   1.998   3.649   7.997  0.3950  0.0056 -1.8690
  124OSM   C16F13243   1.860   3.534   8.125 -0.1652 -0.1717  0.5135
  124OSM   H16F13244   1.759   3.492   8.110 -0.0968 -0.0097 -0.3924
  124OSM   H16G13245   1.866   3.607   8.208 -3.4485  1.5578 -0.6816
  124OSM   C17F13246   1.943   3.403   8.152 -0.5420 -0.0757  0.0839
  124OSM   H17F13247   1.930   3.345   8.058 -1.5209 -0.9615  0.7500
  124OSM   H17G13248   1.889   3.356   8.237 -1.8412  0.6119 -0.3412
  124OSM   C18F13249   2.090   3.421   8.182 -0.4436  0.2663 -0.9137
  124OSM   H18F13250   2.145   3.431   8.086  0.8725  0.8737 -0.1058
  124OSM   H18G13251   2.133   3.334   8.236  2.9702  2.2801 -0.2825
  124OSM   H18H13252   2.111   3.510   8.244 -0.1679  0.7212 -1.6547
  125OSM      N13253   5.501   1.417   6.211  0.0987 -0.1934 -1.1359
  125OSM    C1513254   5.582   1.487   6.309 -0.4570  0.5741 -0.4336
  125OSM   H15A13255   5.632   1.571   6.262  0.5299 -0.1448 -0.6868
  125OSM   H15B13256   5.653   1.417   6.349  0.5968  1.8578 -0.0176
  125OSM   H15C13257   5.514   1.512   6.390  1.6565 -1.9424  2.2231
  125OSM    C1413258   5.586   1.384   6.102 -0.4537  0.2956  0.5726
  125OSM   H14A13259   5.641   1.293   6.123  0.3136  1.3136  3.1531
  125OSM   H14B13260   5.662   1.459   6.082 -1.6063  0.9695 -1.4560
  125OSM   H14C13261   5.537   1.374   6.006 -1.6360 -0.0855  1.2229
  125OSM    C1313262   5.439   1.297   6.280 -0.2783 -0.5989 -0.6536
  125OSM   H13A13263   5.513   1.248   6.342  1.0783 -0.1995 -1.9146
  125OSM   H13B13264   5.400   1.219   6.217 -2.5904 -1.3481  1.6042
  125OSM   H13C13265   5.358   1.327   6.344  0.7577  0.3842  0.2330
  125OSM    C1213266   5.386   1.507   6.172 -0.1885  0.3185  0.1243
  125OSM   H12A13267   5.322   1.458   6.100 -0.6634  0.8855  0.1544
  125OSM   H12B13268   5.428   1.591   6.120 -1.2987 -0.4568 -2.0511
  125OSM    C1113269   5.282   1.552   6.280  0.3703  0.2823 -0.0164
  125OSM   H11A13270   5.243   1.645   6.233 -0.0990 -0.9794 -2.1765
  125OSM   H11B13271   5.333   1.590   6.371 -1.5167 -2.6937  2.3668
  125OSM      P13272   5.027   1.480   6.291 -0.1609 -0.2829  0.2754
  125OSM    O1313273   4.996   1.518   6.155  0.7694 -0.2250  0.1860
  125OSM    O1413274   4.973   1.352   6.332  0.0910 -0.1572  0.0550
  125OSM    O1113275   4.971   1.591   6.390 -0.2575 -0.0162 -0.5847
  125OSM    O1213276   5.179   1.461   6.314 -0.4672 -0.3957  0.0704
  125OSM    C1S13277   4.953   1.564   6.533  0.3296 -0.1029 -0.7998
  125OSM    H1S13278   5.046   1.519   6.575  0.3628 -0.8353 -1.6395
  125OSM    H1T13279   4.865   1.499   6.553  0.8816 -0.1239  1.6644
  125OSM     NF13280   4.943   1.637   6.760  0.3379 -0.3921 -0.1602
  125OSM    HNF13281   4.857   1.619   6.807 -1.7272  4.8040 -1.6039
  125OSM    C2S13282   4.928   1.688   6.624  0.5462 -0.0486 -1.0285
  125OSM    H2S13283   4.995   1.775   6.612  0.3871  0.0874 -0.9269
  125OSM    C3S13284   4.782   1.748   6.592 -0.1198 -0.1142  0.7263
  125OSM    H3S13285   4.705   1.681   6.636  0.2747 -1.0537 -0.0033
  125OSM     O313286   4.765   1.752   6.444 -0.5076  0.1096  0.1920
  125OSM    HO313287   4.837   1.700   6.408  0.2359  0.6877  0.8294
  125OSM    C4S13288   4.762   1.875   6.658 -0.5230 -1.0814 -0.3563
  125OSM    H4S13289   4.751   1.854   6.766  1.9520 -0.8075 -0.0114
  125OSM    C5S13290   4.798   2.003   6.628 -0.4629 -0.7442  0.2353
  125OSM    H5S13291   4.853   2.020   6.534  0.0667 -1.0545  0.4908
  125OSM    C6S13292   4.769   2.123   6.712 -0.2079 -0.4343  1.0069
  125OSM    H6S13293   4.714   2.193   6.645  0.4873 -2.1590 -1.4345
  125OSM    H6T13294   4.866   2.169   6.742  1.1696 -2.1437 -0.7400
  125OSM    C7S13295   4.666   2.096   6.827 -0.4881 -0.1555  0.1414
  125OSM    H7S13296   4.708   2.023   6.899 -0.9338 -0.7953 -0.2345
  125OSM    H7T13297   4.572   2.057   6.783 -1.3020 -0.6731  2.2790
  125OSM    C8S13298   4.621   2.223   6.890  0.6818  0.3170  0.6543
  125OSM    H8S13299   4.522   2.209   6.938 -0.7327  2.0314 -1.6513
  125OSM    H8T13300   4.595   2.299   6.814  0.4846 -1.5592 -1.1913
  125OSM    C9S13301   4.712   2.280   7.008 -0.7352  0.4180 -0.2829
  125OSM    H9S13302   4.699   2.390   7.018 -0.5628  0.2480  1.9551
  125OSM    H9T13303   4.820   2.276   6.978 -0.6259 -2.8668  0.4446
  125OSM   C10S13304   4.693   2.206   7.134  0.9667  0.2812 -0.0940
  125OSM   H10S13305   4.733   2.104   7.118  0.6076  0.3896 -1.7668
  125OSM   H10T13306   4.587   2.182   7.154  0.3441  0.8317 -2.5736
  125OSM   C11S13307   4.756   2.270   7.260 -0.1333 -0.3917  0.4464
  125OSM   H11S13308   4.710   2.370   7.270 -0.0324 -0.4448  1.4742
  125OSM   H11T13309   4.865   2.283   7.244 -0.0624 -1.7854 -0.2935
  125OSM   C12S13310   4.716   2.197   7.388  0.2484 -0.0501  0.8132
  125OSM   H12S13311   4.761   2.096   7.395  2.2591  0.7211 -0.4481
  125OSM   H12T13312   4.607   2.182   7.395  0.6680 -3.0439  1.3312
  125OSM   C13S13313   4.763   2.280   7.506  1.0603 -0.0176  0.6299
  125OSM   H13S13314   4.714   2.380   7.498 -0.7592 -1.0038 -1.0756
  125OSM   H13T13315   4.873   2.273   7.499  0.9302 -1.2322 -0.4040
  125OSM   C14S13316   4.701   2.220   7.640  0.4226  0.4964 -0.4325
  125OSM   H14S13317   4.728   2.113   7.631  0.0770  0.2514  1.2867
  125OSM   H14T13318   4.590   2.228   7.641  0.2400 -1.8851  1.2010
  125OSM   C15S13319   4.759   2.279   7.759  0.0937 -0.1782 -0.4198
  125OSM   H15S13320   4.732   2.386   7.770  3.5525  0.6604  0.2857
  125OSM   H15T13321   4.867   2.268   7.736 -0.5202 -2.0260 -2.7372
  125OSM   C16S13322   4.714   2.211   7.890  0.5373  0.2173 -0.5674
  125OSM   H16S13323   4.752   2.108   7.877  2.5754  1.0073 -1.0901
  125OSM   H16T13324   4.604   2.221   7.898  0.6750  0.1659  1.7525
  125OSM   C17S13325   4.790   2.278   8.010 -0.5966 -0.3673  1.3132
  125OSM   H17S13326   4.760   2.385   8.017  0.8335  0.0599  1.1707
  125OSM   H17T13327   4.899   2.265   7.991 -0.7381 -2.0913  1.5607
  125OSM   C18S13328   4.766   2.201   8.143  0.3017  0.0644  0.8094
  125OSM   H18S13329   4.669   2.211   8.195 -0.0914  3.3805 -0.4082
  125OSM   H18T13330   4.839   2.253   8.209  1.0031 -0.5924  0.5532
  125OSM   H18U13331   4.788   2.093   8.130 -1.8536 -0.1079 -1.7873
  125OSM    C1F13332   5.058   1.623   6.824  0.1247 -0.0624  0.3324
  125OSM     OF13333   5.162   1.653   6.767 -0.2308  0.3501  0.1841
  125OSM    C2F13334   5.062   1.573   6.969  0.6158  0.4819  0.2345
  125OSM    H2F13335   5.007   1.477   6.979  1.2729  0.1063  0.2574
  125OSM    H2G13336   5.032   1.660   7.032 -0.3718 -0.4993  1.1567
  125OSM    C3F13337   5.208   1.539   7.013 -0.0778 -0.3523  0.3765
  125OSM    H3F13338   5.280   1.623   7.018  2.0402 -1.9864 -1.5842
  125OSM    H3G13339   5.256   1.461   6.950 -1.1822  0.4803 -1.5233
  125OSM    C4F13340   5.203   1.462   7.151  0.2343  0.8545  0.8953
  125OSM    H4F13341   5.300   1.406   7.157  0.3465  0.9171 -0.2103
  125OSM    H4G13342   5.123   1.385   7.146  1.5446 -0.5633  1.2094
  125OSM    C5F13343   5.174   1.558   7.270 -0.1441  0.3365  0.1548
  125OSM    H5F13344   5.079   1.616   7.263 -0.1388  0.3084 -0.1323
  125OSM    H5G13345   5.264   1.622   7.268  0.9940 -1.1629  1.7098
  125OSM    C6F13346   5.172   1.477   7.397 -0.3829 -0.5962 -0.1869
  125OSM    H6F13347   5.255   1.403   7.398 -1.6927 -2.1001 -0.3637
  125OSM    H6G13348   5.074   1.430   7.418  0.8121 -2.0675  2.3521
  125OSM    C7F13349   5.206   1.562   7.520 -0.3869  0.3120  0.5183
  125OSM    H7F13350   5.136   1.648   7.523 -1.4919 -0.5180 -0.9136
  125OSM    H7G13351   5.312   1.593   7.503 -0.2905 -0.3555 -0.1338
  125OSM    C8F13352   5.210   1.477   7.651 -0.0316 -0.3428 -0.6330
  125OSM    H8F13353   5.314   1.481   7.692 -0.1761 -0.3750 -0.2598
  125OSM    H8G13354   5.197   1.369   7.626 -0.4900 -0.3126 -0.5242
  125OSM    C9F13355   5.107   1.509   7.755 -0.5425  0.0282  0.8605
  125OSM    H9F13356   5.004   1.526   7.719  0.2508 -0.7108 -1.9019
  125OSM   C10F13357   5.117   1.512   7.887 -0.2225  0.5019 -0.7167
  125OSM   H10F13358   5.027   1.531   7.946 -0.7266 -0.2099 -1.2553
  125OSM   C11F13359   5.237   1.497   7.982  0.3992 -0.2276 -0.1805
  125OSM   H11F13360   5.326   1.473   7.920 -0.5018 -3.2267 -0.4055
  125OSM   H11G13361   5.217   1.404   8.039 -0.4733 -1.3678 -2.3324
  125OSM   C12F13362   5.261   1.618   8.070 -0.0194 -0.0799  0.6524
  125OSM   H12F13363   5.170   1.680   8.082 -1.5157 -1.5823 -2.1648
  125OSM   H12G13364   5.333   1.683   8.015  1.0596 -0.7868  1.2107
  125OSM   C13F13365   5.316   1.579   8.207  0.2881 -0.6928  0.4519
  125OSM   H13F13366   5.396   1.506   8.183  1.3862  0.8858 -0.7668
  125OSM   H13G13367   5.242   1.530   8.274  1.1616 -1.8169  0.6055
  125OSM   C14F13368   5.383   1.691   8.281  0.1772 -0.2653  0.6912
  125OSM   H14F13369   5.418   1.652   8.379 -0.3057 -0.0156  0.9662
  125OSM   H14G13370   5.301   1.759   8.315 -1.3518 -2.6789  2.0032
  125OSM   C15F13371   5.500   1.769   8.218  0.0066  0.0036  0.2734
  125OSM   H15F13372   5.464   1.820   8.126 -0.7631  0.3272  0.7544
  125OSM   H15G13373   5.572   1.689   8.189  1.0132  1.4513 -1.3786
  125OSM   C16F13374   5.553   1.863   8.330 -0.0527 -0.1878 -0.5716
  125OSM   H16F13375   5.465   1.906   8.383  2.1030  2.1784  1.2656
  125OSM   H16G13376   5.610   1.953   8.298  0.3650 -0.3476 -0.2900
  125OSM   C17F13377   5.646   1.792   8.431  0.2542 -0.2965 -0.2906
  125OSM   H17F13378   5.722   1.736   8.373  0.8529  0.0861  0.1217
  125OSM   H17G13379   5.590   1.707   8.475  2.8337 -1.4431  0.8897
  125OSM   C18F13380   5.715   1.878   8.543 -0.2243 -0.0906 -0.8591
  125OSM   H18F13381   5.648   1.965   8.555 -0.5657 -0.3827 -0.6260
  125OSM   H18G13382   5.813   1.909   8.501  1.2202  1.4867  3.3808
  125OSM   H18H13383   5.733   1.832   8.643  2.5886  1.6504 -0.5143
  126OSM      N13384   2.394   5.995   6.349  0.2805 -0.9843 -0.1600
  126OSM    C1513385   2.266   5.979   6.276  0.9005 -0.3894  0.8338
  126OSM   H15A13386   2.266   5.914   6.189  0.1859  1.5366 -0.6415
  126OSM   H15B13387   2.223   6.075   6.253  0.6848 -0.7385 -0.2956
  126OSM   H15C13388   2.209   5.926   6.350  0.7433  0.7293  1.5193
  126OSM    C1413389   2.446   5.856   6.380  0.9788 -0.0931 -0.3927
  126OSM   H14A13390   2.514   5.811   6.309  3.1011 -0.3354  1.7093
  126OSM   H14B13391   2.367   5.787   6.406  0.5711  0.5741  0.1444
  126OSM   H14C13392   2.514   5.863   6.464  0.6242  0.7226 -0.1725
  126OSM    C1313393   2.490   6.056   6.260  0.6856 -0.0109 -0.5602
  126OSM   H13A13394   2.579   6.099   6.304  0.0603  1.0200 -0.2748
  126OSM   H13B13395   2.450   6.140   6.204  2.0388 -0.2302 -1.8862
  126OSM   H13C13396   2.516   5.988   6.180 -0.2839  0.1244 -0.9980
  126OSM    C1213397   2.373   6.083   6.468  0.6029 -0.0837  0.5822
  126OSM   H12A13398   2.344   6.182   6.434 -0.0657 -0.1621  0.9017
  126OSM   H12B13399   2.470   6.104   6.511  0.1114 -1.5855  2.5032
  126OSM    C1113400   2.271   6.023   6.580 -0.2418 -0.4438  0.1395
  126OSM   H11A13401   2.296   6.082   6.671 -1.7992 -1.8251  1.4924
  126OSM   H11B13402   2.301   5.918   6.597 -0.3578 -0.7852 -1.7105
  126OSM      P13403   2.051   6.155   6.567  0.2179 -0.0380 -0.4574
  126OSM    O1313404   2.123   6.268   6.503  0.5138 -0.4364 -0.4638
  126OSM    O1413405   1.914   6.126   6.527 -0.8226 -0.2464  0.1366
  126OSM    O1113406   2.062   6.171   6.721  0.3716 -0.0679  0.4603
  126OSM    O1213407   2.137   6.028   6.538 -0.0540  0.5004  0.4316
  126OSM    C1S13408   1.993   6.082   6.812 -0.0553 -0.1331  0.4980
  126OSM    H1S13409   2.037   5.981   6.805 -0.6436 -0.2481 -2.1482
  126OSM    H1T13410   1.887   6.067   6.783  1.0906 -2.9458 -2.5351
  126OSM     NF13411   1.930   6.032   7.051  0.3134 -0.4022 -0.1284
  126OSM    HNF13412   1.839   6.043   7.089  0.1997  2.9065 -1.2102
  126OSM    C2S13413   1.988   6.136   6.963 -0.0175  0.3263 -0.1904
  126OSM    H2S13414   2.092   6.147   6.999 -0.6496 -0.5149  1.9936
  126OSM    C3S13415   1.916   6.272   6.973  0.0752 -0.1314 -0.1164
  126OSM    H3S13416   1.811   6.250   6.946  0.0240 -1.1866  0.9480
  126OSM     O313417   1.955   6.367   6.878  0.6965 -0.1137  0.2911
  126OSM    HO313418   2.006   6.314   6.816 -2.5719 -2.2157 -0.7480
  126OSM    C4S13419   1.927   6.318   7.117  0.2260 -0.6191 -0.1187
  126OSM    H4S13420   2.028   6.305   7.159  0.4943 -1.1121 -0.9145
  126OSM    C5S13421   1.825   6.364   7.194 -0.3922 -0.8972 -0.1903
  126OSM    H5S13422   1.725   6.379   7.150 -0.5580  0.9460  0.7482
  126OSM    C6S13423   1.839   6.419   7.332 -0.0345  0.1515 -0.5110
  126OSM    H6S13424   1.748   6.481   7.346  0.1487  0.3751 -0.2991
  126OSM    H6T13425   1.929   6.481   7.355 -1.1003  1.2035  0.9044
  126OSM    C7S13426   1.842   6.312   7.447 -0.4047  0.3319  1.0519
  126OSM    H7S13427   1.913   6.230   7.422 -1.9932  0.0741 -2.9486
  126OSM    H7T13428   1.749   6.252   7.457  2.4542 -4.5066  0.2029
  126OSM    C8S13429   1.874   6.378   7.577  0.1995  0.1113 -0.4024
  126OSM    H8S13430   1.795   6.450   7.606  2.5945  2.2027  1.1522
  126OSM    H8T13431   1.960   6.447   7.568  0.5354 -0.4393 -1.4211
  126OSM    C9S13432   1.902   6.286   7.697  0.4844  0.7933  0.1018
  126OSM    H9S13433   2.000   6.235   7.691  0.8168  1.2794  1.3911
  126OSM    H9T13434   1.829   6.202   7.690 -0.0753  1.3966 -1.8848
  126OSM   C10S13435   1.881   6.345   7.834 -0.1841  0.3216  0.2591
  126OSM   H10S13436   1.774   6.358   7.862 -1.1846  0.0784 -3.2100
  126OSM   H10T13437   1.933   6.443   7.836 -1.2436  0.9236 -0.6899
  126OSM   C11S13438   1.950   6.254   7.936 -0.0641  0.5157 -0.4687
  126OSM   H11S13439   2.050   6.219   7.902 -0.6846 -1.6015 -0.1835
  126OSM   H11T13440   1.890   6.162   7.950 -1.0368  0.5131 -3.9664
  126OSM   C12S13441   1.952   6.335   8.063  0.5258  0.2345  0.8050
  126OSM   H12S13442   1.845   6.361   8.076  0.5930  1.9219 -1.6491
  126OSM   H12T13443   1.992   6.438   8.052 -0.4050  0.2690 -2.7654
  126OSM   C13S13444   2.008   6.252   8.181 -0.2986  0.3454  1.1300
  126OSM   H13S13445   1.935   6.170   8.191 -0.9307  0.9615  1.6022
  126OSM   H13T13446   2.007   6.317   8.271 -0.2491  0.0152  1.3646
  126OSM   C14S13447   2.146   6.192   8.163  0.0386  0.7738 -0.7746
  126OSM   H14S13448   2.215   6.264   8.114  0.7019  0.1238 -0.8115
  126OSM   H14T13449   2.139   6.097   8.104  1.7310 -0.1684  0.4984
  126OSM   C15S13450   2.219   6.163   8.292 -0.7103 -0.1545 -0.7812
  126OSM   H15S13451   2.161   6.088   8.348  1.6099 -1.4672 -0.0642
  126OSM   H15T13452   2.203   6.252   8.356 -0.5029  0.2878 -1.3348
  126OSM   C16S13453   2.370   6.129   8.277  0.2492  0.1754 -0.3062
  126OSM   H16S13454   2.418   6.222   8.240 -0.3611  0.6442  0.0668
  126OSM   H16T13455   2.377   6.045   8.204 -0.6868 -0.4403  0.2829
  126OSM   C17S13456   2.439   6.079   8.404  0.5753 -0.0911 -0.1449
  126OSM   H17S13457   2.544   6.053   8.380  0.6685 -0.4688  0.6478
  126OSM   H17T13458   2.381   5.991   8.440 -1.4751  0.8800 -0.9988
  126OSM   C18S13459   2.436   6.179   8.521 -0.2060 -0.2071  0.1714
  126OSM   H18S13460   2.333   6.202   8.553 -0.8920 -2.7073 -0.0711
  126OSM   H18T13461   2.491   6.273   8.499 -0.0511 -0.5474 -0.9485
  126OSM   H18U13462   2.475   6.134   8.615  0.7549  0.2031 -0.0268
  126OSM    C1F13463   1.995   5.912   7.060 -0.1221 -0.4114  0.0820
  126OSM     OF13464   2.112   5.909   7.025 -1.2667 -0.7516  0.6504
  126OSM    C2F13465   1.924   5.796   7.109  0.4631  0.0201 -0.4926
  126OSM    H2F13466   1.983   5.715   7.060 -0.7623 -2.1948  1.5879
  126OSM    H2G13467   1.820   5.792   7.069 -1.0384 -0.1414  3.3046
  126OSM    C3F13468   1.921   5.784   7.264 -0.7645  0.3108  0.1951
  126OSM    H3F13469   2.019   5.785   7.316 -1.5395  1.1767  1.6708
  126OSM    H3G13470   1.880   5.682   7.283  0.9429 -0.3490  0.4394
  126OSM    C4F13471   1.826   5.885   7.344 -0.3263  0.3543  0.0220
  126OSM    H4F13472   1.726   5.901   7.300  0.5137  1.1723 -1.6418
  126OSM    H4G13473   1.883   5.980   7.342  2.0288 -0.9916  0.4728
  126OSM    C5F13474   1.809   5.852   7.491 -0.0835  0.5479 -0.3342
  126OSM    H5F13475   1.773   5.747   7.493 -0.2371  0.4858 -3.5111
  126OSM    H5G13476   1.730   5.919   7.531 -0.9722 -0.5677 -0.1952
  126OSM    C6F13477   1.948   5.871   7.557  0.2508  0.0315  1.1168
  126OSM    H6F13478   1.991   5.965   7.515 -2.5943  0.8328 -0.1465
  126OSM    H6G13479   2.007   5.783   7.523 -1.9996 -0.3337 -2.1784
  126OSM    C7F13480   1.930   5.875   7.710 -0.0903  0.0087  0.0254
  126OSM    H7F13481   1.864   5.788   7.729  2.0550 -1.5098  0.7745
  126OSM    H7G13482   1.870   5.966   7.733  0.1784  0.3434 -0.5887
  126OSM    C8F13483   2.062   5.862   7.793  0.5439 -0.0416 -0.3039
  126OSM    H8F13484   2.023   5.858   7.897 -2.3553 -0.5385 -1.3489
  126OSM    H8G13485   2.142   5.937   7.774  0.9745 -0.2323  0.7140
  126OSM    C9F13486   2.133   5.725   7.767  0.1334 -0.5251 -0.4052
  126OSM    H9F13487   2.146   5.701   7.661 -0.6944 -1.0650 -0.3907
  126OSM   C10F13488   2.165   5.637   7.864 -0.2508  0.4776  0.3454
  126OSM   H10F13489   2.225   5.553   7.827  1.6258  1.3021  1.4872
  126OSM   C11F13490   2.145   5.652   8.004  0.0620 -0.3050 -0.4709
  126OSM   H11F13491   2.152   5.556   8.060  0.0777 -0.5592 -0.9078
  126OSM   H11G13492   2.043   5.689   8.029  0.9522  0.7805  1.7553
  126OSM   C12F13493   2.250   5.759   8.054  0.5725 -0.8655  0.0183
  126OSM   H12F13494   2.230   5.775   8.162  1.2863 -0.4124  0.0807
  126OSM   H12G13495   2.247   5.852   7.994 -1.6784 -1.9171 -1.5615
  126OSM   C13F13496   2.388   5.685   8.053  0.5682  0.1757  0.0030
  126OSM   H13F13497   2.436   5.723   7.961  0.1810 -0.8883 -0.6414
  126OSM   H13G13498   2.363   5.578   8.035 -0.3744  0.6688 -1.8116
  126OSM   C14F13499   2.478   5.715   8.169  0.1275 -0.5823  0.4038
  126OSM   H14F13500   2.449   5.669   8.266  0.9890  1.0464  1.4620
  126OSM   H14G13501   2.468   5.825   8.185  0.3612 -0.1452 -2.3350
  126OSM   C15F13502   2.626   5.691   8.140  0.1092 -0.4436  0.6459
  126OSM   H15F13503   2.651   5.739   8.042  1.1581  0.0724  1.1534
  126OSM   H15G13504   2.640   5.581   8.132  1.3551 -0.1710 -1.4172
  126OSM   C16F13505   2.714   5.758   8.242  0.1095 -0.0692  0.1355
  126OSM   H16F13506   2.685   5.865   8.246 -0.2429 -0.0278 -2.4524
  126OSM   H16G13507   2.819   5.771   8.207  0.5035  0.2484  1.4061
  126OSM   C17F13508   2.720   5.680   8.376 -0.4379  0.3233  0.5271
  126OSM   H17F13509   2.742   5.571   8.375 -2.6373 -0.1517  1.5035
  126OSM   H17G13510   2.616   5.669   8.413 -0.7490  1.1396 -0.1171
  126OSM   C18F13511   2.799   5.756   8.480  0.3059 -0.2640  0.1244
  126OSM   H18F13512   2.763   5.861   8.478 -0.5155 -0.5135  1.0193
  126OSM   H18G13513   2.908   5.751   8.461  0.4201 -1.4282  0.9751
  126OSM   H18H13514   2.779   5.714   8.582  1.2327  0.4606  0.6089
  127OSM      N13515   1.025   0.082   6.438 -0.7136 -0.0915  0.7066
  127OSM    C1513516   1.017   0.066   6.295 -0.3399  0.1070 -0.5256
  127OSM   H15A13517   1.011   0.163   6.248  2.6809 -1.1303 -3.7743
  127OSM   H15B13518   0.927   0.012   6.269  0.1915 -0.7712 -0.5698
  127OSM   H15C13519   1.103   0.006   6.269 -2.7467 -2.9034 -1.7473
  127OSM    C1413520   1.015  -0.067   6.485 -1.0599 -0.2907  0.4010
  127OSM   H14A13521   1.016  -0.078   6.593  1.6927  0.5038  0.4801
  127OSM   H14B13522   1.102  -0.113   6.442 -2.0615 -0.4975 -1.4566
  127OSM   H14C13523   0.924  -0.112   6.448 -0.8664 -1.3973  1.2387
  127OSM    C1313524   1.154   0.149   6.485 -0.1026  0.1688 -0.1452
  127OSM   H13A13525   1.237   0.101   6.436 -0.2690 -0.4988  0.2234
  127OSM   H13B13526   1.167   0.153   6.592 -1.3387  0.2552  0.0121
  127OSM   H13C13527   1.166   0.252   6.454  0.4488  0.4254  0.9002
  127OSM    C1213528   0.905   0.167   6.484 -0.1601 -0.4481 -0.1735
  127OSM   H12A13529   0.891   0.146   6.589  2.7455 -1.8175 -0.0110
  127OSM   H12B13530   0.809   0.140   6.445  0.0109 -0.3219 -0.6837
  127OSM    C1113531   0.922   0.317   6.471  0.1066 -0.4149 -0.3179
  127OSM   H11A13532   1.006   0.357   6.532 -2.1418  1.6896  1.4815
  127OSM   H11B13533   0.852   0.378   6.531  3.7388  2.1391  1.5466
  127OSM      P13534   0.837   0.442   6.258  0.3449  0.0048  0.0158
  127OSM    O1313535   0.887   0.580   6.240  0.4755  0.7414  0.4744
  127OSM    O1413536   0.783   0.368   6.149  0.2019  0.4725  0.6000
  127OSM    O1113537   0.719   0.456   6.357  0.0762  0.2294  0.2812
  127OSM    O1213538   0.941   0.357   6.339 -0.2694 -0.0938 -0.0626
  127OSM    C1S13539   0.594   0.517   6.313 -0.7022 -0.4252  0.5879
  127OSM    H1S13540   0.534   0.441   6.259  0.6661 -2.1874  1.4995
  127OSM    H1T13541   0.605   0.598   6.238 -2.9897  0.2469  0.9542
  127OSM     NF13542   0.388   0.629   6.379 -0.2657  0.3749  0.4048
  127OSM    HNF13543   0.387   0.729   6.380 -3.7489  0.3970 -1.4441
  127OSM    C2S13544   0.509   0.567   6.432 -0.6782 -0.3065  0.0017
  127OSM    H2S13545   0.479   0.472   6.482  2.5744  0.1838  3.0515
  127OSM    C3S13546   0.589   0.657   6.534  0.0638 -0.0783  0.1844
  127OSM    H3S13547   0.594   0.759   6.488  2.0830  0.3788  1.3722
  127OSM     O313548   0.719   0.621   6.547  0.1107 -0.7862  0.4903
  127OSM    HO313549   0.736   0.551   6.484  0.6570  0.5890 -0.9212
  127OSM    C4S13550   0.540   0.662   6.679 -0.3765 -0.2509 -0.8246
  127OSM    H4S13551   0.558   0.563   6.722  0.1256  0.6637  1.1232
  127OSM    C5S13552   0.478   0.758   6.744 -0.9913  0.1434 -0.5006
  127OSM    H5S13553   0.450   0.852   6.693 -0.9465 -0.3510 -1.4407
  127OSM    C6S13554   0.431   0.745   6.886 -0.8296  0.0822  0.3656
  127OSM    H6S13555   0.416   0.639   6.915 -0.0442 -0.2784 -0.5280
  127OSM    H6T13556   0.342   0.809   6.903 -0.5859  0.4342  0.3278
  127OSM    C7S13557   0.540   0.804   6.991  0.7221  0.1166  0.8683
  127OSM    H7S13558   0.581   0.894   6.940  0.5495 -0.3647 -0.1505
  127OSM    H7T13559   0.627   0.735   6.992  0.3265 -0.4348 -0.6350
  127OSM    C8S13560   0.479   0.829   7.125 -0.1050  0.5479  0.2127
  127OSM    H8S13561   0.389   0.893   7.112  0.9908  2.0724  0.0493
  127OSM    H8T13562   0.558   0.877   7.186  0.4604  0.7972 -0.7126
  127OSM    C9S13563   0.445   0.696   7.193 -0.0951  0.7074 -0.1479
  127OSM    H9S13564   0.533   0.630   7.180 -0.2173  0.8286 -1.6613
  127OSM    H9T13565   0.370   0.648   7.127  0.2360 -0.2990  0.2060
  127OSM   C10S13566   0.392   0.702   7.333 -0.1148 -0.1788 -0.0534
  127OSM   H10S13567   0.482   0.728   7.393 -0.5894  2.8217 -0.5489
  127OSM   H10T13568   0.364   0.596   7.352 -2.2498  0.4617  0.5170
  127OSM   C11S13569   0.272   0.792   7.350  0.6078 -0.7223  0.3930
  127OSM   H11S13570   0.185   0.738   7.308  0.6703 -1.0718  0.7121
  127OSM   H11T13571   0.290   0.887   7.296  0.3454 -0.7807  0.2029
  127OSM   C12S13572   0.247   0.828   7.503 -0.0127  0.3235 -0.0848
  127OSM   H12S13573   0.160   0.897   7.503  0.0885  0.4961 -1.9131
  127OSM   H12T13574   0.337   0.888   7.529  1.9335 -1.7911 -1.7726
  127OSM   C13S13575   0.230   0.714   7.611 -0.6171  0.6997  0.4946
  127OSM   H13S13576   0.299   0.631   7.584  0.2902  0.4365  3.4513
  127OSM   H13T13577   0.124   0.692   7.587 -0.9428  2.7488 -0.0608
  127OSM   C14S13578   0.251   0.747   7.757 -1.0852 -0.1251  0.0341
  127OSM   H14S13579   0.259   0.653   7.816 -0.8404  1.6154  2.8429
  127OSM   H14T13580   0.156   0.792   7.791 -0.6581  1.6754 -1.1085
  127OSM   C15S13581   0.370   0.839   7.793  0.0141 -0.6667  0.3047
  127OSM   H15S13582   0.337   0.938   7.753  0.2445 -0.0865  1.5300
  127OSM   H15T13583   0.471   0.814   7.754  0.0145 -1.6024  0.9022
  127OSM   C16S13584   0.394   0.858   7.952 -0.0450  0.0652  0.1516
  127OSM   H16S13585   0.442   0.770   8.000  0.7753 -0.2713 -1.2814
  127OSM   H16T13586   0.297   0.873   8.005 -1.3282 -1.4381 -1.7412
  127OSM   C17S13587   0.490   0.977   7.974 -1.3071 -0.0684  0.3035
  127OSM   H17S13588   0.480   1.017   8.077 -1.2400  2.9595 -0.8337
  127OSM   H17T13589   0.461   1.055   7.901 -0.8267  2.8807  3.1379
  127OSM   C18S13590   0.640   0.925   7.949  1.0193 -0.4423  0.8098
  127OSM   H18S13591   0.713   1.004   7.974  0.8362  0.4083 -1.2272
  127OSM   H18T13592   0.659   0.907   7.841 -2.5273  0.5775 -0.0488
  127OSM   H18U13593   0.653   0.826   7.999  0.0272  0.3237  2.6341
  127OSM    C1F13594   0.294   0.574   6.303  0.0308 -0.1417  0.4034
  127OSM     OF13595   0.298   0.455   6.286  0.2867  0.4577 -0.0693
  127OSM    C2F13596   0.189   0.661   6.233 -0.1010  0.3805  0.4912
  127OSM    H2F13597   0.251   0.702   6.150 -0.5335 -1.5782 -0.8217
  127OSM    H2G13598   0.158   0.748   6.295  0.7042  0.5434  0.6785
  127OSM    C3F13599   0.081   0.571   6.168  0.4180  0.0546 -0.4799
  127OSM    H3F13600   0.059   0.479   6.225  1.3146 -1.2154 -2.1404
  127OSM    H3G13601   0.121   0.535   6.071  3.0489  0.3726  0.4502
  127OSM    C4F13602  -0.046   0.646   6.139 -0.4401  0.0092 -0.5332
  127OSM    H4F13603  -0.112   0.572   6.090 -1.5943 -0.4590  1.6572
  127OSM    H4G13604  -0.028   0.733   6.073  2.0693  1.8646  2.4208
  127OSM    C5F13605  -0.127   0.697   6.260  0.3686  0.2660  0.1989
  127OSM    H5F13606  -0.220   0.754   6.241 -2.2983 -3.7448  0.4645
  127OSM    H5G13607  -0.064   0.773   6.311  0.5991 -0.8361  1.5882
  127OSM    C6F13608  -0.176   0.591   6.358 -0.2018  0.3010 -0.3261
  127OSM    H6F13609  -0.089   0.538   6.402 -0.8220 -0.3286  0.1460
  127OSM    H6G13610  -0.234   0.517   6.299 -0.6878  0.9663 -0.6876
  127OSM    C7F13611  -0.254   0.664   6.463  0.3621  0.1913  0.0897
  127OSM    H7F13612  -0.361   0.639   6.480  0.1997 -0.1844 -1.4941
  127OSM    H7G13613  -0.266   0.774   6.450 -3.2844 -0.1762 -0.1131
  127OSM    C8F13614  -0.179   0.680   6.597 -0.4603 -0.3947  0.5926
  127OSM    H8F13615  -0.157   0.577   6.632 -1.4904 -1.6851 -2.3385
  127OSM    H8G13616  -0.248   0.727   6.670 -2.1697  0.5864 -1.5945
  127OSM    C9F13617  -0.050   0.756   6.594 -0.3368 -0.3639  0.3440
  127OSM    H9F13618  -0.043   0.844   6.527  1.5957 -1.2037 -0.6057
  127OSM   C10F13619   0.068   0.731   6.660  0.0290  0.5772 -0.4708
  127OSM   H10F13620   0.148   0.807   6.659  1.0226 -0.4313  0.7277
  127OSM   C11F13621   0.110   0.617   6.748 -0.0560  1.3343 -0.4433
  127OSM   H11F13622   0.217   0.591   6.734 -0.4549 -0.2842 -0.5047
  127OSM   H11G13623   0.062   0.525   6.710  0.7276  2.2712 -3.8830
  127OSM   C12F13624   0.074   0.646   6.891 -0.0918 -0.7878 -0.1232
  127OSM   H12F13625  -0.036   0.651   6.908 -0.1619 -2.1601 -0.1258
  127OSM   H12G13626   0.142   0.723   6.934  1.4621 -2.9657  1.4299
  127OSM   C13F13627   0.118   0.522   6.982  0.2021 -0.3403  0.9356
  127OSM   H13F13628   0.226   0.533   7.005  0.9426 -0.1885 -2.3804
  127OSM   H13G13629   0.101   0.431   6.921  1.3467  0.2534 -0.2905
  127OSM   C14F13630   0.047   0.527   7.111  0.4865 -0.6102 -0.0444
  127OSM   H14F13631  -0.057   0.494   7.093  1.3365 -3.1953 -0.3600
  127OSM   H14G13632   0.048   0.635   7.140 -1.2433 -0.1656 -1.5500
  127OSM   C15F13633   0.112   0.443   7.217  0.4088 -0.6788 -0.3499
  127OSM   H15F13634   0.210   0.482   7.250  0.5077 -2.0018  0.9871
  127OSM   H15G13635   0.152   0.351   7.169 -1.4133 -0.1862 -2.9188
  127OSM   C16F13636   0.026   0.421   7.343  0.0381  0.0671  0.2425
  127OSM   H16F13637  -0.078   0.392   7.318 -0.6403 -0.0538  3.0663
  127OSM   H16G13638   0.020   0.518   7.397 -1.2506  0.2329 -0.1980
  127OSM   C17F13639   0.090   0.315   7.438 -0.1376 -0.1251 -0.1450
  127OSM   H17F13640   0.179   0.350   7.494  1.1191 -0.6294 -1.7865
  127OSM   H17G13641   0.119   0.234   7.368  1.7806  0.0678  0.3830
  127OSM   C18F13642  -0.011   0.271   7.547  0.1841 -0.5023 -0.0743
  127OSM   H18F13643   0.041   0.199   7.613  0.1178 -0.3813  0.1088
  127OSM   H18G13644  -0.095   0.215   7.502  0.7835 -0.1540 -1.6912
  127OSM   H18H13645  -0.034   0.356   7.615  0.7619 -1.1796  0.9783
  128OSM      N13646   0.790   4.285   5.909  0.1081 -0.2186  0.1660
  128OSM    C1513647   0.913   4.354   5.965 -0.6290 -0.4572  0.1658
  128OSM   H15A13648   0.894   4.418   6.050  0.4869 -0.8869  0.7487
  128OSM   H15B13649   0.976   4.404   5.893  1.2383 -1.9114  0.7245
  128OSM   H15C13650   0.972   4.274   6.009  0.1245  0.2857  0.5319
  128OSM    C1413651   0.675   4.385   5.898  0.1557 -0.4742 -0.1181
  128OSM   H14A13652   0.707   4.460   5.827  1.0976 -0.3519  0.4208
  128OSM   H14B13653   0.650   4.437   5.989  0.2366 -0.6810  0.0233
  128OSM   H14C13654   0.579   4.351   5.863  0.5423 -2.0459  0.3199
  128OSM    C1313655   0.828   4.243   5.767  0.0929  0.7690  0.6040
  128OSM   H13A13656   0.921   4.189   5.767  0.3208  1.1483  1.7981
  128OSM   H13B13657   0.843   4.327   5.700  0.3324 -0.2119 -0.5801
  128OSM   H13C13658   0.753   4.189   5.712  1.6596  0.1933 -1.0363
  128OSM    C1213659   0.751   4.165   5.986  0.5030 -0.4595  0.7608
  128OSM   H12A13660   0.822   4.083   5.983  1.3582  0.3532 -1.8956
  128OSM   H12B13661   0.664   4.126   5.937  0.9571  0.4372 -0.8030
  128OSM    C1113662   0.722   4.167   6.142 -0.3576 -0.5503 -0.3394
  128OSM   H11A13663   0.819   4.182   6.193  1.4839  0.2378 -3.9244
  128OSM   H11B13664   0.694   4.063   6.169  1.1667 -0.5875  1.2142
  128OSM      P13665   0.472   4.238   6.175 -0.2187 -0.0778  0.2504
  128OSM    O1313666   0.400   4.354   6.223  0.1939 -0.3621  0.3477
  128OSM    O1413667   0.432   4.175   6.048  0.0024 -0.7583  0.1403
  128OSM    O1113668   0.457   4.127   6.286 -0.1726  0.3007  0.2190
  128OSM    O1213669   0.624   4.266   6.177  0.0289  0.5468  0.1045
  128OSM    C1S13670   0.497   4.143   6.428 -0.8147  0.3466  0.2384
  128OSM    H1S13671   0.589   4.204   6.441 -0.1043 -0.8117  0.7266
  128OSM    H1T13672   0.527   4.045   6.471 -0.3915  0.3660 -0.0110
  128OSM     NF13673   0.437   4.231   6.643 -0.3933  0.5862  0.2864
  128OSM    HNF13674   0.404   4.169   6.713 -2.1220 -0.3288 -1.3187
  128OSM    C2S13675   0.388   4.212   6.506  0.7713 -0.2805 -0.0840
  128OSM    H2S13676   0.360   4.314   6.470 -0.9948 -0.6858  0.1189
  128OSM    C3S13677   0.251   4.118   6.509  0.2163 -0.2904  0.1824
  128OSM    H3S13678   0.275   4.021   6.558 -0.9029 -0.3143  0.6870
  128OSM     O313679   0.206   4.084   6.378  0.1414  0.7495  0.1405
  128OSM    HO313680   0.276   4.100   6.314  1.4031 -2.0632  0.7498
  128OSM    C4S13681   0.136   4.185   6.586  0.2278  0.3394 -0.0714
  128OSM    H4S13682   0.087   4.267   6.532 -3.0325 -1.4313  0.0024
  128OSM    C5S13683   0.089   4.139   6.712 -0.6133  0.3505  0.1096
  128OSM    H5S13684   0.150   4.070   6.772 -1.4282 -0.9384 -0.5278
  128OSM    C6S13685  -0.026   4.207   6.780  0.0038 -0.5971  0.2832
  128OSM    H6S13686  -0.121   4.155   6.753  1.6843 -3.4527 -0.3322
  128OSM    H6T13687  -0.042   4.310   6.741  1.3405 -0.4144  0.1930
  128OSM    C7S13688  -0.003   4.218   6.932 -0.2650 -0.0360 -0.0501
  128OSM    H7S13689   0.008   4.117   6.975 -1.2730 -0.8942 -1.7460
  128OSM    H7T13690  -0.096   4.262   6.975 -0.3096 -2.1279  2.0718
  128OSM    C8S13691   0.130   4.297   6.973  0.1367 -0.5661  0.9789
  128OSM    H8S13692   0.121   4.399   6.930 -0.8924 -0.9272  0.3329
  128OSM    H8T13693   0.214   4.243   6.925  0.0233  0.4187 -0.3674
  128OSM    C9S13694   0.152   4.314   7.120 -0.4742 -0.3655 -0.2146
  128OSM    H9S13695   0.247   4.365   7.147 -1.5272  1.7121 -0.3804
  128OSM    H9T13696   0.155   4.216   7.173 -0.3503 -0.6836 -0.8065
  128OSM   C10S13697   0.045   4.409   7.190 -0.2474 -0.4477 -0.2087
  128OSM   H10S13698  -0.058   4.367   7.194 -0.3340 -0.2141  0.0761
  128OSM   H10T13699   0.035   4.505   7.136 -1.5023 -0.6294 -0.3061
  128OSM   C11S13700   0.088   4.439   7.336 -0.7873  0.1100 -0.0551
  128OSM   H11S13701   0.193   4.473   7.330  0.4796 -3.0308  2.7702
  128OSM   H11T13702   0.095   4.341   7.387  1.4764  0.4736  0.3772
  128OSM   C12S13703  -0.008   4.540   7.401 -0.1158 -0.2515  0.1090
  128OSM   H12S13704  -0.103   4.484   7.394  0.0661 -0.5281 -0.2115
  128OSM   H12T13705  -0.012   4.632   7.339  0.5181 -1.0225 -1.1104
  128OSM   C13S13706   0.018   4.575   7.548  0.1181 -0.0915 -0.1534
  128OSM   H13S13707   0.091   4.658   7.548 -0.3026  0.2986  1.5807
  128OSM   H13T13708   0.064   4.492   7.606  1.6509  0.4960 -0.5082
  128OSM   C14S13709  -0.114   4.593   7.624  0.6180  0.4622  0.1588
  128OSM   H14S13710  -0.168   4.498   7.639  0.7032  0.5733  1.1628
  128OSM   H14T13711  -0.176   4.670   7.573 -0.2793  1.1828  2.3171
  128OSM   C15S13712  -0.097   4.659   7.762 -0.6142 -0.2794 -0.4988
  128OSM   H15S13713  -0.022   4.596   7.814 -0.1823  0.2120 -0.5200
  128OSM   H15T13714  -0.189   4.669   7.824  0.7352  1.0453  1.3374
  128OSM   C16S13715  -0.042   4.799   7.752  1.3838 -0.0294  0.0344
  128OSM   H16S13716  -0.108   4.869   7.695  0.6539 -1.4311 -0.8608
  128OSM   H16T13717   0.055   4.804   7.697  1.9884 -1.3630  0.9453
  128OSM   C17S13718  -0.014   4.851   7.893  0.5139 -0.8438 -1.0166
  128OSM   H17S13719   0.052   4.941   7.895 -0.9922  0.2548  0.7816
  128OSM   H17T13720   0.044   4.771   7.945  1.4575 -0.3271 -1.2568
  128OSM   C18S13721  -0.136   4.891   7.973  0.1525  0.8464 -0.2174
  128OSM   H18S13722  -0.195   4.958   7.907 -0.2300 -0.3224 -1.0732
  128OSM   H18T13723  -0.107   4.927   8.074 -0.9059  2.2631 -0.4136
  128OSM   H18U13724  -0.198   4.802   7.996 -1.0679  1.2426 -1.9344
  128OSM    C1F13725   0.523   4.325   6.672 -0.2311  0.2895 -0.1436
  128OSM     OF13726   0.568   4.395   6.586 -0.3345  0.0742 -0.8720
  128OSM    C2F13727   0.580   4.318   6.811 -0.1330  0.9409  0.1020
  128OSM    H2F13728   0.689   4.340   6.806  0.1976  0.5404  3.8281
  128OSM    H2G13729   0.584   4.217   6.858  0.2899  1.2220  0.6729
  128OSM    C3F13730   0.509   4.404   6.919 -0.3324  0.2148  0.0414
  128OSM    H3F13731   0.404   4.373   6.937  0.3147 -2.3245 -0.3328
  128OSM    H3G13732   0.517   4.510   6.886  1.0680 -0.7609 -2.8699
  128OSM    C4F13733   0.583   4.404   7.053 -0.4286  0.8006 -0.4281
  128OSM    H4F13734   0.691   4.379   7.050  0.1024  2.5986  2.2402
  128OSM    H4G13735   0.535   4.320   7.108  0.1549  1.3260  0.8928
  128OSM    C5F13736   0.565   4.536   7.133  0.1800  0.4522 -0.3086
  128OSM    H5F13737   0.483   4.596   7.088  0.9563  1.0831 -0.8838
  128OSM    H5G13738   0.659   4.594   7.128  0.8415 -0.5625  0.1297
  128OSM    C6F13739   0.526   4.501   7.282 -0.3835  0.4562 -0.2754
  128OSM    H6F13740   0.609   4.439   7.322  1.4678  1.3985 -2.4673
  128OSM    H6G13741   0.437   4.436   7.286  0.6726 -0.9880 -0.0285
  128OSM    C7F13742   0.513   4.620   7.369 -0.0405  0.1887 -0.0871
  128OSM    H7F13743   0.421   4.679   7.353 -0.2277  0.1521  0.8121
  128OSM    H7G13744   0.593   4.690   7.333 -0.7503  0.1178 -1.8424
  128OSM    C8F13745   0.527   4.604   7.516  0.3795  0.3764 -0.1163
  128OSM    H8F13746   0.555   4.702   7.560 -0.7315 -0.4942  2.6093
  128OSM    H8G13747   0.603   4.527   7.540 -0.6065 -0.9712 -1.1729
  128OSM    C9F13748   0.400   4.559   7.579  1.0629 -0.1879  0.3693
  128OSM    H9F13749   0.334   4.511   7.505  0.4133  0.1258  0.7449
  128OSM   C10F13750   0.354   4.586   7.698  0.5248  0.3734  0.3051
  128OSM   H10F13751   0.260   4.538   7.730  1.4550 -1.1759  0.7444
  128OSM   C11F13752   0.416   4.678   7.809  0.1774  0.2589  0.7151
  128OSM   H11F13753   0.364   4.776   7.803  1.0335  0.5872 -1.8488
  128OSM   H11G13754   0.525   4.688   7.789 -0.0341 -2.0618 -1.7653
  128OSM   C12F13755   0.406   4.636   7.955  0.4912  0.0684 -0.1780
  128OSM   H12F13756   0.450   4.535   7.969 -0.2956  0.1147  2.9607
  128OSM   H12G13757   0.296   4.640   7.969  0.6854  2.1597  0.9384
  128OSM   C13F13758   0.460   4.743   8.055 -0.1312 -0.2386 -0.0168
  128OSM   H13F13759   0.417   4.844   8.041  1.5476  0.3890 -0.8477
  128OSM   H13G13760   0.571   4.742   8.042 -0.2979  0.7392 -1.6473
  128OSM   C14F13761   0.448   4.695   8.199  0.0805  0.0354 -0.9326
  128OSM   H14F13762   0.479   4.590   8.218  1.5184  0.6283  0.0451
  128OSM   H14G13763   0.338   4.687   8.213  0.1748 -0.4346 -0.4507
  128OSM   C15F13764   0.516   4.785   8.305  0.2373 -0.0439  0.3021
  128OSM   H15F13765   0.440   4.863   8.325 -0.5151 -0.2240 -1.6702
  128OSM   H15G13766   0.607   4.831   8.261 -0.3360  1.1160  0.2971
  128OSM   C16F13767   0.544   4.711   8.437 -0.1287  0.1958  0.5925
  128OSM   H16F13768   0.601   4.617   8.421  0.7261  1.0756 -1.7012
  128OSM   H16G13769   0.452   4.672   8.485 -0.2347  0.8371  0.9241
  128OSM   C17F13770   0.619   4.804   8.535  0.2221 -0.7649 -0.6448
  128OSM   H17F13771   0.554   4.892   8.557  2.1023  0.4482  0.1380
  128OSM   H17G13772   0.716   4.832   8.489  1.5350 -1.0500  1.9036
  128OSM   C18F13773   0.644   4.718   8.665  0.0349  0.1370  0.6351
  128OSM   H18F13774   0.667   4.783   8.752 -0.4267 -0.6552  1.3523
  128OSM   H18G13775   0.725   4.643   8.653  0.1572  0.5193 -1.0758
  128OSM   H18H13776   0.553   4.658   8.686  1.1899 -2.2710 -1.0272
  129OSM      N13777   5.116   6.385   6.152 -0.0074 -0.4813 -0.1386
  129OSM    C1513778   4.977   6.417   6.200 -0.4428 -0.0068  0.6733
  129OSM   H15A13779   4.958   6.354   6.286 -0.8684 -1.6023 -0.5498
  129OSM   H15B13780   4.896   6.398   6.131 -0.0580  1.5406 -0.2214
  129OSM   H15C13781   4.983   6.523   6.219 -0.4441  0.3278 -1.0967
  129OSM    C1413782   5.122   6.454   6.018 -0.2237 -0.5425  0.8148
  129OSM   H14A13783   5.220   6.452   5.972 -1.2030  2.2680 -1.5272
  129OSM   H14B13784   5.103   6.560   6.018  1.4275 -0.2101 -1.5107
  129OSM   H14C13785   5.070   6.401   5.940  3.0566 -0.7877 -1.3122
  129OSM    C1313786   5.219   6.450   6.248 -0.1866 -0.2547  0.6472
  129OSM   H13A13787   5.221   6.558   6.248  1.1964 -0.2550  1.7516
  129OSM   H13B13788   5.318   6.418   6.220 -0.0507 -0.5917  1.4843
  129OSM   H13C13789   5.211   6.412   6.349 -0.6751  0.1369  0.7555
  129OSM    C1213790   5.136   6.238   6.132 -0.0297 -0.5351  0.3105
  129OSM   H12A13791   5.235   6.222   6.094 -0.2826 -0.1923 -0.5141
  129OSM   H12B13792   5.074   6.210   6.048  0.7952  1.6147 -1.0447
  129OSM    C1113793   5.108   6.151   6.255 -0.5815  0.3111 -0.0092
  129OSM   H11A13794   4.997   6.148   6.265 -0.9635  1.1485 -3.2843
  129OSM   H11B13795   5.153   6.179   6.352 -0.6344  0.4225 -0.0182
  129OSM      P13796   5.312   5.984   6.237 -0.2647 -0.1354  0.3487
  129OSM    O1313797   5.331   5.838   6.198 -0.3542  0.3985 -0.1766
  129OSM    O1413798   5.388   6.081   6.157 -0.5301 -0.5254  0.7178
  129OSM    O1113799   5.352   6.005   6.389  0.0867 -0.5543 -0.6182
  129OSM    O1213800   5.158   6.024   6.213 -0.0881 -0.2544 -0.3552
  129OSM    C1S13801   5.333   5.892   6.480 -0.0685  0.6874  0.3041
  129OSM    H1S13802   5.390   5.805   6.441 -1.3724  0.1039 -0.3353
  129OSM    H1T13803   5.227   5.859   6.480  0.7151 -1.9637  0.8075
  129OSM     NF13804   5.365   5.798   6.700 -0.9823  0.5203  0.4288
  129OSM    HNF13805   5.269   5.771   6.708 -1.5518  2.6700  0.9897
  129OSM    C2S13806   5.376   5.919   6.631 -0.0160  0.2856 -0.3821
  129OSM    H2S13807   5.479   5.959   6.641  0.3366 -1.0325  1.5736
  129OSM    C3S13808   5.282   6.034   6.685  0.2486 -0.0978  0.4593
  129OSM    H3S13809   5.174   6.020   6.662  0.0738  1.4613  0.2673
  129OSM     O313810   5.308   6.157   6.627  0.5397  0.5777 -0.3751
  129OSM    HO313811   5.368   6.132   6.556 -0.6567  1.2804 -1.6817
  129OSM    C4S13812   5.288   6.042   6.837 -1.0423 -0.6627 -0.0368
  129OSM    H4S13813   5.222   5.974   6.893 -1.2232  0.3354  0.9643
  129OSM    C5S13814   5.370   6.117   6.912  0.1891  0.3108  0.4063
  129OSM    H5S13815   5.450   6.174   6.864  0.6427 -2.4872 -2.3028
  129OSM    C6S13816   5.378   6.118   7.063  0.2300  0.5827 -0.8999
  129OSM    H6S13817   5.279   6.082   7.098  0.4432 -0.1821 -1.0642
  129OSM    H6T13818   5.392   6.222   7.100  0.2902  0.5220 -0.7518
  129OSM    C7S13819   5.490   6.025   7.119 -0.5465 -0.4508  0.0585
  129OSM    H7S13820   5.589   6.072   7.104 -1.1569  0.0346 -2.6135
  129OSM    H7T13821   5.491   5.934   7.056 -0.5896  0.0095 -0.6076
  129OSM    C8S13822   5.472   6.006   7.271  0.1154  0.0864  0.5092
  129OSM    H8S13823   5.551   5.940   7.312  0.5464  0.2407 -0.0583
  129OSM    H8T13824   5.378   5.950   7.291  0.8333 -1.4191 -0.1912
  129OSM    C9S13825   5.479   6.124   7.358  0.1432  0.8580  0.1664
  129OSM    H9S13826   5.381   6.177   7.351  0.8920  2.1073 -1.2927
  129OSM    H9T13827   5.559   6.194   7.324  0.5714 -0.6963 -2.1393
  129OSM   C10S13828   5.530   6.074   7.493 -0.2511  0.0875 -0.0195
  129OSM   H10S13829   5.635   6.037   7.493  0.0495  0.8829  1.7307
  129OSM   H10T13830   5.460   6.000   7.536 -0.8210  1.1738  0.9642
  129OSM   C11S13831   5.535   6.189   7.597 -0.3087  0.5635  0.5477
  129OSM   H11S13832   5.435   6.234   7.613 -1.8163 -1.9017 -1.4504
  129OSM   H11T13833   5.605   6.269   7.565  1.5236 -1.8480 -1.6658
  129OSM   C12S13834   5.596   6.147   7.731 -0.9321 -0.0176  1.0118
  129OSM   H12S13835   5.630   6.234   7.790  1.0958 -0.1759  0.1309
  129OSM   H12T13836   5.680   6.081   7.700 -1.0460  0.8316 -1.1778
  129OSM   C13S13837   5.513   6.059   7.829 -0.1657  0.0951  0.2454
  129OSM   H13S13838   5.477   5.965   7.784  0.4351 -0.1601  0.2908
  129OSM   H13T13839   5.422   6.113   7.862  0.3785  0.4100  1.2821
  129OSM   C14S13840   5.592   6.028   7.953 -0.6087 -0.0954  0.2971
  129OSM   H14S13841   5.631   6.117   8.007  1.2163  0.2355 -1.5230
  129OSM   H14T13842   5.666   5.952   7.922 -2.2799 -2.5873  2.2270
  129OSM   C15S13843   5.498   5.964   8.051  0.0649  0.7444 -0.0856
  129OSM   H15S13844   5.452   5.877   8.000  0.6503  1.5799 -2.0991
  129OSM   H15T13845   5.422   6.033   8.093 -0.6099 -1.1323  1.8582
  129OSM   C16S13846   5.565   5.917   8.179 -0.2385 -0.6189 -0.5519
  129OSM   H16S13847   5.588   6.009   8.236 -2.1183  1.0128 -2.3391
  129OSM   H16T13848   5.664   5.872   8.158 -0.6835 -2.4967  1.1912
  129OSM   C17S13849   5.474   5.829   8.260  0.4782  0.5551 -0.0085
  129OSM   H17S13850   5.428   5.745   8.205  2.4637 -0.9104  0.5058
  129OSM   H17T13851   5.383   5.888   8.287 -0.2617 -1.5241  2.2358
  129OSM   C18S13852   5.543   5.775   8.384 -0.4732  0.2782 -0.0149
  129OSM   H18S13853   5.466   5.720   8.442 -1.8463 -0.2210 -2.2434
  129OSM   H18T13854   5.584   5.856   8.447 -0.6604 -0.3990  0.9760
  129OSM   H18U13855   5.625   5.706   8.357  0.3824  0.4365  2.1366
  129OSM    C1F13856   5.461   5.704   6.706 -0.1051 -0.3241  0.1276
  129OSM     OF13857   5.572   5.727   6.664 -0.1954  0.5348  0.1389
  129OSM    C2F13858   5.422   5.565   6.751 -0.1738  0.4638 -0.1451
  129OSM    H2F13859   5.442   5.495   6.667 -3.9098 -1.0870  0.1595
  129OSM    H2G13860   5.313   5.563   6.773 -0.1804 -1.4650 -0.2541
  129OSM    C3F13861   5.509   5.523   6.872  0.7914  0.3366  0.5150
  129OSM    H3F13862   5.606   5.507   6.821 -0.2884 -0.7395 -1.2734
  129OSM    H3G13863   5.473   5.426   6.914  0.9972  1.2086  2.7891
  129OSM    C4F13864   5.524   5.618   6.987 -0.5079 -0.7885  0.3280
  129OSM    H4F13865   5.426   5.643   7.034 -1.2183  0.6787 -1.8632
  129OSM    H4G13866   5.562   5.715   6.948 -2.9507 -0.0866 -0.3895
  129OSM    C5F13867   5.615   5.559   7.087 -0.5083  0.4996 -0.2239
  129OSM    H5F13868   5.713   5.600   7.054 -0.1125  0.3042  0.7040
  129OSM    H5G13869   5.610   5.448   7.083 -0.5550  0.4865  0.1671
  129OSM    C6F13870   5.591   5.623   7.229 -0.4004 -0.2518 -0.3767
  129OSM    H6F13871   5.548   5.725   7.230 -0.6066 -0.3481  0.6915
  129OSM    H6G13872   5.679   5.619   7.297 -1.4496  1.2530  1.1111
  129OSM    C7F13873   5.482   5.543   7.304  0.2226  0.2094 -0.2627
  129OSM    H7F13874   5.525   5.442   7.323  2.2691  1.1550  0.2840
  129OSM    H7G13875   5.403   5.530   7.228  0.7268 -0.0753 -0.7367
  129OSM    C8F13876   5.424   5.602   7.435  0.0358 -0.3508 -0.5465
  129OSM    H8F13877   5.315   5.585   7.438  0.0883 -1.5274 -3.4543
  129OSM    H8G13878   5.429   5.713   7.426  0.3585 -0.3148  0.0056
  129OSM    C9F13879   5.504   5.556   7.551  0.8939 -0.6530 -0.0547
  129OSM    H9F13880   5.611   5.532   7.540  1.1565  0.1000  0.8967
  129OSM   C10F13881   5.459   5.536   7.673 -0.3309  0.1543  0.1035
  129OSM   H10F13882   5.536   5.511   7.747  0.3760  2.3264  0.1285
  129OSM   C11F13883   5.321   5.550   7.734  0.1615  0.8733 -0.5858
  129OSM   H11F13884   5.245   5.529   7.656 -0.4203  0.1193  0.1692
  129OSM   H11G13885   5.302   5.651   7.775 -0.7542 -0.1454  1.5459
  129OSM   C12F13886   5.322   5.455   7.855  0.3650 -0.9535 -0.0862
  129OSM   H12F13887   5.398   5.490   7.928  1.9114 -1.2739 -1.5040
  129OSM   H12G13888   5.345   5.349   7.828  1.2779 -1.2339  1.7186
  129OSM   C13F13889   5.189   5.452   7.925 -0.0445 -0.0814 -0.2207
  129OSM   H13F13890   5.103   5.433   7.858 -0.5137 -0.2980  0.4365
  129OSM   H13G13891   5.173   5.553   7.968  0.5085  0.4374 -1.2163
  129OSM   C14F13892   5.186   5.331   8.025  0.2752  0.0492  0.3538
  129OSM   H14F13893   5.276   5.327   8.090  0.4654 -2.2115  0.0121
  129OSM   H14G13894   5.195   5.240   7.962  0.2474  0.1953  0.1378
  129OSM   C15F13895   5.061   5.329   8.108  0.0104  0.4344 -0.9550
  129OSM   H15F13896   4.971   5.355   8.048  1.0924  2.9208 -1.5564
  129OSM   H15G13897   5.084   5.410   8.181 -2.4465  0.0734  0.2603
  129OSM   C16F13898   5.037   5.207   8.193 -0.7695  0.1193 -0.1023
  129OSM   H16F13899   5.116   5.205   8.270 -1.4247 -0.5919  0.5593
  129OSM   H16G13900   5.044   5.111   8.138 -2.2216 -0.4882  0.7413
  129OSM   C17F13901   4.912   5.209   8.276 -0.7358  0.3890  0.0594
  129OSM   H17F13902   4.824   5.234   8.213 -0.0736  2.3911 -0.1113
  129OSM   H17G13903   4.914   5.274   8.367 -0.5198  0.4421  0.0183
  129OSM   C18F13904   4.875   5.068   8.330 -0.4650  0.3981  0.4807
  129OSM   H18F13905   4.943   5.058   8.418  1.1328  0.5605 -0.7066
  129OSM   H18G13906   4.889   4.978   8.266  1.3416  0.7016  0.4088
  129OSM   H18H13907   4.777   5.068   8.383  0.3969 -0.6676  2.1395
  130OSM      N13908   6.451   3.664   6.121 -0.2850 -0.2578  0.1981
  130OSM    C1513909   6.600   3.689   6.119  0.2859 -0.0020  0.2417
  130OSM   H15A13910   6.649   3.594   6.134  0.9306  0.4011  0.6991
  130OSM   H15B13911   6.628   3.763   6.193  1.0768 -1.4101  1.3767
  130OSM   H15C13912   6.638   3.730   6.027 -1.8660 -0.6657 -0.9733
  130OSM    C1413913   6.384   3.798   6.112 -0.1146 -0.2491  0.7762
  130OSM   H14A13914   6.385   3.855   6.204 -0.2631  0.7545  0.1674
  130OSM   H14B13915   6.280   3.777   6.091 -0.6681 -0.7581  3.8127
  130OSM   H14C13916   6.426   3.854   6.029  0.8400 -2.6163 -0.3796
  130OSM    C1313917   6.420   3.570   6.012 -0.1615 -0.2911  0.5127
  130OSM   H13A13918   6.483   3.483   6.022  0.6501  0.3073  0.6672
  130OSM   H13B13919   6.440   3.626   5.921 -0.8815  0.5601  0.8717
  130OSM   H13C13920   6.324   3.522   6.002 -0.8483  1.1751 -0.1793
  130OSM    C1213921   6.428   3.594   6.250  0.2618  0.6679 -0.0892
  130OSM   H12A13922   6.463   3.667   6.321  2.9518  1.4428 -2.1202
  130OSM   H12B13923   6.488   3.506   6.271 -1.3407 -0.0582  1.6401
  130OSM    C1113924   6.278   3.547   6.276  0.2499 -0.4404 -0.0072
  130OSM   H11A13925   6.209   3.633   6.258  0.6543  0.1243  1.1321
  130OSM   H11B13926   6.262   3.534   6.385 -3.2723  0.6112 -0.3249
  130OSM      P13927   6.266   3.297   6.279  0.4195 -0.3861  0.3097
  130OSM    O1313928   6.233   3.178   6.187 -0.0363 -0.0650  0.1367
  130OSM    O1413929   6.403   3.290   6.327 -0.5776  0.1084  0.3268
  130OSM    O1113930   6.168   3.301   6.397  0.3941 -0.5289  0.2493
  130OSM    O1213931   6.243   3.438   6.198 -1.0786 -0.4018 -0.2343
  130OSM    C1S13932   6.032   3.332   6.371  0.3714  0.0975  0.0120
  130OSM    H1S13933   5.980   3.260   6.304 -1.6903  0.3252  1.3097
  130OSM    H1T13934   6.026   3.432   6.323 -0.5691  1.1010  2.1318
  130OSM     NF13935   5.818   3.330   6.484 -0.2889 -0.4987  0.0333
  130OSM    HNF13936   5.782   3.421   6.502  0.2282 -0.7946  2.8128
  130OSM    C2S13937   5.956   3.324   6.508 -0.3683 -0.2256  0.0852
  130OSM    H2S13938   5.978   3.233   6.566  0.2210 -0.6646 -0.8087
  130OSM    C3S13939   6.011   3.438   6.601 -0.0851 -0.2741  0.0565
  130OSM    H3S13940   5.994   3.541   6.563  0.1975 -0.4430 -0.5265
  130OSM     O313941   6.156   3.439   6.613 -0.6979 -0.2533  0.1913
  130OSM    HO313942   6.179   3.379   6.541  1.4847  0.3693  0.3530
  130OSM    C4S13943   5.944   3.426   6.734  0.5623  0.2647 -0.8481
  130OSM    H4S13944   5.878   3.509   6.760  0.1794 -0.4277  0.4163
  130OSM    C5S13945   5.963   3.332   6.822 -0.1666 -0.1622 -0.0980
  130OSM    H5S13946   6.046   3.260   6.809  0.0051  0.3543 -1.9249
  130OSM    C6S13947   5.893   3.324   6.947 -0.5650 -0.4207  0.4116
  130OSM    H6S13948   5.839   3.227   6.957 -4.7800  1.8078  0.1293
  130OSM    H6T13949   5.803   3.390   6.949 -0.5858 -0.4756  2.1904
  130OSM    C7S13950   5.974   3.346   7.075 -0.1470 -0.0163 -0.3054
  130OSM    H7S13951   6.043   3.432   7.059  0.5926 -0.4752  0.4456
  130OSM    H7T13952   6.035   3.258   7.102 -2.2104 -1.2227  0.5700
  130OSM    C8S13953   5.873   3.386   7.184  0.1940  0.2970 -0.0624
  130OSM    H8S13954   5.775   3.334   7.173  0.7595 -1.2717  1.9702
  130OSM    H8T13955   5.869   3.496   7.193 -2.4841  0.2466 -0.1534
  130OSM    C9S13956   5.927   3.333   7.320  1.0369  0.7481 -0.0802
  130OSM    H9S13957   6.018   3.392   7.343  1.8740 -0.7708  0.6190
  130OSM    H9T13958   5.956   3.227   7.303  1.5540  0.7269  0.8957
  130OSM   C10S13959   5.816   3.341   7.430  0.4308 -0.4306  1.1366
  130OSM   H10S13960   5.738   3.265   7.410 -0.3839  0.2544  1.6871
  130OSM   H10T13961   5.766   3.440   7.426 -0.9275 -1.1760 -1.5256
  130OSM   C11S13962   5.874   3.329   7.565 -0.3456  0.3258  0.0598
  130OSM   H11S13963   5.945   3.413   7.583 -1.8568  1.5516  0.4248
  130OSM   H11T13964   5.937   3.239   7.579 -0.4784  0.1006 -0.7552
  130OSM   C12S13965   5.769   3.339   7.681  0.0396  0.5272  0.1470
  130OSM   H12S13966   5.682   3.273   7.664  0.0664  0.2305  1.1164
  130OSM   H12T13967   5.720   3.439   7.680  0.2244  0.6409 -4.3494
  130OSM   C13S13968   5.831   3.303   7.814  0.4340 -0.1502  0.3458
  130OSM   H13S13969   5.904   3.385   7.831 -1.5801  2.0637 -1.3033
  130OSM   H13T13970   5.893   3.211   7.822 -0.9124 -0.9734  1.4767
  130OSM   C14S13971   5.738   3.309   7.932 -0.6271 -0.4951 -0.3663
  130OSM   H14S13972   5.661   3.233   7.906 -0.0799 -0.0561 -3.4521
  130OSM   H14T13973   5.698   3.413   7.926  1.5787  0.3973 -0.1835
  130OSM   C15S13974   5.809   3.274   8.063 -0.4137 -0.1281 -0.8220
  130OSM   H15S13975   5.918   3.290   8.051 -0.5719  1.0912 -0.7119
  130OSM   H15T13976   5.794   3.165   8.082 -0.7083  0.2954  1.6093
  130OSM   C16S13977   5.757   3.377   8.171 -0.0957  0.2057  0.6423
  130OSM   H16S13978   5.647   3.367   8.179 -0.3828  1.4822 -1.3286
  130OSM   H16T13979   5.779   3.477   8.129 -1.3949  0.3302  0.2490
  130OSM   C17S13980   5.830   3.371   8.307 -0.4317 -0.0771  0.1301
  130OSM   H17S13981   5.940   3.359   8.292 -0.4555  2.0195 -1.9829
  130OSM   H17T13982   5.800   3.282   8.365  2.9667 -0.2677  1.7570
  130OSM   C18S13983   5.802   3.498   8.397 -0.1235  0.1360  0.6911
  130OSM   H18S13984   5.821   3.596   8.347  0.4180  0.2123  1.0424
  130OSM   H18T13985   5.874   3.496   8.482  0.4189 -2.6177  0.1946
  130OSM   H18U13986   5.695   3.488   8.423  0.2057 -2.5821  1.1294
  130OSM    C1F13987   5.740   3.225   6.424  0.6655  0.1941 -0.5141
  130OSM     OF13988   5.793   3.117   6.393 -0.0229  0.1919  0.0274
  130OSM    C2F13989   5.599   3.254   6.409  0.1895 -0.2525  0.0630
  130OSM    H2F13990   5.575   3.270   6.302  1.8001 -0.6456 -0.3735
  130OSM    H2G13991   5.573   3.347   6.466 -0.9279 -0.4265 -0.1582
  130OSM    C3F13992   5.516   3.143   6.467  0.7795  0.1359 -0.2587
  130OSM    H3F13993   5.549   3.043   6.431  0.1949 -0.3600  0.5421
  130OSM    H3G13994   5.410   3.165   6.441  0.7094  1.4113  1.0800
  130OSM    C4F13995   5.507   3.131   6.620 -0.3470  0.6450  0.1839
  130OSM    H4F13996   5.472   3.233   6.647  0.2115  0.4703  1.5726
  130OSM    H4G13997   5.611   3.122   6.659  0.1004  2.1221 -0.6173
  130OSM    C5F13998   5.414   3.014   6.667 -0.0012  0.5691  0.3220
  130OSM    H5F13999   5.448   2.917   6.623  1.6791  1.0899  0.4224
  130OSM    H5G14000   5.312   3.032   6.627  0.1614  0.4270 -0.1657
  130OSM    C6F14001   5.412   3.000   6.824  1.0839 -0.4024 -0.4259
  130OSM    H6F14002   5.329   2.928   6.842  1.2651 -0.8350 -1.3317
  130OSM    H6G14003   5.380   3.099   6.863 -2.4517 -1.9222  0.7876
  130OSM    C7F14004   5.536   2.959   6.897 -0.2564  0.6555  0.1101
  130OSM    H7F14005   5.621   3.027   6.875  0.5974  0.2600  2.0950
  130OSM    H7G14006   5.570   2.866   6.847 -0.5184  1.0735 -0.8509
  130OSM    C8F14007   5.519   2.922   7.049 -0.5991  0.1224 -0.1876
  130OSM    H8F14008   5.619   2.890   7.085 -0.5582 -1.8963 -2.0079
  130OSM    H8G14009   5.446   2.840   7.065  0.0185 -0.2834  0.5398
  130OSM    C9F14010   5.487   3.047   7.126  0.8226  0.0095 -0.3166
  130OSM    H9F14011   5.430   3.117   7.062 -0.1708 -1.5546 -1.1967
  130OSM   C10F14012   5.510   3.080   7.251 -0.2604 -0.1079  0.0285
  130OSM   H10F14013   5.513   3.188   7.272 -1.3279 -0.1196  0.2936
  130OSM   C11F14014   5.581   3.001   7.356 -0.7060 -0.3410 -0.0044
  130OSM   H11F14015   5.656   3.068   7.405 -1.2489 -0.2964  0.7883
  130OSM   H11G14016   5.640   2.917   7.316  0.2826  0.3552 -0.0253
  130OSM   C12F14017   5.481   2.939   7.455  0.2705  0.3516 -0.4229
  130OSM   H12F14018   5.531   2.857   7.512  0.8591  1.2936  0.4209
  130OSM   H12G14019   5.396   2.885   7.407  0.3428  1.0745 -1.3662
  130OSM   C13F14020   5.453   3.035   7.566 -0.2138  0.1660  0.5009
  130OSM   H13F14021   5.387   3.115   7.525 -2.1296 -1.2399  0.7720
  130OSM   H13G14022   5.546   3.089   7.594  0.5471 -0.7298 -0.2502
  130OSM   C14F14023   5.384   2.981   7.686  0.3039  0.2259 -0.6855
  130OSM   H14F14024   5.439   2.894   7.727  0.9666  0.0743 -1.8913
  130OSM   H14G14025   5.287   2.930   7.667  0.5866 -1.5406  2.2900
  130OSM   C15F14026   5.376   3.078   7.806 -0.0126 -0.3758  0.2084
  130OSM   H15F14027   5.299   3.158   7.802 -0.6462 -1.0637 -2.4856
  130OSM   H15G14028   5.473   3.131   7.815  0.3984 -1.1931  0.6688
  130OSM   C16F14029   5.341   3.013   7.942 -0.2370  0.2387  0.1296
  130OSM   H16F14030   5.384   3.072   8.026  1.0042 -0.6187  0.1216
  130OSM   H16G14031   5.387   2.911   7.952 -0.5112 -0.0994 -1.9097
  130OSM   C17F14032   5.189   3.002   7.958  0.3885 -0.1151 -0.8912
  130OSM   H17F14033   5.144   2.959   7.867  0.3494  2.5528 -2.1612
  130OSM   H17G14034   5.148   3.105   7.961 -1.3022 -0.7862 -0.5705
  130OSM   C18F14035   5.149   2.944   8.096  0.1319  0.2912  0.2704
  130OSM   H18F14036   5.170   3.024   8.171  0.2057  0.6164 -0.0906
  130OSM   H18G14037   5.210   2.856   8.125  1.1443  1.2200  1.0133
  130OSM   H18H14038   5.041   2.924   8.108  0.2720 -0.2252  0.6750
  131OSM      N14039   6.269   0.597   6.101 -0.0704  0.2189 -0.2698
  131OSM    C1514040   6.409   0.636   6.098  0.4266 -0.0542  0.5388
  131OSM   H15A14041   6.474   0.549   6.091  0.4973 -0.0527  1.2155
  131OSM   H15B14042   6.441   0.704   6.175  1.8449  0.2570 -0.3018
  131OSM   H15C14043   6.423   0.698   6.011  1.0175  0.9627  1.3571
  131OSM    C1414044   6.250   0.508   5.979 -0.5181 -0.4045 -0.2946
  131OSM   H14A14045   6.246   0.567   5.889 -3.3320 -0.8960 -0.5318
  131OSM   H14B14046   6.162   0.448   6.000  1.0780 -2.6998  0.0717
  131OSM   H14C14047   6.338   0.444   5.977 -1.1252 -1.2540 -0.2657
  131OSM    C1314048   6.250   0.524   6.226 -0.4009 -0.9568 -0.3713
  131OSM   H13A14049   6.327   0.450   6.247 -0.2605 -0.6815  0.0916
  131OSM   H13B14050   6.150   0.484   6.232 -0.5556 -0.7746 -1.6300
  131OSM   H13C14051   6.269   0.584   6.314 -0.8082 -0.9746 -0.2712
  131OSM    C1214052   6.185   0.723   6.092  0.0240  0.0432  0.0352
  131OSM   H12A14053   6.081   0.697   6.076  0.2407 -1.2700  0.7053
  131OSM   H12B14054   6.213   0.764   5.996  0.7672 -0.2711  0.1128
  131OSM    C1114055   6.195   0.826   6.208  0.2532  0.5784  0.1709
  131OSM   H11A14056   6.141   0.787   6.297  2.4657 -0.1132  1.2502
  131OSM   H11B14057   6.132   0.909   6.172 -0.3933 -0.1065 -0.2748
  131OSM      P14058   6.353   1.029   6.255 -0.3750  0.0293  0.1663
  131OSM    O1314059   6.502   1.054   6.267 -0.1238  0.2778  0.2329
  131OSM    O1414060   6.285   1.105   6.147  0.6091 -0.5782 -0.3798
  131OSM    O1114061   6.284   1.069   6.389  0.2241 -0.3665 -0.4307
  131OSM    O1214062   6.331   0.875   6.248  0.8229 -0.4204  0.5988
  131OSM    C1S14063   6.342   1.015   6.512 -0.4441 -0.0642 -0.2082
  131OSM    H1S14064   6.441   1.063   6.526  0.1867 -1.4165  0.0771
  131OSM    H1T14065   6.364   0.907   6.496  3.1102  0.2764  1.7007
  131OSM     NF14066   6.311   0.983   6.761  0.4161 -0.2787  0.4192
  131OSM    HNF14067   6.277   0.891   6.778  1.4361 -0.7655 -0.0822
  131OSM    C2S14068   6.259   1.043   6.638  0.4478  0.2812 -0.6080
  131OSM    H2S14069   6.255   1.153   6.652 -1.0052  0.3628 -1.5663
  131OSM    C3S14070   6.112   0.987   6.609 -0.8007 -0.1024 -0.0733
  131OSM    H3S14071   6.125   0.881   6.579 -0.4861  0.4987 -2.1230
  131OSM     O314072   6.051   1.060   6.498  0.0407 -0.7378 -0.5423
  131OSM    HO314073   6.122   1.076   6.437  1.8571 -0.4137  1.5822
  131OSM    C4S14074   6.026   1.000   6.735  0.4506 -0.1026  1.1184
  131OSM    H4S14075   5.997   0.907   6.786  1.4589 -0.3348  1.2873
  131OSM    C5S14076   5.959   1.111   6.779 -0.6740  0.1148 -0.6712
  131OSM    H5S14077   5.950   1.192   6.705  2.5972  0.6957 -0.5113
  131OSM    C6S14078   5.877   1.115   6.906  0.3062  0.1891 -0.5139
  131OSM    H6S14079   5.778   1.160   6.882 -0.6718 -0.1514  2.5753
  131OSM    H6T14080   5.925   1.188   6.975  0.7215 -0.8119  0.2648
  131OSM    C7S14081   5.860   0.986   6.991  0.1356  0.5064 -0.0377
  131OSM    H7S14082   5.943   0.912   6.982  1.3172  1.6289  1.3908
  131OSM    H7T14083   5.774   0.925   6.956  0.7070 -0.0072 -0.5459
  131OSM    C8S14084   5.840   1.012   7.144  0.2755  0.6487  0.5914
  131OSM    H8S14085   5.809   0.920   7.198  2.4154  0.5101  1.6555
  131OSM    H8T14086   5.746   1.071   7.151 -0.2181 -0.1026  0.3592
  131OSM    C9S14087   5.971   1.063   7.209  0.2554 -0.0424  0.1836
  131OSM    H9S14088   5.995   1.161   7.161  0.8863 -0.0450  0.4886
  131OSM    H9T14089   6.051   0.992   7.181 -1.7549 -2.5128  0.4530
  131OSM   C10S14090   5.961   1.063   7.358  0.1019 -0.1849  0.6143
  131OSM   H10S14091   6.068   1.073   7.385  0.1787  1.9703 -0.3523
  131OSM   H10T14092   5.910   0.977   7.406 -1.7473  0.0975 -0.7556
  131OSM   C11S14093   5.894   1.184   7.427 -0.6843  0.6085  0.1884
  131OSM   H11S14094   5.787   1.185   7.396 -0.8788 -1.2898  0.7385
  131OSM   H11T14095   5.945   1.279   7.400  1.1382 -0.3296  0.2838
  131OSM   C12S14096   5.899   1.170   7.581  1.2208 -0.4135  0.5159
  131OSM   H12S14097   5.822   1.093   7.607  0.2573  0.0819 -0.7885
  131OSM   H12T14098   5.867   1.262   7.633 -1.9153 -1.0257 -0.2123
  131OSM   C13S14099   6.044   1.145   7.636 -0.4655 -0.0949  0.2923
  131OSM   H13S14100   6.105   1.200   7.561 -0.1409 -2.3895 -1.1705
  131OSM   H13T14101   6.064   1.036   7.633 -0.6287 -0.1522  1.1358
  131OSM   C14S14102   6.066   1.187   7.781  0.4662 -0.0369 -0.1751
  131OSM   H14S14103   6.012   1.136   7.864 -1.0505  1.0880 -0.4635
  131OSM   H14T14104   6.020   1.287   7.792  0.2161 -0.4026  2.7530
  131OSM   C15S14105   6.214   1.196   7.821  1.2579 -0.9539  0.1535
  131OSM   H15S14106   6.248   1.280   7.758  0.7539 -0.8463  0.0238
  131OSM   H15T14107   6.270   1.110   7.780  0.5922  0.2153 -3.3392
  131OSM   C16S14108   6.242   1.231   7.965  0.0219 -0.3906  0.1899
  131OSM   H16S14109   6.192   1.158   8.032 -0.7836  0.1445  0.1856
  131OSM   H16T14110   6.221   1.330   8.010 -0.6589 -0.5854  0.3070
  131OSM   C17S14111   6.394   1.213   7.996  0.6256 -0.4136 -0.4264
  131OSM   H17S14112   6.443   1.287   7.929  1.4913  3.2012  4.0071
  131OSM   H17T14113   6.435   1.115   7.963  1.4645 -0.2369  0.0706
  131OSM   C18S14114   6.445   1.241   8.145 -0.3543  0.4740 -0.0398
  131OSM   H18S14115   6.554   1.260   8.147 -0.4064  0.7820  0.0276
  131OSM   H18T14116   6.423   1.156   8.213  0.2753  2.6208  3.0214
  131OSM   H18U14117   6.390   1.332   8.177 -1.1021  0.2510 -0.6798
  131OSM    C1F14118   6.429   1.016   6.819  0.3911  0.1091 -0.7978
  131OSM     OF14119   6.498   1.110   6.779  0.2165 -0.1109 -0.4752
  131OSM    C2F14120   6.488   0.932   6.931 -0.0474  0.5750  0.3093
  131OSM    H2F14121   6.561   0.864   6.882  1.1648  0.3150  2.4081
  131OSM    H2G14122   6.406   0.872   6.977  1.9925 -2.7629 -0.2135
  131OSM    C3F14123   6.551   1.028   7.034  0.1069 -0.4972  0.3811
  131OSM    H3F14124   6.472   1.100   7.066  0.5286 -0.1637  0.6871
  131OSM    H3G14125   6.626   1.096   6.988  0.0063 -0.8254 -0.2723
  131OSM    C4F14126   6.624   0.950   7.149  0.2201  0.6779 -0.2411
  131OSM    H4F14127   6.686   1.018   7.210  1.7385 -2.0149  1.2776
  131OSM    H4G14128   6.685   0.876   7.093  1.1937  1.0095  0.3855
  131OSM    C5F14129   6.515   0.894   7.237  0.1976  0.6848 -0.8621
  131OSM    H5F14130   6.439   0.836   7.181 -0.4373 -0.0291  0.7112
  131OSM    H5G14131   6.455   0.976   7.283 -1.6214 -2.5953  2.8694
  131OSM    C6F14132   6.553   0.800   7.351 -0.1044  0.8384  0.3381
  131OSM    H6F14133   6.589   0.705   7.306 -2.1384  0.0769  0.2650
  131OSM    H6G14134   6.463   0.778   7.412  0.8246 -0.7253  1.1879
  131OSM    C7F14135   6.671   0.857   7.435 -0.0434 -0.1047  0.6612
  131OSM    H7F14136   6.674   0.967   7.448 -1.1192 -0.2981  2.7556
  131OSM    H7G14137   6.762   0.818   7.385  1.4978  4.3406 -0.1772
  131OSM    C8F14138   6.663   0.797   7.579  0.0467 -0.2382 -0.2770
  131OSM    H8F14139   6.755   0.838   7.625 -0.9151 -0.2845  1.7253
  131OSM    H8G14140   6.677   0.686   7.577 -1.8367 -0.4753 -1.6507
  131OSM    C9F14141   6.550   0.853   7.661  0.4689  0.1298  0.1955
  131OSM    H9F14142   6.448   0.860   7.618 -0.9229  0.7033  3.4358
  131OSM   C10F14143   6.566   0.891   7.789 -0.4940  0.0742 -1.0418
  131OSM   H10F14144   6.468   0.922   7.829  1.1230  1.5846  1.9582
  131OSM   C11F14145   6.689   0.897   7.883  0.5868  0.3976  0.1129
  131OSM   H11F14146   6.746   0.991   7.873  0.4982  0.5741  1.2358
  131OSM   H11G14147   6.755   0.808   7.874  1.3501  0.7302  2.2427
  131OSM   C12F14148   6.647   0.877   8.030 -0.1229 -0.2891 -0.2447
  131OSM   H12F14149   6.594   0.780   8.041 -0.1663  0.1543  4.3406
  131OSM   H12G14150   6.572   0.956   8.052 -1.0230 -1.5857  1.5349
  131OSM   C13F14151   6.762   0.886   8.127  0.0479  0.1365 -0.0801
  131OSM   H13F14152   6.850   0.822   8.102 -0.0862 -0.5856  1.2236
  131OSM   H13G14153   6.730   0.862   8.231  2.8148  0.0502  0.7817
  131OSM   C14F14154   6.825   1.025   8.155 -0.2015  0.3447 -0.5346
  131OSM   H14F14155   6.745   1.097   8.181 -1.9173 -0.3048 -3.8200
  131OSM   H14G14156   6.875   1.058   8.062 -0.5812 -1.2633 -1.3300
  131OSM   C15F14157   6.938   1.025   8.261 -0.3972 -0.5737 -0.2761
  131OSM   H15F14158   6.951   1.128   8.300  0.5997 -1.2609  1.2539
  131OSM   H15G14159   7.028   0.999   8.200 -0.5547  0.5223 -0.9874
  131OSM   C16F14160   6.918   0.933   8.385  0.1992 -0.3458  0.0880
  131OSM   H16F14161   6.924   0.827   8.354  2.0222  0.2045 -1.5248
  131OSM   H16G14162   6.815   0.949   8.422 -0.0478  0.7070 -1.0355
  131OSM   C17F14163   7.014   0.981   8.496  0.1762  0.2981 -0.9519
  131OSM   H17F14164   7.002   1.088   8.523  1.2699  0.3470 -0.6476
  131OSM   H17G14165   7.122   0.980   8.472  0.2767 -0.8391 -0.5077
  131OSM   C18F14166   7.009   0.898   8.630 -0.3088  0.5850  1.4557
  131OSM   H18F14167   6.930   0.947   8.691 -1.4306  0.1914  0.3264
  131OSM   H18G14168   7.108   0.880   8.676  0.0868  0.4847  0.5705
  131OSM   H18H14169   6.979   0.794   8.603 -0.7835  0.6873  1.5756
  132OSM      N14170   1.948   4.985   6.256 -0.0262  0.0068  0.6254
  132OSM    C1514171   2.093   5.021   6.250  0.1051  0.4768  0.1907
  132OSM   H15A14172   2.120   5.116   6.294 -0.2682  1.3338 -1.4140
  132OSM   H15B14173   2.125   5.022   6.147  1.2239 -0.8852  0.4992
  132OSM   H15C14174   2.149   4.946   6.306 -0.3380 -1.0538 -1.3774
  132OSM    C1414175   1.867   5.085   6.179 -0.3052  0.1330  0.1313
  132OSM   H14A14176   1.764   5.052   6.183 -0.3837  0.4259  0.4902
  132OSM   H14B14177   1.891   5.092   6.074 -0.2369 -0.4872  0.1086
  132OSM   H14C14178   1.888   5.183   6.220  2.9269  0.0232 -1.0963
  132OSM    C1314179   1.925   4.854   6.190 -0.0487 -0.3022 -0.0684
  132OSM   H13A14180   1.967   4.858   6.090  0.5346 -0.0922  0.1856
  132OSM   H13B14181   1.823   4.818   6.192 -0.3115  0.4793  0.8447
  132OSM   H13C14182   1.979   4.781   6.249  0.3059 -0.8169 -1.0033
  132OSM    C1214183   1.903   4.985   6.401  0.0847 -0.0300  0.8154
  132OSM   H12A14184   1.940   5.067   6.461  0.9621  0.1352  0.0627
  132OSM   H12B14185   1.960   4.902   6.441 -1.0606 -1.2354 -0.0175
  132OSM    C1114186   1.751   4.968   6.439  0.3975 -0.1216  0.0304
  132OSM   H11A14187   1.703   5.063   6.405  0.4367 -0.4537 -0.9736
  132OSM   H11B14188   1.742   4.970   6.549  1.1176  0.8911  0.0858
  132OSM      P14189   1.556   4.864   6.306  0.2998  0.0297 -0.6711
  132OSM    O1314190   1.557   4.968   6.202 -0.2320  0.2925 -0.3910
  132OSM    O1414191   1.503   4.732   6.265 -0.0396 -0.6121  0.4302
  132OSM    O1114192   1.471   4.910   6.427 -0.0774 -0.4318 -0.3477
  132OSM    O1214193   1.703   4.849   6.374 -0.0478  0.1198 -0.0061
  132OSM    C1S14194   1.408   4.823   6.523  0.0784  0.7235 -0.6402
  132OSM    H1S14195   1.435   4.716   6.508  1.2721  1.0948 -1.1664
  132OSM    H1T14196   1.300   4.811   6.498 -0.0910 -1.9503  1.1612
  132OSM     NF14197   1.391   4.778   6.774 -0.2501  0.5573 -0.4105
  132OSM    HNF14198   1.313   4.800   6.832 -1.2251  0.0198 -1.5066
  132OSM    C2S14199   1.421   4.876   6.667  0.1544 -0.5803  0.2747
  132OSM    H2S14200   1.527   4.909   6.681  0.1600  0.2513 -1.5923
  132OSM    C3S14201   1.328   5.003   6.684 -1.2066  0.3914  0.4955
  132OSM    H3S14202   1.223   4.968   6.684 -1.0926  0.0120  1.8827
  132OSM     O314203   1.351   5.100   6.587 -0.1518 -0.1853  0.0977
  132OSM    HO314204   1.403   5.059   6.517 -0.7442 -1.4775  0.3867
  132OSM    C4S14205   1.356   5.065   6.818  0.8022  0.0151 -0.3024
  132OSM    H4S14206   1.462   5.079   6.842  0.6094 -0.1883  0.7109
  132OSM    C5S14207   1.277   5.102   6.911 -0.4709  0.2858  0.2218
  132OSM    H5S14208   1.171   5.090   6.884 -0.3051 -3.5222  1.0049
  132OSM    C6S14209   1.304   5.162   7.042  0.2350 -0.2097 -0.9699
  132OSM    H6S14210   1.262   5.265   7.043  0.9005  0.0789  2.0281
  132OSM    H6T14211   1.411   5.187   7.061 -0.8386  2.8902  1.4970
  132OSM    C7S14212   1.259   5.089   7.168  0.3168 -0.1256  0.5200
  132OSM    H7S14213   1.309   4.990   7.165 -0.6969 -0.6344  0.1902
  132OSM    H7T14214   1.150   5.073   7.158 -0.0670  1.5976  1.7228
  132OSM    C8S14215   1.295   5.167   7.293 -0.3829 -0.0456  0.3547
  132OSM    H8S14216   1.241   5.264   7.287  0.6358  0.4611 -0.8550
  132OSM    H8T14217   1.405   5.180   7.297 -0.3975  0.0511  0.4576
  132OSM    C9S14218   1.242   5.098   7.418  0.6187  0.1773  0.0463
  132OSM    H9S14219   1.281   4.999   7.449  0.1861  0.4177  1.3892
  132OSM    H9T14220   1.132   5.086   7.414  0.6404  0.4254 -2.3696
  132OSM   C10S14221   1.292   5.167   7.549  0.5953  0.1163 -0.4613
  132OSM   H10S14222   1.267   5.274   7.533 -0.4363 -0.3520 -2.1891
  132OSM   H10T14223   1.403   5.158   7.543  0.9790  2.8620  1.6379
  132OSM   C11S14224   1.236   5.104   7.676  0.5936 -0.2436  1.2680
  132OSM   H11S14225   1.277   5.002   7.685 -0.0443 -0.6174  0.0747
  132OSM   H11T14226   1.125   5.097   7.669  0.4352  2.6036 -0.1185
  132OSM   C12S14227   1.279   5.170   7.806  0.1470  0.5340  0.2001
  132OSM   H12S14228   1.221   5.264   7.819  3.2886  2.1925  2.9458
  132OSM   H12T14229   1.388   5.190   7.795  0.0228  0.3695 -1.5117
  132OSM   C13S14230   1.260   5.092   7.941 -0.4336  0.3266 -0.0416
  132OSM   H13S14231   1.322   5.134   8.023 -1.1938  1.6314 -0.1382
  132OSM   H13T14232   1.298   4.988   7.933 -1.7756 -0.3122  1.6335
  132OSM   C14S14233   1.111   5.079   7.979 -0.0108 -0.5283 -0.7119
  132OSM   H14S14234   1.060   5.022   7.898  0.7966  1.0426 -2.3619
  132OSM   H14T14235   1.066   5.180   7.972  0.1935 -0.3355  0.6744
  132OSM   C15S14236   1.080   5.026   8.114  0.1643 -0.1824 -0.1367
  132OSM   H15S14237   1.131   5.082   8.196 -0.8357 -0.5614  0.7572
  132OSM   H15T14238   1.116   4.923   8.133 -2.7781 -1.2974 -0.4812
  132OSM   C16S14239   0.935   5.043   8.157 -0.0605  0.2943  0.3018
  132OSM   H16S14240   0.868   4.977   8.098 -0.9288  1.4421 -0.0016
  132OSM   H16T14241   0.884   5.140   8.139 -1.3878 -0.2046  1.2214
  132OSM   C17S14242   0.922   5.017   8.311 -0.0715 -0.1142  0.1211
  132OSM   H17S14243   0.972   4.920   8.330  1.0618  0.8139  2.0606
  132OSM   H17T14244   0.813   5.006   8.329  0.2478 -1.2531  1.4489
  132OSM   C18S14245   0.981   5.116   8.416 -0.5805 -0.4599 -0.2821
  132OSM   H18S14246   0.974   5.087   8.523 -0.3253 -0.1622 -0.1864
  132OSM   H18T14247   0.945   5.221   8.419  0.0525 -0.2463 -0.2529
  132OSM   H18U14248   1.091   5.110   8.404 -0.7078 -2.3971 -0.7242
  132OSM    C1F14249   1.467   4.669   6.792 -0.7671  0.1157  0.5301
  132OSM     OF14250   1.552   4.638   6.713 -0.3712  1.0030 -0.4103
  132OSM    C2F14251   1.445   4.579   6.913 -0.2503  0.3698  0.7523
  132OSM    H2F14252   1.545   4.555   6.957  0.0226  0.3254  0.1047
  132OSM    H2G14253   1.400   4.489   6.866  1.1496  0.1600 -0.2114
  132OSM    C3F14254   1.369   4.636   7.038  0.3209  0.0932 -0.6733
  132OSM    H3F14255   1.260   4.633   7.020  0.4129  0.9151 -1.3612
  132OSM    H3G14256   1.402   4.741   7.049 -3.2904  1.2713 -0.6328
  132OSM    C4F14257   1.391   4.557   7.171 -0.1813  0.4193 -0.1955
  132OSM    H4F14258   1.384   4.449   7.145  0.3727  0.0971  0.9832
  132OSM    H4G14259   1.302   4.589   7.229  0.0604 -0.3475  0.6110
  132OSM    C5F14260   1.515   4.590   7.257  0.0149 -0.5945  0.3693
  132OSM    H5F14261   1.533   4.700   7.259  0.3844 -0.6109 -1.2749
  132OSM    H5G14262   1.598   4.532   7.211 -1.0298 -0.6072 -1.5408
  132OSM    C6F14263   1.503   4.535   7.398  0.4095  0.2105 -0.4186
  132OSM    H6F14264   1.602   4.538   7.448  1.0489  2.7746 -1.7483
  132OSM    H6G14265   1.489   4.425   7.398  1.4582  0.0687 -1.1121
  132OSM    C7F14266   1.381   4.596   7.474 -0.1066 -0.2957  0.4844
  132OSM    H7F14267   1.295   4.539   7.434  0.0365  0.9578 -1.6805
  132OSM    H7G14268   1.366   4.703   7.448 -1.7613 -0.4091  0.9057
  132OSM    C8F14269   1.407   4.575   7.622  0.3346  0.6873 -0.3689
  132OSM    H8F14270   1.442   4.471   7.639  1.1633  1.1455  0.7744
  132OSM    H8G14271   1.309   4.593   7.670  2.1026  2.8033  2.6271
  132OSM    C9F14272   1.530   4.661   7.670 -0.1136  0.1309  0.2829
  132OSM    H9F14273   1.590   4.699   7.586 -0.8621  0.1296 -0.2605
  132OSM   C10F14274   1.564   4.687   7.797  0.4112  0.7903  0.0236
  132OSM   H10F14275   1.656   4.740   7.825  1.1064 -2.1314  3.5888
  132OSM   C11F14276   1.486   4.650   7.926  0.3839  0.2837  0.2570
  132OSM   H11F14277   1.376   4.658   7.910  0.4167  1.8907  0.6608
  132OSM   H11G14278   1.522   4.722   8.003  1.3920  0.5278 -0.4370
  132OSM   C12F14279   1.533   4.511   7.970  0.2865 -0.9654  0.3242
  132OSM   H12F14280   1.643   4.504   7.983  0.3683 -1.9478 -0.8199
  132OSM   H12G14281   1.513   4.440   7.888 -1.1226  1.1735 -1.2364
  132OSM   C13F14282   1.475   4.449   8.101 -0.1362  0.6466  0.4176
  132OSM   H13F14283   1.503   4.343   8.082  4.4841  2.2922 -2.8911
  132OSM   H13G14284   1.365   4.460   8.106 -0.0474  2.8145 -1.4016
  132OSM   C14F14285   1.542   4.507   8.227 -0.6347 -0.8973 -0.1002
  132OSM   H14F14286   1.494   4.603   8.255  0.5061 -0.5302  0.6094
  132OSM   H14G14287   1.649   4.526   8.204 -0.4364 -0.7811  0.9361
  132OSM   C15F14288   1.544   4.409   8.347 -0.2354 -0.0406  0.2889
  132OSM   H15F14289   1.581   4.306   8.327  0.8383  0.4217 -0.1255
  132OSM   H15G14290   1.437   4.385   8.367 -0.1741  0.4830  1.3136
  132OSM   C16F14291   1.609   4.451   8.480 -0.2795  0.3479  0.5405
  132OSM   H16F14292   1.720   4.456   8.478 -0.2289 -0.2138  1.5255
  132OSM   H16G14293   1.593   4.367   8.550 -1.4305 -0.8312 -1.0953
  132OSM   C17F14294   1.555   4.587   8.534  0.4692  0.8276  0.4105
  132OSM   H17F14295   1.449   4.592   8.499  0.3039 -0.0704  0.7788
  132OSM   H17G14296   1.605   4.674   8.486  1.4096  0.0106 -0.1009
  132OSM   C18F14297   1.553   4.608   8.688  0.0653 -0.4740  0.4144
  132OSM   H18F14298   1.660   4.598   8.717  0.2355 -0.2212 -0.1301
  132OSM   H18G14299   1.480   4.540   8.739  0.0752 -1.1654 -0.4759
  132OSM   H18H14300   1.523   4.710   8.719  1.8068  0.6130 -1.4458
  133SAPE     N14301   2.439   1.920  11.234  0.6430  0.1719  0.3086
  133SAPE   HN114302   2.396   1.833  11.198  0.1374  0.8341 -0.7139
  133SAPE   HN214303   2.489   1.909  11.324 -0.2976  2.4328  1.1737
  133SAPE   HN314304   2.354   1.980  11.237  1.4213  1.2401  2.3856
  133SAPE   C1214305   2.551   1.983  11.143  0.4144 -0.6366  0.7355
  133SAPE  H12A14306   2.637   1.913  11.146  0.5225 -0.5243  0.3745
  133SAPE  H12B14307   2.577   2.076  11.198  1.2719 -0.0170 -0.6558
  133SAPE   C1114308   2.501   2.013  11.002  0.5713  0.3309 -0.1719
  133SAPE  H11A14309   2.418   2.087  11.003  2.7337  2.9029 -2.3131
  133SAPE  H11B14310   2.464   1.917  10.962  0.4414  0.8607 -1.3393
  133SAPE     P14311   2.603   2.102  10.778  0.3450 -0.2650  0.1216
  133SAPE   O1314312   2.480   2.173  10.754 -0.0396 -0.1961  0.5327
  133SAPE   O1414313   2.723   2.178  10.728  0.3011 -0.0240 -0.0232
  133SAPE   O1214314   2.614   2.067  10.932 -0.8469 -0.1972  0.2462
  133SAPE   O1114315   2.595   1.965  10.707  0.4053 -0.0674  0.3103
  133SAPE    C114316   2.704   1.878  10.709 -0.3932  0.1620 -0.1261
  133SAPE    HA14317   2.784   1.904  10.781  0.1236  0.4476 -0.7906
  133SAPE    HB14318   2.685   1.772  10.733  1.3666 -0.2368 -0.4420
  133SAPE    C214319   2.777   1.889  10.571 -1.0193 -0.5628  0.6856
  133SAPE    HS14320   2.812   1.992  10.552  0.5781 -1.3604 -0.7348
  133SAPE   O2114321   2.689   1.831  10.474 -0.2174 -0.0398  0.2822
  133SAPE   C2114322   2.690   1.890  10.357 -0.4948  0.0854 -0.2414
  133SAPE   O2214323   2.751   1.996  10.332  0.2010 -0.0457  0.0041
  133SAPE   C2214324   2.585   1.824  10.267 -0.7284  0.4803  0.2714
  133SAPE   H2R14325   2.562   1.734  10.328 -2.1149 -0.1904 -1.2019
  133SAPE   H2S14326   2.488   1.877  10.282 -1.3645 -0.3980 -0.6427
  133SAPE    C314327   2.907   1.798  10.572 -0.5515  0.4628  0.9451
  133SAPE    HX14328   2.863   1.702  10.608  1.2174  1.4424  6.1028
  133SAPE    HY14329   2.976   1.832  10.652  1.8381  1.4950 -1.4833
  133SAPE   O3114330   2.971   1.774  10.440 -0.3172  0.4281 -0.3035
  133SAPE   C3114331   3.060   1.861  10.410  0.2210 -0.2521 -0.1134
  133SAPE   O3214332   3.106   1.950  10.482 -0.1262  0.3633 -0.0329
  133SAPE   C3214333   3.116   1.835  10.267 -0.1584 -0.5097 -0.5349
  133SAPE   H2X14334   3.160   1.733  10.259  2.0287  0.5387 -2.2265
  133SAPE   H2Y14335   3.204   1.904  10.265  0.2214 -0.9796 -0.2620
  133SAPE   C2314336   2.619   1.797  10.118 -0.1455  0.2410 -0.3739
  133SAPE   H3R14337   2.550   1.727  10.066  0.6304  0.2285 -1.4001
  133SAPE   H3S14338   2.715   1.743  10.105 -0.0560  0.2215  0.3404
  133SAPE   C2414339   2.614   1.925  10.047  0.2732 -0.3107 -0.6774
  133SAPE   H4R14340   2.662   1.915   9.947  0.7679 -0.9272 -0.3767
  133SAPE   H4S14341   2.679   2.004  10.091 -2.4704  2.1649 -0.9442
  133SAPE   C2514342   2.480   1.999  10.030 -0.1008 -0.5808  0.1527
  133SAPE   H5R14343   2.423   1.985  10.123  3.0068  2.7969  2.6813
  133SAPE   C2614344   2.430   2.065   9.929  0.9792 -1.2649  1.0700
  133SAPE   H6R14345   2.325   2.095   9.936  1.4324  0.7830 -0.4718
  133SAPE   C2714346   2.498   2.092   9.793 -0.0319  0.0886  0.1979
  133SAPE   H7R14347   2.593   2.148   9.808 -0.2706  0.6613 -0.3694
  133SAPE   H7S14348   2.433   2.167   9.741 -1.3486 -1.1821 -0.0239
  133SAPE   C2814349   2.521   1.967   9.711 -0.1846  0.4513  0.2074
  133SAPE   H8R14350   2.588   1.892   9.755  2.5151  1.2379 -2.3817
  133SAPE   C2914351   2.476   1.940   9.585  0.3064  0.1945  0.3376
  133SAPE   H9R14352   2.501   1.840   9.547  0.8233  1.6034 -3.2309
  133SAPE  C21014353   2.389   2.030   9.496  0.2057  0.0970  0.1905
  133SAPE  H10R14354   2.389   2.135   9.532  1.7688  1.2576 -3.0521
  133SAPE  H10S14355   2.288   1.989   9.518  0.1650  0.0127 -0.1566
  133SAPE  C21114356   2.407   1.995   9.351  0.0124  0.4296 -0.3310
  133SAPE  H11R14357   2.457   1.898   9.339 -0.8524 -0.0085 -0.4631
  133SAPE  C21214358   2.373   2.058   9.240  0.1429  0.6939 -0.5228
  133SAPE  H12R14359   2.412   2.026   9.142  0.5771 -0.7385  0.1101
  133SAPE  C21314360   2.284   2.181   9.236 -0.4311  0.1142  0.0760
  133SAPE  H13R14361   2.335   2.258   9.174  0.0934 -0.6853 -0.4995
  133SAPE  H13S14362   2.284   2.226   9.337  2.8413  2.7712 -1.0068
  133SAPE  C21414363   2.138   2.171   9.193  0.3183 -0.0148  0.3746
  133SAPE  H14R14364   2.068   2.159   9.277 -1.9209 -1.1186 -1.5883
  133SAPE  C21514365   2.087   2.200   9.070 -0.0648 -0.1879 -0.3258
  133SAPE  H15R14366   1.981   2.176   9.055 -0.6727  1.5002  1.1369
  133SAPE  C21614367   2.156   2.242   8.943 -0.3898  0.3796 -0.0236
  133SAPE  H16R14368   2.152   2.154   8.875 -3.4185  2.2908 -2.4831
  133SAPE  H16S14369   2.259   2.282   8.959 -0.8105  0.9443  1.3079
  133SAPE  C21714370   2.081   2.357   8.861  0.1775 -0.1086  0.3010
  133SAPE  H17R14371   1.976   2.327   8.841 -0.0350  0.3928  0.6381
  133SAPE  H17S14372   2.116   2.368   8.756  3.2641 -0.3771  1.2298
  133SAPE  C21814373   2.108   2.502   8.916  0.0490  0.1641  0.3742
  133SAPE  H18R14374   2.217   2.523   8.910 -0.0214  0.6772  0.8981
  133SAPE  H18S14375   2.076   2.510   9.022  0.3295  0.2630  0.4523
  133SAPE  C21914376   2.026   2.617   8.859  0.1660 -0.1579  0.0901
  133SAPE  H19R14377   2.027   2.703   8.930  1.7600  2.6668 -3.1465
  133SAPE  H19S14378   1.922   2.579   8.864 -0.5416  1.5656 -0.7402
  133SAPE  C22014379   2.066   2.667   8.716  0.4702 -0.1353 -0.2632
  133SAPE  H20R14380   1.990   2.737   8.675 -0.2209  0.5337  2.0301
  133SAPE  H20S14381   2.068   2.577   8.652  2.0376  0.4637 -1.0915
  133SAPE  H20T14382   2.158   2.728   8.706 -0.4315  1.1345 -0.9351
  133SAPE   C3314383   3.012   1.835  10.156  0.2812  0.2159 -0.3857
  133SAPE   H3X14384   2.927   1.903  10.177  0.4176 -0.4310  2.3690
  133SAPE   H3Y14385   2.971   1.731  10.161 -0.5366  0.5844  0.7556
  133SAPE   C3414386   3.069   1.859  10.016 -0.8421  0.1212  0.3420
  133SAPE   H4X14387   3.147   1.785   9.987 -0.3288  0.6224  0.4434
  133SAPE   H4Y14388   3.118   1.958  10.012  0.5524 -0.4808  1.9277
  133SAPE   C3514389   2.959   1.865   9.905  0.0360  0.1149 -0.8782
  133SAPE   H5X14390   2.874   1.923   9.947  0.7973  1.2531 -0.8824
  133SAPE   H5Y14391   2.928   1.761   9.884  2.1060 -0.5628 -0.6507
  133SAPE   C3614392   3.022   1.933   9.785 -0.0541 -0.6412 -0.0010
  133SAPE   H6X14393   3.095   1.864   9.737 -0.9960 -1.4672 -0.2610
  133SAPE   H6Y14394   3.075   2.022   9.824 -1.5418  0.2163  0.0941
  133SAPE   C3714395   2.907   1.975   9.689  0.8827  0.1265 -0.0614
  133SAPE   H7X14396   2.841   2.044   9.744 -0.5193 -1.6816  0.5766
  133SAPE   H7Y14397   2.855   1.879   9.668 -0.6871  0.6150  1.4990
  133SAPE   C3814398   2.955   2.057   9.564 -0.5520 -0.0141  0.0047
  133SAPE   H8X14399   2.988   1.988   9.484 -2.1523  0.2897 -0.9403
  133SAPE   H8Y14400   3.043   2.118   9.596 -0.6808  0.3397 -0.3104
  133SAPE   C3914401   2.844   2.140   9.492  0.0007  1.2066 -0.5491
  133SAPE   H9X14402   2.803   2.212   9.566 -0.5763  1.4680 -1.1179
  133SAPE   H9Y14403   2.764   2.063   9.477 -0.2097  0.4190  4.0009
  133SAPE  C31014404   2.865   2.196   9.355  0.0963 -0.0377 -0.0453
  133SAPE  H10X14405   2.874   2.115   9.279  2.1841 -0.0646  0.2185
  133SAPE  H10Y14406   2.960   2.251   9.341 -1.1946  2.9483  2.3880
  133SAPE  C31114407   2.750   2.282   9.297  0.6905 -0.4306 -0.9547
  133SAPE  H11X14408   2.752   2.383   9.343  0.0328 -0.6357 -0.4769
  133SAPE  H11Y14409   2.651   2.234   9.311  0.2413  0.7215 -0.0552
  133SAPE  C31214410   2.765   2.308   9.143  0.2491  0.0241  0.1525
  133SAPE  H12X14411   2.757   2.206   9.099  0.6841 -0.4786  1.2116
  133SAPE  H12Y14412   2.867   2.345   9.122  0.3682  0.0264  0.7126
  133SAPE  C31314413   2.664   2.408   9.083 -0.3966  0.1295 -0.1874
  133SAPE  H13X14414   2.684   2.509   9.126  0.6004 -0.2823  0.3184
  133SAPE  H13Y14415   2.565   2.378   9.125 -0.1286  2.3827  2.1715
  133SAPE  C31414416   2.664   2.413   8.932  0.0994  0.0588 -0.6992
  133SAPE  H14X14417   2.651   2.311   8.889 -0.3425  0.0425 -0.5390
  133SAPE  H14Y14418   2.762   2.434   8.885  0.3727  0.5556  0.0834
  133SAPE  C31514419   2.562   2.509   8.872  0.3354 -0.0448  0.0777
  133SAPE  H15X14420   2.617   2.601   8.843 -0.3027  0.5088  0.5922
  133SAPE  H15Y14421   2.479   2.544   8.938  0.6248 -1.7971  1.4158
  133SAPE  C31614422   2.510   2.458   8.735 -0.4051  0.4156 -0.2523
  133SAPE  H16X14423   2.459   2.362   8.760 -0.5532  0.2815 -1.0539
  133SAPE  H16Y14424   2.584   2.438   8.655 -1.1266 -1.6546 -0.4487
  133SAPE  C31714425   2.407   2.556   8.673  1.3211  0.0230 -0.0491
  133SAPE  H17X14426   2.327   2.579   8.747  1.3238 -0.8711  0.2381
  133SAPE  H17Y14427   2.359   2.497   8.592  1.2042  1.5254 -1.0964
  133SAPE  C31814428   2.464   2.685   8.624 -0.6865 -0.5153 -0.3386
  133SAPE  H18X14429   2.387   2.735   8.561  1.0334  0.3108 -1.8229
  133SAPE  H18Y14430   2.554   2.654   8.566  0.6629  3.8071 -0.7212
  133SAPE  H18Z14431   2.493   2.745   8.713 -1.7671 -1.4480  0.6475
  134SAPE     N14432   5.639   2.409  10.866  0.2712  0.2239 -0.7157
  134SAPE   HN114433   5.541   2.423  10.895  0.7339  0.5401  0.7210
  134SAPE   HN214434   5.687   2.363  10.946  1.8990  1.0439 -1.1874
  134SAPE   HN314435   5.695   2.492  10.838  1.0068 -0.7381 -2.1947
  134SAPE   C1214436   5.638   2.325  10.742 -0.7277  0.3118  0.5511
  134SAPE  H12A14437   5.566   2.377  10.675 -0.3026 -0.5895 -0.6277
  134SAPE  H12B14438   5.598   2.225  10.772 -0.1926 -0.1789 -0.3402
  134SAPE   C1114439   5.775   2.312  10.684  0.4020 -0.1493  0.1758
  134SAPE  H11A14440   5.776   2.244  10.596  1.7565  2.2495 -1.7166
  134SAPE  H11B14441   5.834   2.259  10.762  0.7317  0.7476  0.5434
  134SAPE     P14442   5.992   2.460  10.652  0.3353  0.0613 -0.2884
  134SAPE   O1314443   6.021   2.598  10.614 -0.5051  0.5233 -0.0948
  134SAPE   O1414444   6.030   2.420  10.789 -0.0144  0.0079  0.0182
  134SAPE   O1214445   5.836   2.434  10.644 -0.0111 -0.0288  0.0549
  134SAPE   O1114446   6.052   2.362  10.545  0.0864 -0.0332 -0.0508
  134SAPE    C114447   6.008   2.373  10.404  0.6369  0.3986  0.7435
  134SAPE    HA14448   5.898   2.386  10.390  0.4749 -0.0652  1.5312
  134SAPE    HB14449   6.033   2.468  10.352 -0.1960  1.4297  2.1622
  134SAPE    C214450   6.057   2.261  10.308  0.1163  0.8370 -0.8308
  134SAPE    HS14451   6.119   2.311  10.230  1.4655  1.0665  0.3790
  134SAPE   O2114452   5.943   2.199  10.242  0.4555 -0.7893  0.1212
  134SAPE   C2114453   5.890   2.276  10.145 -0.1552 -0.2125  0.9814
  134SAPE   O2214454   5.929   2.384  10.107 -0.4055  0.2138 -0.1551
  134SAPE   C2214455   5.775   2.199  10.072 -0.4557  0.7891 -0.1542
  134SAPE   H2R14456   5.774   2.097  10.116 -1.0024  2.1531  3.1780
  134SAPE   H2S14457   5.686   2.262  10.093 -1.3698 -0.7431  0.6158
  134SAPE    C314458   6.157   2.155  10.369  0.3531 -0.0147  0.5795
  134SAPE    HX14459   6.116   2.107  10.460  0.9976 -0.4414  0.6485
  134SAPE    HY14460   6.249   2.209  10.399  0.8895  0.1095 -1.2444
  134SAPE   O3114461   6.187   2.049  10.281 -0.4700 -0.5349 -0.3540
  134SAPE   C3114462   6.300   2.051  10.213 -0.3275  0.0727  0.3474
  134SAPE   O3214463   6.391   2.134  10.214 -0.0913 -0.5824  0.2165
  134SAPE   C3214464   6.296   1.915  10.135 -0.2309 -0.1348  0.3477
  134SAPE   H2X14465   6.214   1.931  10.062  2.2662  3.7485 -1.7559
  134SAPE   H2Y14466   6.270   1.833  10.205  0.5283  0.2262  1.0609
  134SAPE   C2314467   5.820   2.195   9.927  1.0470 -0.4651  0.5354
  134SAPE   H3R14468   5.924   2.159   9.913  1.6437  1.0682  0.9429
  134SAPE   H3S14469   5.816   2.294   9.877  1.6693  1.0209  3.3275
  134SAPE   C2414470   5.725   2.111   9.841  0.0527 -0.2700  0.1292
  134SAPE   H4R14471   5.716   2.165   9.745  1.2326 -0.7555 -0.2648
  134SAPE   H4S14472   5.628   2.120   9.895 -0.2923  0.7986 -0.6577
  134SAPE   C2514473   5.776   1.969   9.832 -1.5184 -0.0523 -0.9383
  134SAPE   H5R14474   5.773   1.903   9.921 -0.0015  0.5477 -0.4312
  134SAPE   C2614475   5.826   1.905   9.723  0.3366  0.8449  0.2026
  134SAPE   H6R14476   5.851   1.798   9.723  1.6191  1.1339  0.3234
  134SAPE   C2714477   5.840   1.966   9.581 -0.6589 -0.1690  0.0139
  134SAPE   H7R14478   5.823   2.076   9.579  1.1406  0.1552  1.5073
  134SAPE   H7S14479   5.757   1.924   9.520 -0.3173  0.8615 -1.1743
  134SAPE   C2814480   5.974   1.965   9.518  0.4148  0.1953 -0.5214
  134SAPE   H8R14481   6.059   1.996   9.580  0.3365 -0.1146 -0.2542
  134SAPE   C2914482   5.997   1.915   9.395 -0.4011  0.7881  0.0787
  134SAPE   H9R14483   6.093   1.921   9.341  0.3452 -1.8722  1.0316
  134SAPE  C21014484   5.890   1.840   9.324 -0.5787 -0.1409  0.0557
  134SAPE  H10R14485   5.820   1.790   9.394  1.1147  0.5870  2.2984
  134SAPE  H10S14486   5.939   1.770   9.252 -0.8593 -1.2356  0.9196
  134SAPE  C21114487   5.804   1.930   9.245  0.0189  0.2998  0.2679
  134SAPE  H11R14488   5.830   2.037   9.254  2.0564  0.0713 -2.3517
  134SAPE  C21214489   5.701   1.894   9.169  0.0765 -0.2873  0.7778
  134SAPE  H12R14490   5.654   1.973   9.108 -0.6095 -1.2467  0.0528
  134SAPE  C21314491   5.650   1.752   9.132 -0.3758 -0.1521 -1.1005
  134SAPE  H13R14492   5.539   1.756   9.131 -0.3282  1.1619 -1.9896
  134SAPE  H13S14493   5.687   1.678   9.206 -1.2965  2.3329  1.9162
  134SAPE  C21414494   5.695   1.716   8.994 -0.1342 -0.4839 -0.0486
  134SAPE  H14R14495   5.802   1.731   8.973 -0.2284 -0.2519 -0.3816
  134SAPE  C21514496   5.621   1.668   8.889 -0.2016  0.5211  0.1289
  134SAPE  H15R14497   5.672   1.647   8.793 -3.1084  1.2950 -1.6580
  134SAPE  C21614498   5.475   1.633   8.873  0.4706  0.1635  0.2167
  134SAPE  H16R14499   5.418   1.667   8.962 -0.7072  0.3454 -0.5926
  134SAPE  H16S14500   5.457   1.524   8.860  1.7732 -0.1078  0.6432
  134SAPE  C21714501   5.408   1.704   8.751 -0.2142 -0.4920  0.1987
  134SAPE  H17R14502   5.451   1.658   8.660  1.5874 -2.4533  1.9622
  134SAPE  H17S14503   5.425   1.813   8.757 -0.6531 -0.3494 -0.9681
  134SAPE  C21814504   5.256   1.679   8.746  0.5808 -0.8200  0.1275
  134SAPE  H18R14505   5.215   1.703   8.846  2.6601 -2.3146  1.4020
  134SAPE  H18S14506   5.238   1.570   8.741  0.4694 -0.7281 -2.1882
  134SAPE  C21914507   5.191   1.761   8.640  0.3549  0.8841  0.4971
  134SAPE  H19R14508   5.234   1.736   8.541 -2.7607  2.7775 -1.3956
  134SAPE  H19S14509   5.197   1.871   8.636  0.2913  1.0021  2.7200
  134SAPE  C22014510   5.041   1.724   8.642 -0.0549  0.7478  0.2234
  134SAPE  H20R14511   4.982   1.749   8.732 -0.4450  2.4017 -0.4792
  134SAPE  H20S14512   5.014   1.623   8.605 -0.8614  1.2005 -0.4429
  134SAPE  H20T14513   4.994   1.793   8.568 -3.0064  0.0308  1.3546
  134SAPE   C3314514   6.425   1.884  10.064 -0.0914 -0.4524 -0.3827
  134SAPE   H3X14515   6.425   1.774  10.052 -0.9343 -0.7623  2.0673
  134SAPE   H3Y14516   6.508   1.910  10.133 -2.5406 -3.3329  3.9233
  134SAPE   C3414517   6.454   1.960   9.936  1.0335 -0.6148 -0.9979
  134SAPE   H4X14518   6.548   1.916   9.894  0.6436 -1.3604 -1.1005
  134SAPE   H4Y14519   6.469   2.067   9.961 -1.8207 -0.4441  0.1681
  134SAPE   C3514520   6.336   1.963   9.840  0.6012 -0.0225  0.0444
  134SAPE   H5X14521   6.266   2.037   9.885  0.4807 -0.3571  0.4106
  134SAPE   H5Y14522   6.292   1.862   9.825  2.9257 -1.2745  1.4059
  134SAPE   C3614523   6.384   2.022   9.709 -0.6349  0.7454  0.2357
  134SAPE   H6X14524   6.419   2.126   9.726  2.3314  0.0908 -1.4614
  134SAPE   H6Y14525   6.294   2.025   9.644 -0.8570 -0.9713  0.4425
  134SAPE   C3714526   6.496   1.952   9.622 -0.2157 -0.6256 -1.0309
  134SAPE   H7X14527   6.470   1.844   9.613  0.0163 -0.6598 -1.3095
  134SAPE   H7Y14528   6.593   1.947   9.675 -0.5176 -0.6369 -0.4759
  134SAPE   C3814529   6.514   2.028   9.488 -0.6295 -0.0294  0.2502
  134SAPE   H8X14530   6.614   2.001   9.448 -0.9852 -1.0942  0.0714
  134SAPE   H8Y14531   6.505   2.137   9.507  0.5585 -0.1305  1.4773
  134SAPE   C3914532   6.413   2.001   9.379  0.5509 -0.0412 -0.0202
  134SAPE   H9X14533   6.311   2.025   9.416  0.6535  1.3302 -0.5981
  134SAPE   H9Y14534   6.415   1.892   9.357  1.3691 -0.3852  1.6898
  134SAPE  C31014535   6.446   2.067   9.245 -0.0551 -1.2098  1.0602
  134SAPE  H10X14536   6.547   2.044   9.204  0.0316  0.0798  0.5220
  134SAPE  H10Y14537   6.452   2.176   9.265 -0.2259 -1.4274  2.3366
  134SAPE  C31114538   6.340   2.024   9.150 -0.0970  0.3488  0.9657
  134SAPE  H11X14539   6.242   2.040   9.200  0.7785 -0.6126  3.0714
  134SAPE  H11Y14540   6.338   1.913   9.140 -3.6022  0.3990  0.5497
  134SAPE  C31214541   6.337   2.090   9.014 -0.3568  0.3757  0.6147
  134SAPE  H12X14542   6.418   2.054   8.947 -1.8338 -0.0518 -0.9873
  134SAPE  H12Y14543   6.342   2.200   9.024 -0.9751  0.6775 -1.9201
  134SAPE  C31314544   6.209   2.062   8.934  0.4285  0.0334 -0.0362
  134SAPE  H13X14545   6.218   2.121   8.840 -1.4810  0.3082 -0.0682
  134SAPE  H13Y14546   6.127   2.104   8.995  0.4573 -1.1156  0.8125
  134SAPE  C31414547   6.181   1.915   8.913  0.0429 -0.6666 -0.0273
  134SAPE  H14X14548   6.133   1.873   9.004 -0.0863  0.4143  0.4188
  134SAPE  H14Y14549   6.281   1.868   8.902  1.3465  1.6297  1.6570
  134SAPE  C31514550   6.100   1.892   8.785 -0.4021 -0.4892  0.0158
  134SAPE  H15X14551   6.134   1.965   8.709  0.6353  1.4477  2.2716
  134SAPE  H15Y14552   5.995   1.913   8.813  0.4097  0.2637  2.6944
  134SAPE  C31614553   6.142   1.759   8.729 -0.4449  0.5840  0.0102
  134SAPE  H16X14554   6.121   1.678   8.802 -1.3033 -0.6366 -1.5789
  134SAPE  H16Y14555   6.250   1.756   8.704 -0.8184 -0.1853 -1.5175
  134SAPE  C31714556   6.053   1.725   8.608  0.6176 -0.6906  0.2026
  134SAPE  H17X14557   6.081   1.809   8.540  1.5782 -1.1149  0.0747
  134SAPE  H17Y14558   5.946   1.737   8.638  0.7419 -1.4172  0.9706
  134SAPE  C31814559   6.050   1.584   8.554 -0.1512 -0.2926 -0.0754
  134SAPE  H18X14560   6.006   1.507   8.621 -0.8811 -1.0429 -1.4184
  134SAPE  H18Y14561   6.152   1.556   8.519 -0.0524  1.4160 -1.1972
  134SAPE  H18Z14562   6.002   1.581   8.455  2.0361 -0.5848 -1.1636
  135SAPE     N14563   6.176   0.765  10.677  0.2183  0.5753  0.8046
  135SAPE   HN114564   6.242   0.809  10.744  1.0752  0.7948 -0.1697
  135SAPE   HN214565   6.075   0.775  10.699  0.6310  2.9255  1.7628
  135SAPE   HN314566   6.201   0.664  10.677 -1.7050  0.0700 -0.9523
  135SAPE   C1214567   6.177   0.808  10.535  0.6179 -0.0855 -0.4093
  135SAPE  H12A14568   6.277   0.791  10.488  0.0778 -0.3628 -1.4897
  135SAPE  H12B14569   6.153   0.917  10.529  0.9687  0.2880  3.8724
  135SAPE   C1114570   6.064   0.721  10.457  0.5350 -0.3160 -0.9032
  135SAPE  H11A14571   6.060   0.617  10.495  1.7208  0.2844  0.9169
  135SAPE  H11B14572   6.095   0.722  10.350 -1.6125 -0.2813 -1.5450
  135SAPE     P14573   5.831   0.746  10.578 -0.1586 -0.1745  0.3789
  135SAPE   O1314574   5.911   0.729  10.700  0.2792  0.2316 -0.1353
  135SAPE   O1414575   5.718   0.839  10.580 -0.0467 -0.1291 -0.5865
  135SAPE   O1214576   5.933   0.785  10.476 -1.0969 -0.2438 -0.3045
  135SAPE   O1114577   5.779   0.603  10.522 -0.5057  0.6431 -0.1992
  135SAPE    C114578   5.774   0.554  10.394  0.0310 -0.5686 -0.5303
  135SAPE    HA14579   5.793   0.633  10.318 -0.2010 -0.7005 -0.7255
  135SAPE    HB14580   5.845   0.472  10.372 -2.3321 -2.6390 -0.6745
  135SAPE    C214581   5.627   0.501  10.366  0.3587  0.2777 -0.2879
  135SAPE    HS14582   5.636   0.399  10.408 -2.4622  0.7401  1.6115
  135SAPE   O2114583   5.593   0.509  10.224 -0.0830 -0.1015 -0.0693
  135SAPE   C2114584   5.665   0.437  10.144  0.3753  0.7058 -0.0724
  135SAPE   O2214585   5.762   0.371  10.180  0.3665  0.7817 -0.0711
  135SAPE   C2214586   5.637   0.476   9.997  0.4997 -0.6047 -0.2575
  135SAPE   H2R14587   5.529   0.493   9.979  0.6112  0.5398  0.0778
  135SAPE   H2S14588   5.686   0.572   9.967  1.6712 -2.3463 -4.3240
  135SAPE    C314589   5.526   0.591  10.452  0.8173  0.4310  0.6777
  135SAPE    HX14590   5.538   0.698  10.426 -1.7247  0.5789 -0.0458
  135SAPE    HY14591   5.549   0.592  10.561  1.4730 -2.0107  0.6028
  135SAPE   O3114592   5.393   0.554  10.427  0.3244 -0.3284  0.2087
  135SAPE   C3114593   5.354   0.431  10.479  0.0357 -0.1385  0.3560
  135SAPE   O3214594   5.422   0.360  10.546 -0.2441 -0.2297  1.0102
  135SAPE   C3214595   5.225   0.388  10.407  0.6957 -0.4526  0.3130
  135SAPE   H2X14596   5.141   0.407  10.477  0.7325 -0.0443  0.2456
  135SAPE   H2Y14597   5.224   0.283  10.371 -1.1175 -0.9235  1.6780
  135SAPE   C2314598   5.691   0.365   9.903 -0.1015  0.2774 -0.1792
  135SAPE   H3R14599   5.664   0.264   9.942 -0.8808  0.0083 -1.3970
  135SAPE   H3S14600   5.802   0.370   9.903  0.1537 -3.0355  2.8444
  135SAPE   C2414601   5.649   0.390   9.761  0.2607  0.1282 -0.2249
  135SAPE   H4R14602   5.721   0.342   9.692  0.5724 -0.5427  0.5657
  135SAPE   H4S14603   5.667   0.499   9.751  0.8740  0.2190  1.6526
  135SAPE   C2514604   5.509   0.351   9.728  0.0163 -0.2834  0.5015
  135SAPE   H5R14605   5.446   0.344   9.817  0.7756  0.1635  1.0739
  135SAPE   C2614606   5.469   0.331   9.599  0.9179 -0.3001 -0.6744
  135SAPE   H6R14607   5.366   0.297   9.583  0.7874  0.1852 -0.8765
  135SAPE   C2714608   5.543   0.363   9.472  0.0286  0.1760 -0.7875
  135SAPE   H7R14609   5.643   0.407   9.494 -0.0358 -0.2064  0.2581
  135SAPE   H7S14610   5.491   0.447   9.420  2.7988  3.4348  1.4125
  135SAPE   C2814611   5.562   0.243   9.382 -0.2941  0.1572 -0.1563
  135SAPE   H8R14612   5.599   0.154   9.435 -1.6021  0.9460  2.1406
  135SAPE   C2914613   5.548   0.228   9.247 -0.3033 -0.0148 -0.0305
  135SAPE   H9R14614   5.562   0.130   9.200 -0.0397 -0.3468  0.7350
  135SAPE  C21014615   5.501   0.329   9.147  0.2921 -0.0062 -0.0199
  135SAPE  H10R14616   5.563   0.317   9.055  3.0275 -1.2587  1.9168
  135SAPE  H10S14617   5.528   0.426   9.194  1.6461  0.0718 -0.9179
  135SAPE  C21114618   5.354   0.327   9.113  0.4027 -0.1327  0.0288
  135SAPE  H11R14619   5.285   0.305   9.196  0.7089 -0.3296  0.2331
  135SAPE  C21214620   5.302   0.322   8.994  0.4519 -0.4884  0.3752
  135SAPE  H12R14621   5.193   0.307   8.992  0.3325  0.1229  1.7879
  135SAPE  C21314622   5.378   0.331   8.863  0.1813  0.0028  0.5776
  135SAPE  H13R14623   5.484   0.298   8.876  0.6912  1.2828 -0.2718
  135SAPE  H13S14624   5.366   0.434   8.822 -1.9471  0.6588  2.7258
  135SAPE  C21414625   5.323   0.227   8.762 -0.1228 -0.0175  0.9521
  135SAPE  H14R14626   5.374   0.130   8.773 -2.4440 -1.2249  1.1984
  135SAPE  C21514627   5.229   0.231   8.663 -0.2103 -0.2354 -0.4182
  135SAPE  H15R14628   5.223   0.141   8.600 -0.2175 -1.8729  1.8762
  135SAPE  C21614629   5.127   0.337   8.625 -0.2247  0.0821  0.0813
  135SAPE  H16R14630   5.132   0.361   8.517  1.0707  0.4198  0.2053
  135SAPE  H16S14631   5.147   0.431   8.680  1.0373  0.1080 -0.4153
  135SAPE  C21714632   4.982   0.288   8.650 -0.2944 -0.8462  0.6425
  135SAPE  H17R14633   4.976   0.192   8.595  0.0684 -0.0954 -0.7235
  135SAPE  H17S14634   4.911   0.362   8.607 -0.8559 -0.1092  2.8056
  135SAPE  C21814635   4.950   0.275   8.799  0.3119  0.6112 -0.3395
  135SAPE  H18R14636   5.024   0.218   8.858  0.4137  2.3260  1.2579
  135SAPE  H18S14637   4.859   0.212   8.791 -1.2894  2.8749 -0.3287
  135SAPE  C21914638   4.926   0.406   8.870  0.4717 -0.5882 -0.2023
  135SAPE  H19R14639   4.864   0.476   8.810  0.0309 -1.2541 -0.5328
  135SAPE  H19S14640   5.017   0.466   8.892 -1.3986  2.3257 -0.0820
  135SAPE  C22014641   4.851   0.383   9.005  0.5310  0.3944  0.0668
  135SAPE  H20R14642   4.754   0.337   8.974 -0.3001  1.1228  1.4982
  135SAPE  H20S14643   4.827   0.478   9.056 -3.2761  0.0216 -0.8755
  135SAPE  H20T14644   4.896   0.319   9.084  1.0514  2.0095  1.1128
  135SAPE   C3314645   5.179   0.485  10.287 -0.6783  0.0057  0.2317
  135SAPE   H3X14646   5.180   0.592  10.315 -0.3637  0.1771 -0.4255
  135SAPE   H3Y14647   5.068   0.473  10.283 -0.8850  0.6794  2.9674
  135SAPE   C3414648   5.255   0.465  10.151  0.2980  0.0376  0.1997
  135SAPE   H4X14649   5.248   0.356  10.130  0.5604  0.1397 -0.4448
  135SAPE   H4Y14650   5.356   0.507  10.166  1.7965 -3.4664  0.4071
  135SAPE   C3514651   5.177   0.535  10.039  0.5341  0.5040 -0.5265
  135SAPE   H5X14652   5.177   0.646  10.053  0.9931  0.4885 -0.4136
  135SAPE   H5Y14653   5.069   0.510  10.048  0.2050  1.6178 -1.2165
  135SAPE   C3614654   5.210   0.483   9.899  0.1629  0.0183 -0.3373
  135SAPE   H6X14655   5.244   0.378   9.907 -2.6320 -0.7236  3.5175
  135SAPE   H6Y14656   5.285   0.550   9.853  1.8044 -1.0831  0.7005
  135SAPE   C3714657   5.088   0.479   9.807  0.1382 -0.0660  0.7459
  135SAPE   H7X14658   5.023   0.568   9.816 -0.3118 -0.2910 -0.1699
  135SAPE   H7Y14659   5.022   0.391   9.821 -0.8828  0.4950 -0.4160
  135SAPE   C3814660   5.122   0.462   9.660  0.8154  0.5822 -0.1846
  135SAPE   H8X14661   5.180   0.367   9.658 -0.5040 -0.2511  0.7910
  135SAPE   H8Y14662   5.178   0.554   9.631  1.0449  0.8693  1.1510
  135SAPE   C3914663   5.000   0.435   9.571 -0.4975  0.4147  0.0848
  135SAPE   H9X14664   5.047   0.440   9.471  2.8851  0.2996  1.6017
  135SAPE   H9Y14665   4.926   0.518   9.576  0.5070  1.2583  1.2317
  135SAPE  C31014666   4.943   0.290   9.570  0.3247  0.2162  0.0506
  135SAPE  H10X14667   4.854   0.296   9.503 -0.2326  0.0622  0.7762
  135SAPE  H10Y14668   4.899   0.284   9.672 -2.1824 -3.0783 -1.1135
  135SAPE  C31114669   5.038   0.173   9.535  1.3442 -0.4131 -0.0382
  135SAPE  H11X14670   5.081   0.147   9.634 -1.9093 -1.1777  1.2412
  135SAPE  H11Y14671   5.129   0.214   9.487  0.8513 -1.7396 -2.1871
  135SAPE  C31214672   4.971   0.062   9.446 -0.3427 -0.0187  0.5279
  135SAPE  H12X14673   4.886   0.031   9.510  0.3045 -1.0410  0.9130
  135SAPE  H12Y14674   5.046  -0.020   9.438 -0.1560  0.1379  0.6559
  135SAPE  C31314675   4.912   0.106   9.316 -0.4002  0.0141 -0.2305
  135SAPE  H13X14676   4.986   0.129   9.237  1.0069 -0.6780  0.8523
  135SAPE  H13Y14677   4.851   0.196   9.336  1.6273  1.4993 -0.4950
  135SAPE  C31414678   4.829   0.003   9.246 -0.4394  0.5137  0.5224
  135SAPE  H14X14679   4.737  -0.020   9.303 -0.1371 -0.6398  0.5563
  135SAPE  H14Y14680   4.886  -0.092   9.233 -0.7305  0.4589 -0.4195
  135SAPE  C31514681   4.789   0.062   9.120  0.0642 -0.6449 -0.2796
  135SAPE  H15X14682   4.874   0.105   9.063  0.3904 -0.5909  0.2440
  135SAPE  H15Y14683   4.736   0.156   9.148  0.0019 -1.0290  0.9193
  135SAPE  C31614684   4.702  -0.023   9.022 -0.6549 -0.6950 -0.3083
  135SAPE  H16X14685   4.765  -0.104   8.980  1.2919  1.1453 -1.0546
  135SAPE  H16Y14686   4.663   0.046   8.944 -1.7203  0.9226  1.5987
  135SAPE  C31714687   4.575  -0.085   9.081  0.4003  0.1397  0.7986
  135SAPE  H17X14688   4.494  -0.010   9.095 -0.5366  0.1058 -3.5520
  135SAPE  H17Y14689   4.609  -0.118   9.181 -0.9409 -0.9743  0.9020
  135SAPE  C31814690   4.512  -0.216   9.023 -0.5294 -0.1157 -0.8084
  135SAPE  H18X14691   4.421  -0.235   9.084  1.3831 -1.9567  1.5852
  135SAPE  H18Y14692   4.580  -0.302   9.042 -1.1133 -0.2705  0.7070
  135SAPE  H18Z14693   4.467  -0.207   8.922 -1.7988  1.8709 -0.0851
  136SAPE     N14694   1.253   1.201  10.944  0.0419  0.0409  0.5464
  136SAPE   HN114695   1.173   1.268  10.938  0.7434  1.0142  1.7609
  136SAPE   HN214696   1.253   1.150  11.035 -1.5321 -1.3475 -0.2080
  136SAPE   HN314697   1.328   1.272  10.954  0.3698 -0.5767  2.7949
  136SAPE   C1214698   1.286   1.118  10.824 -0.3998  0.1267 -0.7743
  136SAPE  H12A14699   1.293   1.192  10.741 -0.6183  0.1239 -0.7959
  136SAPE  H12B14700   1.206   1.045  10.801  1.1387 -1.5718 -0.7750
  136SAPE   C1114701   1.425   1.055  10.842 -0.2549  0.0144 -0.5260
  136SAPE  H11A14702   1.503   1.134  10.848  2.3233 -2.4266 -0.8406
  136SAPE  H11B14703   1.453   0.990  10.756 -1.4769  1.1895 -1.8439
  136SAPE     P14704   1.453   0.826  10.965  0.1191  0.0217 -0.0057
  136SAPE   O1314705   1.592   0.790  11.005 -0.8456  0.6058  0.3185
  136SAPE   O1414706   1.346   0.769  11.054 -0.4073 -0.5664  0.6646
  136SAPE   O1214707   1.428   0.984  10.958  0.0732 -0.3615 -0.6906
  136SAPE   O1114708   1.427   0.785  10.821 -0.3035 -0.1968 -0.0293
  136SAPE    C114709   1.477   0.667  10.768 -0.1118  0.0600 -0.1714
  136SAPE    HA14710   1.568   0.705  10.717 -2.2443  1.7769 -2.8305
  136SAPE    HB14711   1.506   0.592  10.844 -0.3847  0.9544  0.8221
  136SAPE    C214712   1.392   0.596  10.666  0.3908 -1.0980  0.0612
  136SAPE    HS14713   1.437   0.497  10.641 -0.5331 -1.2606 -0.9761
  136SAPE   O2114714   1.373   0.678  10.546 -0.1533 -0.4006  0.0220
  136SAPE   C2114715   1.477   0.674  10.458 -0.1108  0.6597 -0.3501
  136SAPE   O2214716   1.585   0.622  10.474  0.6834 -0.2676  0.6964
  136SAPE   C2214717   1.451   0.765  10.339 -0.1650  0.1541  0.0742
  136SAPE   H2R14718   1.532   0.841  10.328 -1.0334  0.7907 -2.1172
  136SAPE   H2S14719   1.450   0.703  10.247  0.9606  0.8157 -0.3969
  136SAPE    C314720   1.262   0.553  10.734  0.2609 -0.1397 -0.0933
  136SAPE    HX14721   1.214   0.635  10.791 -0.6198 -2.2202  2.2745
  136SAPE    HY14722   1.286   0.487  10.820  0.3671 -1.1298 -0.8723
  136SAPE   O3114723   1.175   0.477  10.642 -0.0703  0.5214 -0.1971
  136SAPE   C3114724   1.054   0.536  10.625 -0.0699 -0.3375  0.1418
  136SAPE   O3214725   1.014   0.641  10.681 -0.7422 -0.0278 -0.0806
  136SAPE   C3214726   0.964   0.468  10.530 -0.5948  0.4402 -0.9900
  136SAPE   H2X14727   0.878   0.425  10.586  0.5939 -0.9001 -0.1515
  136SAPE   H2Y14728   1.024   0.385  10.486  0.8223  2.8404 -3.7707
  136SAPE   C2314729   1.313   0.837  10.344  0.5148  0.0550 -0.3949
  136SAPE   H3R14730   1.312   0.886  10.444  0.8214  0.1470 -0.4356
  136SAPE   H3S14731   1.233   0.760  10.346  0.4032  0.2065  2.1880
  136SAPE   C2414732   1.284   0.947  10.232 -0.2239 -0.6629 -0.3183
  136SAPE   H4R14733   1.180   0.981  10.257  0.7995  1.3468  1.4064
  136SAPE   H4S14734   1.280   0.901  10.131  0.0571  0.4008 -0.8240
  136SAPE   C2514735   1.389   1.054  10.242 -0.0511 -0.0951  0.5430
  136SAPE   H5R14736   1.421   1.078  10.344  3.8280  1.1083 -0.8532
  136SAPE   C2614737   1.455   1.119  10.152 -0.5086 -0.0704  0.0969
  136SAPE   H6R14738   1.510   1.210  10.178 -1.4218  0.0728  1.6279
  136SAPE   C2714739   1.440   1.093   9.998  0.4423  0.1197 -0.4222
  136SAPE   H7R14740   1.440   1.191   9.947 -1.4194 -0.2490 -1.1706
  136SAPE   H7S14741   1.340   1.049   9.977  0.0966  1.2426 -1.1535
  136SAPE   C2814742   1.555   1.008   9.942  0.6089 -0.6927  0.1052
  136SAPE   H8R14743   1.628   0.984  10.020  2.3309 -0.6101 -1.4383
  136SAPE   C2914744   1.586   0.979   9.811 -0.4999 -0.2938 -0.7334
  136SAPE   H9R14745   1.670   0.911   9.791 -0.3521 -1.2770  2.9595
  136SAPE  C21014746   1.513   1.021   9.692  0.6046 -0.2393  0.7749
  136SAPE  H10R14747   1.414   1.063   9.720  1.5595  1.0827  2.3082
  136SAPE  H10S14748   1.479   0.932   9.635  0.1646 -0.4132  1.3012
  136SAPE  C21114749   1.584   1.124   9.616  0.0974 -0.3892 -0.4448
  136SAPE  H11R14750   1.608   1.218   9.669  1.0849 -0.4522 -0.7696
  136SAPE  C21214751   1.608   1.130   9.482  0.2131  0.6346 -0.5972
  136SAPE  H12R14752   1.647   1.225   9.441  0.6951  0.6808 -0.0391
  136SAPE  C21314753   1.564   1.018   9.389  0.1259  0.4714 -0.0216
  136SAPE  H13R14754   1.591   0.919   9.430  0.2049 -0.0614 -1.3354
  136SAPE  H13S14755   1.620   1.030   9.293  0.4361  2.9706  0.4184
  136SAPE  C21414756   1.414   1.032   9.362 -1.2077 -0.3730  0.5340
  136SAPE  H14R14757   1.356   1.074   9.445 -0.7811  1.3442 -0.0172
  136SAPE  C21514758   1.359   0.994   9.251  0.2836 -0.3652 -0.7702
  136SAPE  H15R14759   1.251   1.013   9.244  0.5196  1.3593  0.0186
  136SAPE  C21614760   1.425   0.930   9.129 -0.0530  0.4023  0.4805
  136SAPE  H16R14761   1.351   0.859   9.086 -2.3079  0.8506  3.5076
  136SAPE  H16S14762   1.515   0.877   9.166  1.1138  0.8738 -1.5524
  136SAPE  C21714763   1.482   1.017   9.013  0.1811  1.2159  0.3444
  136SAPE  H17R14764   1.582   1.056   9.042  0.0594 -0.1186  2.6930
  136SAPE  H17S14765   1.409   1.097   8.986 -0.9952  0.6999  1.8978
  136SAPE  C21814766   1.500   0.936   8.891 -1.1213 -0.5536  0.0031
  136SAPE  H18R14767   1.526   1.007   8.810  0.6683 -0.7365  0.3940
  136SAPE  H18S14768   1.403   0.892   8.861 -0.9367  0.4166 -2.0810
  136SAPE  C21914769   1.611   0.826   8.907  0.3546 -0.0022  0.2335
  136SAPE  H19R14770   1.568   0.754   8.980 -1.8961  0.3664 -0.6953
  136SAPE  H19S14771   1.704   0.872   8.948 -0.1919  1.1912  0.1487
  136SAPE  C22014772   1.641   0.750   8.776  0.3070 -0.4084 -0.7907
  136SAPE  H20R14773   1.710   0.809   8.712  1.5492  1.5688  2.2643
  136SAPE  H20S14774   1.543   0.737   8.725 -0.1883  1.0402 -0.2290
  136SAPE  H20T14775   1.695   0.655   8.797  1.0699  0.4859  1.5320
  136SAPE   C3314776   0.911   0.548  10.414  0.7498  0.0561  0.5451
  136SAPE   H3X14777   0.881   0.654  10.429  2.7933  0.8385 -0.6102
  136SAPE   H3Y14778   0.818   0.497  10.381  0.5174  0.4140  0.6457
  136SAPE   C3414779   1.018   0.547  10.297  0.0045 -0.5647  0.1157
  136SAPE   H4X14780   1.025   0.450  10.242  1.2878  0.8035 -2.2045
  136SAPE   H4Y14781   1.109   0.574  10.355 -1.0926  1.3759  0.9712
  136SAPE   C3514782   0.995   0.652  10.186 -0.2348  0.6909  0.6341
  136SAPE   H5X14783   1.004   0.759  10.217 -0.2835  0.7263  0.5258
  136SAPE   H5Y14784   0.889   0.629  10.162 -1.1553  1.1190  4.0034
  136SAPE   C3614785   1.081   0.646  10.057 -0.2489 -0.2460 -0.3009
  136SAPE   H6X14786   1.080   0.540  10.023  1.7412  0.0920 -1.4729
  136SAPE   H6Y14787   1.186   0.662  10.089 -0.3908  0.2274 -0.0667
  136SAPE   C3714788   1.048   0.747   9.954 -0.4222 -0.9370 -0.0557
  136SAPE   H7X14789   1.071   0.848   9.994 -1.7276 -0.4224 -0.5996
  136SAPE   H7Y14790   0.939   0.742   9.935 -1.2555  0.3116  3.9435
  136SAPE   C3814791   1.134   0.719   9.832 -0.3280  0.6844  0.4959
  136SAPE   H8X14792   1.141   0.610   9.810 -0.5438  0.9976 -1.1811
  136SAPE   H8Y14793   1.232   0.766   9.855  1.4212 -2.4119 -0.3231
  136SAPE   C3914794   1.071   0.780   9.706  0.1939  0.0784  0.4715
  136SAPE   H9X14795   1.103   0.886   9.717 -0.1857  0.2021  0.4134
  136SAPE   H9Y14796   0.960   0.779   9.699  0.3005 -1.1891 -1.4355
  136SAPE  C31014797   1.121   0.723   9.572  0.7430  0.0488 -0.2470
  136SAPE  H10X14798   1.109   0.613   9.584  1.5686 -0.0010  0.1862
  136SAPE  H10Y14799   1.232   0.731   9.563  0.7429  0.5070  0.1480
  136SAPE  C31114800   1.058   0.787   9.443  0.5795 -0.3476 -0.2827
  136SAPE  H11X14801   1.097   0.891   9.439  0.5938 -0.4197 -2.4963
  136SAPE  H11Y14802   0.949   0.812   9.443  0.1211 -2.2298  0.3293
  136SAPE  C31214803   1.113   0.726   9.314  0.2094  0.3572 -0.0312
  136SAPE  H12X14804   1.083   0.620   9.301  0.4168  0.4113 -1.0702
  136SAPE  H12Y14805   1.222   0.745   9.304  0.2503 -0.0858 -0.4728
  136SAPE  C31314806   1.054   0.797   9.191 -0.7085  0.6418  0.1076
  136SAPE  H13X14807   1.094   0.901   9.185 -0.6500  0.7361  1.9061
  136SAPE  H13Y14808   0.943   0.807   9.194 -0.7671  0.7754 -2.0811
  136SAPE  C31414809   1.093   0.742   9.053  0.3011 -0.3131 -0.2096
  136SAPE  H14X14810   1.028   0.654   9.036  1.5462 -1.0206 -1.3941
  136SAPE  H14Y14811   1.194   0.696   9.056  0.1286 -0.6192  1.1827
  136SAPE  C31514812   1.080   0.833   8.923  0.6428  0.1549 -0.2731
  136SAPE  H15X14813   1.157   0.913   8.934  1.1382 -0.3434 -0.0835
  136SAPE  H15Y14814   0.978   0.877   8.924  0.5419 -0.0963  1.4974
  136SAPE  C31614815   1.099   0.763   8.789  0.1550  0.8016 -0.2960
  136SAPE  H16X14816   1.053   0.662   8.785 -0.1753  0.9973 -2.1364
  136SAPE  H16Y14817   1.207   0.745   8.771 -0.4674 -1.5346 -1.9334
  136SAPE  C31714818   1.040   0.826   8.659  0.4891  0.1696 -0.1367
  136SAPE  H17X14819   0.931   0.805   8.661  0.5886 -0.5742 -1.7030
  136SAPE  H17Y14820   1.089   0.766   8.579 -1.0605  0.0996 -1.0536
  136SAPE  C31814821   1.063   0.972   8.622  0.4941 -0.0500 -0.0490
  136SAPE  H18X14822   1.174   0.974   8.628  0.6105  0.6828 -2.0446
  136SAPE  H18Y14823   1.017   1.038   8.698 -0.3539 -0.6396 -0.0395
  136SAPE  H18Z14824   1.018   0.998   8.523 -1.2983  1.4830  1.1246
  137SAPE     N14825   6.169   3.510  10.824 -0.2643 -0.1742 -0.3505
  137SAPE   HN114826   6.097   3.450  10.869 -0.7333  0.7058  0.0779
  137SAPE   HN214827   6.257   3.457  10.803 -0.4244 -0.9841  0.9365
  137SAPE   HN314828   6.198   3.587  10.887  0.3549 -0.7709  0.1093
  137SAPE   C1214829   6.107   3.568  10.698  0.0389  0.6701 -0.1128
  137SAPE  H12A14830   6.098   3.479  10.631 -1.5842 -0.1004  1.0856
  137SAPE  H12B14831   6.179   3.636  10.648 -0.4198  1.1013 -0.1905
  137SAPE   C1114832   5.973   3.633  10.742 -0.6929  0.2780  0.2062
  137SAPE  H11A14833   5.927   3.672  10.649 -0.2805 -0.4153 -0.2916
  137SAPE  H11B14834   5.993   3.720  10.808  2.1473 -1.9123  2.3802
  137SAPE     P14835   5.760   3.474  10.774 -0.0170  0.2627  0.2451
  137SAPE   O1314836   5.787   3.337  10.731  0.0393  0.2829 -0.4016
  137SAPE   O1414837   5.664   3.494  10.881  0.4872 -0.7954  0.0719
  137SAPE   O1214838   5.897   3.538  10.813 -0.4243  0.1077 -0.5145
  137SAPE   O1114839   5.713   3.568  10.652 -0.4078  0.0739  0.2433
  137SAPE    C114840   5.587   3.547  10.587 -0.3651  0.3909 -0.4086
  137SAPE    HA14841   5.552   3.444  10.608  3.0354 -0.6301  0.6637
  137SAPE    HB14842   5.521   3.624  10.633  0.8328 -0.1827  2.4179
  137SAPE    C214843   5.589   3.581  10.434  0.2894  0.9015  0.2993
  137SAPE    HS14844   5.483   3.593  10.402 -0.2192 -2.1126  0.6698
  137SAPE   O2114845   5.638   3.473  10.355 -0.5087  0.0988  0.3956
  137SAPE   C2114846   5.572   3.359  10.349 -0.6467 -0.2934  0.3746
  137SAPE   O2214847   5.456   3.352  10.376  0.2525 -0.4579  0.8954
  137SAPE   C2214848   5.665   3.247  10.296  0.3147 -1.2178 -0.5698
  137SAPE   H2R14849   5.742   3.296  10.233 -0.0504 -0.4136 -0.3970
  137SAPE   H2S14850   5.699   3.190  10.385  0.7065 -0.6704 -0.3672
  137SAPE    C314851   5.676   3.708  10.405 -0.3020 -0.3063 -0.6189
  137SAPE    HX14852   5.779   3.681  10.437 -1.2337 -2.3646  0.7848
  137SAPE    HY14853   5.639   3.783  10.478 -0.7479  0.6680 -1.8298
  137SAPE   O3114854   5.659   3.752  10.276  0.2132 -0.1426  0.0632
  137SAPE   C3114855   5.749   3.720  10.180  0.1656  0.6059 -0.3007
  137SAPE   O3214856   5.847   3.649  10.205  0.1586 -0.2718  0.7598
  137SAPE   C3214857   5.715   3.760  10.034 -0.3502  0.3778 -0.0710
  137SAPE   H2X14858   5.806   3.810   9.994 -0.2484 -1.0885 -1.7003
  137SAPE   H2Y14859   5.630   3.832  10.036  0.1030  0.9593 -1.4539
  137SAPE   C2314860   5.574   3.151  10.210  0.1788 -0.4899  0.3054
  137SAPE   H3R14861   5.492   3.117  10.278  0.8699 -0.6065  1.0867
  137SAPE   H3S14862   5.634   3.058  10.196 -0.7610 -1.2929  1.4264
  137SAPE   C2414863   5.523   3.209  10.082 -0.5447  0.2022 -0.9087
  137SAPE   H4R14864   5.610   3.252  10.028 -0.5432  1.8226  0.3499
  137SAPE   H4S14865   5.447   3.286  10.107 -0.1669  0.8788 -1.8219
  137SAPE   C2514866   5.453   3.099  10.009  0.1049 -0.8708  0.4637
  137SAPE   H5R14867   5.363   3.061  10.059 -2.1464  0.2048 -2.6739
  137SAPE   C2614868   5.474   3.070   9.882 -0.8784  0.7410  0.3917
  137SAPE   H6R14869   5.418   2.985   9.840  1.8683  0.6368 -3.2218
  137SAPE   C2714870   5.562   3.129   9.777 -0.6736  0.0879  0.0925
  137SAPE   H7R14871   5.597   3.041   9.719  0.8150 -0.7877  2.2464
  137SAPE   H7S14872   5.651   3.173   9.826  0.0148 -0.1732 -0.9116
  137SAPE   C2814873   5.480   3.228   9.704  0.2334 -0.4484  0.3678
  137SAPE   H8R14874   5.461   3.323   9.758  1.3573  0.3059 -0.5395
  137SAPE   C2914875   5.422   3.213   9.584 -0.5903  0.3041  0.0251
  137SAPE   H9R14876   5.368   3.296   9.535  2.2085  1.3071 -1.4452
  137SAPE  C21014877   5.414   3.086   9.505  0.0843  0.0904 -0.7229
  137SAPE  H10R14878   5.332   3.089   9.430 -0.6931 -1.1328  0.0821
  137SAPE  H10S14879   5.383   3.005   9.574  0.9694  3.2318  3.6005
  137SAPE  C21114880   5.524   3.056   9.416  0.0344  0.0597 -0.4765
  137SAPE  H11R14881   5.601   2.992   9.464 -0.8446 -1.1956 -0.7132
  137SAPE  C21214882   5.546   3.085   9.286 -0.3673 -0.5988  0.1278
  137SAPE  H12R14883   5.633   3.034   9.241 -0.0271 -0.7796  0.9903
  137SAPE  C21314884   5.456   3.164   9.188  0.5666  0.0805  0.3090
  137SAPE  H13R14885   5.351   3.148   9.221  0.9453 -0.6156  1.1732
  137SAPE  H13S14886   5.473   3.130   9.084  1.3095 -0.0164  0.4601
  137SAPE  C21414887   5.481   3.313   9.182 -0.5212  0.2831  0.1248
  137SAPE  H14R14888   5.572   3.360   9.222 -1.1044  0.5376  1.1734
  137SAPE  C21514889   5.397   3.400   9.123 -0.4788  0.1078  0.0435
  137SAPE  H15R14890   5.431   3.505   9.124  1.4334 -0.5111  0.3775
  137SAPE  C21614891   5.276   3.368   9.043 -0.3546 -0.3386 -0.3032
  137SAPE  H16R14892   5.183   3.410   9.088  0.2692  1.2049 -0.4045
  137SAPE  H16S14893   5.265   3.258   9.044 -1.6445 -0.2276  1.9317
  137SAPE  C21714894   5.288   3.417   8.901 -0.4403 -0.2492  0.3864
  137SAPE  H17R14895   5.364   3.359   8.844  0.0556  0.2644  0.5180
  137SAPE  H17S14896   5.321   3.523   8.899 -1.0901 -0.0589 -1.3911
  137SAPE  C21814897   5.161   3.412   8.820 -0.0893  0.1328 -0.1708
  137SAPE  H18R14898   5.175   3.484   8.737 -0.2263 -0.0847 -0.3805
  137SAPE  H18S14899   5.067   3.452   8.864 -1.4663 -3.2034 -0.0050
  137SAPE  C21914900   5.138   3.269   8.771 -0.4231  0.2803 -0.0154
  137SAPE  H19R14901   5.115   3.206   8.859 -1.6800 -2.9519 -2.5590
  137SAPE  H19S14902   5.239   3.237   8.736 -1.0284 -1.2533 -0.4179
  137SAPE  C22014903   5.033   3.260   8.660 -0.0154 -0.0761  0.2666
  137SAPE  H20R14904   5.023   3.153   8.634  1.3322 -0.2558  0.4549
  137SAPE  H20S14905   5.067   3.330   8.581  0.9286 -1.9136 -0.9777
  137SAPE  H20T14906   4.932   3.299   8.687 -0.8258 -1.6634 -0.4221
  137SAPE   C3314907   5.673   3.640   9.943 -0.2295 -0.2319  0.1569
  137SAPE   H3X14908   5.576   3.596   9.973 -0.6140 -0.1213 -0.8996
  137SAPE   H3Y14909   5.754   3.564   9.955 -0.5770 -0.6356 -0.0512
  137SAPE   C3414910   5.681   3.691   9.795 -0.2759  1.2266  0.3145
  137SAPE   H4X14911   5.777   3.746   9.797  0.6471 -0.3558 -0.6466
  137SAPE   H4Y14912   5.603   3.766   9.767 -2.1118 -0.5014  0.6486
  137SAPE   C3514913   5.675   3.583   9.688  0.0213  0.6792  0.3884
  137SAPE   H5X14914   5.584   3.519   9.695 -0.1661  1.0388  1.2724
  137SAPE   H5Y14915   5.758   3.510   9.702 -0.6027  0.1679  1.4555
  137SAPE   C3614916   5.698   3.640   9.546 -0.3427 -0.7233 -0.6758
  137SAPE   H6X14917   5.798   3.686   9.528 -0.2698 -0.4380  0.3844
  137SAPE   H6Y14918   5.623   3.722   9.540  0.3554 -0.1246 -1.2813
  137SAPE   C3714919   5.672   3.539   9.432 -0.4571 -0.0873  0.2119
  137SAPE   H7X14920   5.568   3.529   9.397 -0.4190  2.1499 -0.6594
  137SAPE   H7Y14921   5.701   3.438   9.467 -0.1497  0.4793  1.6486
  137SAPE   C3814922   5.759   3.560   9.302  0.6398 -0.1123  0.2598
  137SAPE   H8X14923   5.772   3.460   9.255 -1.7718 -1.0928  1.5584
  137SAPE   H8Y14924   5.857   3.595   9.341  0.9961 -0.6181 -0.1738
  137SAPE   C3914925   5.684   3.644   9.198 -0.3254  0.1069 -0.2384
  137SAPE   H9X14926   5.606   3.697   9.256 -0.2252  1.5902 -1.4277
  137SAPE   H9Y14927   5.642   3.579   9.119  2.0398  0.5655 -1.9346
  137SAPE  C31014928   5.755   3.750   9.104 -0.5327 -0.2224 -0.1924
  137SAPE  H10X14929   5.834   3.789   9.171  0.0948 -0.2532 -0.8978
  137SAPE  H10Y14930   5.695   3.836   9.068 -0.9665 -0.5880 -0.3445
  137SAPE  C31114931   5.833   3.682   8.991 -0.0563  0.3707  0.8141
  137SAPE  H11X14932   5.867   3.588   9.039 -0.2648  1.3488  2.9355
  137SAPE  H11Y14933   5.922   3.748   8.982 -0.8336  1.2598 -0.5371
  137SAPE  C31214934   5.739   3.674   8.867 -0.3245 -0.6953  0.5049
  137SAPE  H12X14935   5.653   3.607   8.889 -0.2540 -0.9599 -0.0062
  137SAPE  H12Y14936   5.797   3.620   8.789 -0.0224  0.5730 -0.1538
  137SAPE  C31314937   5.690   3.805   8.802 -0.1726  0.0659 -0.3431
  137SAPE  H13X14938   5.786   3.851   8.769 -0.1139  0.6821  0.6980
  137SAPE  H13Y14939   5.641   3.870   8.877  0.1894  1.3688 -1.2190
  137SAPE  C31414940   5.588   3.792   8.691  1.0629  0.3255 -0.0693
  137SAPE  H14X14941   5.511   3.719   8.725  1.8562 -0.1943  0.6173
  137SAPE  H14Y14942   5.639   3.751   8.600  2.6175 -0.5202  1.1611
  137SAPE  C31514943   5.521   3.924   8.654  0.0905  0.1838  0.5077
  137SAPE  H15X14944   5.594   4.007   8.644  0.4891 -0.0461  1.4996
  137SAPE  H15Y14945   5.460   3.947   8.744  0.7704 -1.5573  1.4318
  137SAPE  C31614946   5.431   3.914   8.530  0.1674  0.9483 -0.6211
  137SAPE  H16X14947   5.366   3.827   8.552  0.0620  0.3658 -3.1283
  137SAPE  H16Y14948   5.499   3.887   8.447 -0.1673  0.5043 -0.7513
  137SAPE  C31714949   5.359   4.041   8.505 -0.3105  0.6786  0.0007
  137SAPE  H17X14950   5.320   4.071   8.604  1.9797  2.2456  0.4785
  137SAPE  H17Y14951   5.274   4.030   8.435  0.9576 -0.3232 -1.4333
  137SAPE  C31814952   5.456   4.145   8.462 -0.2790  0.8366 -0.3119
  137SAPE  H18X14953   5.510   4.200   8.542  1.5114 -0.8816 -0.3075
  137SAPE  H18Y14954   5.401   4.214   8.395 -0.9980 -0.0914 -0.6968
  137SAPE  H18Z14955   5.529   4.106   8.389 -0.4909  0.2729 -0.2282
  138SAPE     N14956   2.720   4.873  11.175 -0.3958 -0.5074 -0.3872
  138SAPE   HN114957   2.729   4.769  11.174  0.9848 -0.3961 -1.2994
  138SAPE   HN214958   2.785   4.915  11.244 -1.7101 -0.4952  0.8672
  138SAPE   HN314959   2.627   4.897  11.215 -1.2656  0.9285 -3.0854
  138SAPE   C1214960   2.745   4.927  11.037  0.4100  0.4136  0.5657
  138SAPE  H12A14961   2.852   4.954  11.021 -0.9738  4.0351 -3.3013
  138SAPE  H12B14962   2.691   5.024  11.035  0.3130  0.3460 -0.5355
  138SAPE   C1114963   2.690   4.816  10.940 -0.4481 -0.5223 -0.8032
  138SAPE  H11A14964   2.703   4.853  10.836  0.2248 -1.6149 -1.1102
  138SAPE  H11B14965   2.579   4.808  10.950 -0.3612 -0.2565  0.5629
  138SAPE     P14966   2.765   4.584  10.860  0.0958 -0.1635  0.2124
  138SAPE   O1314967   2.883   4.498  10.887 -0.6132  0.1757 -0.4121
  138SAPE   O1414968   2.633   4.521  10.851  0.1190  0.3138  0.3726
  138SAPE   O1214969   2.768   4.698  10.963 -0.1473 -0.1601 -0.2422
  138SAPE   O1114970   2.785   4.664  10.729 -0.4001 -0.0572 -0.3630
  138SAPE    C114971   2.836   4.597  10.615 -0.4936 -0.7219  1.1413
  138SAPE    HA14972   2.939   4.557  10.619 -0.6274 -1.2998 -0.5989
  138SAPE    HB14973   2.773   4.507  10.599  1.4454 -2.6907  4.1378
  138SAPE    C214974   2.831   4.687  10.488  0.1471 -0.0625  0.1818
  138SAPE    HS14975   2.838   4.616  10.402 -2.5075 -1.2452  0.9170
  138SAPE   O2114976   2.946   4.773  10.484 -0.0610 -0.5170 -0.6590
  138SAPE   C2114977   2.963   4.833  10.369 -0.4428 -0.6038 -0.9802
  138SAPE   O2214978   2.908   4.798  10.268 -0.0950 -0.7277  0.0260
  138SAPE   C2214979   3.054   4.960  10.378 -0.1682 -0.1980  0.5466
  138SAPE   H2R14980   3.014   5.012  10.468 -0.1659 -0.3262  0.6216
  138SAPE   H2S14981   3.158   4.925  10.389  0.9643  2.1434 -2.1903
  138SAPE    C314982   2.692   4.758  10.489 -0.4196  0.0878  0.0360
  138SAPE    HX14983   2.665   4.815  10.398 -0.5472  1.0270  0.6564
  138SAPE    HY14984   2.699   4.820  10.581  2.8251 -0.7890  0.4224
  138SAPE   O3114985   2.588   4.659  10.502 -0.1508 -0.2373  0.6034
  138SAPE   C3114986   2.471   4.714  10.542  0.2082 -0.0408  0.3704
  138SAPE   O3214987   2.457   4.829  10.573  0.4627 -0.0731  0.1764
  138SAPE   C3214988   2.362   4.612  10.516  0.6523  0.0191  0.6560
  138SAPE   H2X14989   2.324   4.583  10.617 -0.4460  1.9770  0.8362
  138SAPE   H2Y14990   2.396   4.531  10.448  2.5160 -0.7726  2.4716
  138SAPE   C2314991   3.055   5.051  10.255  0.1209  0.9019 -0.3817
  138SAPE   H3R14992   3.084   5.156  10.276 -1.8504  1.2128  1.0106
  138SAPE   H3S14993   2.960   5.042  10.198  0.2363  0.5252 -0.5146
  138SAPE   C2414994   3.141   4.999  10.137  0.8510  0.5819  0.1199
  138SAPE   H4R14995   3.129   4.890  10.126 -0.9975  0.8099 -0.2806
  138SAPE   H4S14996   3.248   5.007  10.166  2.0610 -0.1541 -3.7915
  138SAPE   C2514997   3.122   5.082  10.013 -0.0662  0.8403  0.9809
  138SAPE   H5R14998   3.164   5.183  10.015 -0.9675  1.3143 -1.7398
  138SAPE   C2614999   3.057   5.044   9.909 -0.6779  0.5189  0.4693
  138SAPE   H6R15000   3.062   5.100   9.814  0.0013  2.1334  1.4472
  138SAPE   C2715001   2.989   4.910   9.892  0.6990 -0.3264 -0.1173
  138SAPE   H7R15002   2.983   4.851   9.986  0.1157 -0.3715 -0.1795
  138SAPE   H7S15003   3.033   4.853   9.808 -0.3811  0.5149 -1.2952
  138SAPE   C2815004   2.843   4.947   9.877 -0.4162  0.2535  0.0910
  138SAPE   H8R15005   2.782   4.961   9.968 -0.1152  1.6628  0.0950
  138SAPE   C2915006   2.773   4.961   9.756  0.1209  1.1873 -0.6158
  138SAPE   H9R15007   2.663   4.961   9.759  0.0994 -0.8495 -0.9327
  138SAPE  C21015008   2.836   4.935   9.619 -0.0096 -0.4920 -0.6669
  138SAPE  H10R15009   2.937   4.982   9.622 -0.0895 -0.4298  2.2815
  138SAPE  H10S15010   2.764   4.979   9.546 -0.6096  0.8274  0.7075
  138SAPE  C21115011   2.841   4.782   9.595 -0.1778  0.6064 -1.1684
  138SAPE  H11R15012   2.824   4.723   9.687 -3.0713  1.9126 -0.8378
  138SAPE  C21215013   2.883   4.730   9.477  0.0037  0.0007 -0.0932
  138SAPE  H12R15014   2.887   4.621   9.458  1.4186  0.2558 -1.2522
  138SAPE  C21315015   2.923   4.820   9.359  0.5429 -0.4610 -0.3381
  138SAPE  H13R15016   2.955   4.921   9.392  0.6234 -0.7519  0.4806
  138SAPE  H13S15017   2.830   4.843   9.302 -0.1903 -0.5831  0.7857
  138SAPE  C21415018   3.030   4.769   9.264 -0.5343  0.2460 -0.2911
  138SAPE  H14R15019   3.132   4.809   9.264  0.4452 -2.2046 -0.5769
  138SAPE  C21515020   3.026   4.662   9.184 -0.5359 -0.2728  0.3019
  138SAPE  H15R15021   3.114   4.635   9.123  0.0567  1.1275  0.5085
  138SAPE  C21615022   2.908   4.574   9.173 -0.5100 -0.2211  0.0685
  138SAPE  H16R15023   2.813   4.624   9.202 -0.7589  0.0087 -1.1179
  138SAPE  H16S15024   2.917   4.481   9.233  1.3928 -0.2139 -0.1705
  138SAPE  C21715025   2.888   4.525   9.032  0.4538 -0.1681  0.3877
  138SAPE  H17R15026   2.812   4.444   9.027 -0.3012  0.6776 -3.6691
  138SAPE  H17S15027   2.983   4.490   8.986 -0.5853 -0.1686 -1.8017
  138SAPE  C21815028   2.837   4.644   8.952  1.2190  0.3491 -0.1352
  138SAPE  H18R15029   2.900   4.736   8.951  1.9652 -0.0995  2.2498
  138SAPE  H18S15030   2.738   4.674   8.993  1.6309  1.2188  0.2423
  138SAPE  C21915031   2.806   4.598   8.811  0.4407  0.1316 -0.0927
  138SAPE  H19R15032   2.737   4.667   8.757  0.2053 -0.9347 -1.1570
  138SAPE  H19S15033   2.742   4.507   8.814  1.2454 -0.3886  3.0021
  138SAPE  C22015034   2.933   4.558   8.730 -0.1501  0.1163  0.6658
  138SAPE  H20R15035   2.977   4.650   8.687  0.9169 -1.2712 -1.3427
  138SAPE  H20S15036   2.911   4.501   8.637  2.9421  0.8375 -0.5711
  138SAPE  H20T15037   3.004   4.504   8.796 -1.2513 -1.5373  0.5297
  138SAPE   C3315038   2.234   4.672  10.457  0.7880 -0.0201 -0.5389
  138SAPE   H3X15039   2.183   4.738  10.530 -1.8141  1.1907 -3.3505
  138SAPE   H3Y15040   2.169   4.586  10.430 -0.4452 -0.0503  2.3279
  138SAPE   C3415041   2.263   4.741  10.321  0.2626 -0.6980  0.8374
  138SAPE   H4X15042   2.331   4.828  10.332  0.2552 -0.7249  1.1137
  138SAPE   H4Y15043   2.168   4.785  10.284  0.8607 -0.2176 -0.1695
  138SAPE   C3515044   2.311   4.646  10.204 -0.6628 -0.3049  0.1142
  138SAPE   H5X15045   2.242   4.561  10.186 -2.7620  1.3474  0.1536
  138SAPE   H5Y15046   2.407   4.604  10.239 -0.4396 -0.3008 -0.4808
  138SAPE   C3615047   2.353   4.737  10.083  0.2184 -0.2151  0.0320
  138SAPE   H6X15048   2.458   4.769  10.102  0.3831  0.6886 -2.2535
  138SAPE   H6Y15049   2.288   4.827  10.077 -1.0181 -1.1420 -0.6785
  138SAPE   C3715050   2.351   4.652   9.960 -1.1624  0.3715  0.2626
  138SAPE   H7X15051   2.253   4.601   9.949 -1.2967  0.0668  2.6330
  138SAPE   H7Y15052   2.432   4.576   9.956 -2.3979 -0.8912 -2.4695
  138SAPE   C3815053   2.369   4.742   9.834 -0.0017  0.0621 -0.1610
  138SAPE   H8X15054   2.466   4.793   9.854 -0.1234  0.4250 -0.5088
  138SAPE   H8Y15055   2.291   4.820   9.830  3.2820  3.5531  0.7236
  138SAPE   C3915056   2.353   4.659   9.702  0.1951 -0.5778  0.1146
  138SAPE   H9X15057   2.249   4.620   9.705 -0.3790  1.0444  1.8342
  138SAPE   H9Y15058   2.426   4.575   9.695  2.4873  1.3854 -0.0638
  138SAPE  C31015059   2.366   4.753   9.577  0.3881 -0.4935 -0.1869
  138SAPE  H10X15060   2.461   4.810   9.586  0.7796 -0.8602 -1.8136
  138SAPE  H10Y15061   2.279   4.822   9.584  1.9070  1.2807  1.8951
  138SAPE  C31115062   2.380   4.681   9.442 -0.0446  0.2610 -0.2001
  138SAPE  H11X15063   2.292   4.618   9.417  0.5588 -0.4143 -0.6548
  138SAPE  H11Y15064   2.462   4.606   9.454 -0.7096 -0.7633 -1.9355
  138SAPE  C31215065   2.408   4.773   9.323  0.2603 -0.1806 -0.0450
  138SAPE  H12X15066   2.487   4.848   9.344  1.8458 -1.2846 -1.8672
  138SAPE  H12Y15067   2.314   4.830   9.309 -0.4236 -1.1856  0.4057
  138SAPE  C31315068   2.447   4.696   9.193  0.1454  0.0880  0.6443
  138SAPE  H13X15069   2.371   4.617   9.178 -0.5402  0.6359  1.1714
  138SAPE  H13Y15070   2.541   4.638   9.202  0.5425  0.7429  0.7238
  138SAPE  C31415071   2.451   4.789   9.071 -0.5564 -0.4177 -0.0427
  138SAPE  H14X15072   2.347   4.814   9.041  0.2336  2.3091 -0.6509
  138SAPE  H14Y15073   2.506   4.741   8.987 -2.6023  1.8621 -2.7665
  138SAPE  C31515074   2.532   4.922   9.094 -0.4705 -0.1774  0.0775
  138SAPE  H15X15075   2.637   4.891   9.112  0.2376  1.3415 -1.3134
  138SAPE  H15Y15076   2.484   4.975   9.179 -1.0219 -1.4899  0.5951
  138SAPE  C31615077   2.503   5.018   8.985  0.1622 -0.2617  0.3840
  138SAPE  H16X15078   2.560   5.111   9.007  1.2145 -0.6669 -0.5830
  138SAPE  H16Y15079   2.394   5.040   8.989  0.0089 -1.0066  0.3024
  138SAPE  C31715080   2.542   4.987   8.840 -0.5025  0.0100  0.2432
  138SAPE  H17X15081   2.504   5.065   8.770  1.0853  1.0539  0.5141
  138SAPE  H17Y15082   2.488   4.892   8.823  0.0529 -0.4830  1.1808
  138SAPE  C31815083   2.692   4.955   8.841 -0.6275  0.4747  0.4595
  138SAPE  H18X15084   2.722   4.877   8.915  0.2985 -0.1298 -0.5399
  138SAPE  H18Y15085   2.744   5.045   8.880  1.7550  0.2022 -1.9056
  138SAPE  H18Z15086   2.741   4.929   8.744 -2.4624 -0.8896 -0.1263
  139SAPE     N15087   2.494   3.219  10.812 -0.1218 -0.0569 -0.0690
  139SAPE   HN115088   2.462   3.171  10.899 -0.4398 -1.3258 -0.8745
  139SAPE   HN215089   2.594   3.196  10.796  0.5303  2.2128  0.5648
  139SAPE   HN315090   2.493   3.323  10.804 -0.0162 -0.1436 -1.3883
  139SAPE   C1215091   2.405   3.165  10.701  0.0205  0.3133 -0.3737
  139SAPE  H12A15092   2.456   3.189  10.606 -0.0158  1.0849 -0.2079
  139SAPE  H12B15093   2.304   3.211  10.698  0.7884  2.0459 -0.4985
  139SAPE   C1115094   2.370   3.017  10.741  0.4348 -1.0838  0.6524
  139SAPE  H11A15095   2.277   2.987  10.688  0.3562  0.3339 -0.0407
  139SAPE  H11B15096   2.346   3.017  10.849 -0.7979  1.5832  0.4293
  139SAPE     P15097   2.471   2.774  10.767 -0.2302  0.0308 -0.0169
  139SAPE   O1315098   2.567   2.702  10.679  0.4974 -0.2498 -0.3459
  139SAPE   O1415099   2.505   2.788  10.913 -0.0026  0.7500  0.3224
  139SAPE   O1215100   2.474   2.921  10.708  0.9680  0.0917 -0.6249
  139SAPE   O1115101   2.319   2.735  10.735  0.1071 -0.1591  0.3694
  139SAPE    C115102   2.293   2.645  10.621 -0.0325  0.3933  0.6772
  139SAPE    HA15103   2.361   2.558  10.630 -0.6776 -0.1338  0.4865
  139SAPE    HB15104   2.190   2.602  10.625  0.2022 -0.3789 -1.0303
  139SAPE    C215105   2.314   2.714  10.477  0.0511 -0.0374  0.0072
  139SAPE    HS15106   2.418   2.752  10.487 -1.0776  2.7772  1.6416
  139SAPE   O2115107   2.219   2.813  10.463  0.9238  0.2695 -0.3853
  139SAPE   C2115108   2.252   2.897  10.368  0.7457 -0.1342 -0.2943
  139SAPE   O2215109   2.356   2.901  10.308 -0.2423 -0.5204 -0.3732
  139SAPE   C2215110   2.134   2.997  10.353  0.1804  0.6260  0.0381
  139SAPE   H2R15111   2.062   2.947  10.284  1.2634 -1.4544  0.3788
  139SAPE   H2S15112   2.099   3.015  10.457  0.9475 -1.0498  0.6188
  139SAPE    C315113   2.305   2.599  10.362 -0.7849 -0.8096  0.5704
  139SAPE    HX15114   2.384   2.521  10.369  0.0102  0.1843  3.0220
  139SAPE    HY15115   2.320   2.658  10.269 -1.5945  1.1913  1.6900
  139SAPE   O3115116   2.165   2.550  10.370 -0.2109 -0.2476  0.0903
  139SAPE   C3115117   2.149   2.426  10.414 -0.3147  0.0894  0.9263
  139SAPE   O3215118   2.237   2.351  10.449  0.2091  1.0387 -0.3980
  139SAPE   C3215119   1.999   2.393  10.388 -0.6127 -0.3105 -0.1345
  139SAPE   H2X15120   1.937   2.453  10.458 -1.1544 -0.7739 -0.2227
  139SAPE   H2Y15121   1.993   2.287  10.420  2.8110 -0.6972 -0.5179
  139SAPE   C2315122   2.191   3.134  10.291  0.0782  0.3925 -1.2596
  139SAPE   H3R15123   2.275   3.116  10.221  2.2487 -0.8328  1.5679
  139SAPE   H3S15124   2.236   3.185  10.379 -0.1355 -1.1730 -0.2294
  139SAPE   C2415125   2.086   3.222  10.207  0.6558 -0.3508 -0.7065
  139SAPE   H4R15126   2.139   3.316  10.180 -1.1964  1.3274  1.2342
  139SAPE   H4S15127   2.004   3.254  10.275  1.4021  0.3269 -0.1186
  139SAPE   C2515128   2.033   3.132  10.088 -0.2406 -0.0633 -0.1916
  139SAPE   H5R15129   1.937   3.079  10.100  0.2970 -1.3815 -1.5962
  139SAPE   C2615130   2.105   3.118   9.977  0.1011 -0.7051  0.0152
  139SAPE   H6R15131   2.073   3.051   9.896 -1.2631  0.5350 -0.4996
  139SAPE   C2715132   2.232   3.185   9.947  0.0174  0.1270  0.1404
  139SAPE   H7R15133   2.309   3.108   9.927 -1.0383 -0.7257 -0.7046
  139SAPE   H7S15134   2.273   3.242  10.033 -1.0883 -1.8107  2.0027
  139SAPE   C2815135   2.219   3.279   9.831 -0.4724 -0.6773  0.8407
  139SAPE   H8R15136   2.157   3.369   9.844  1.3739  0.7593 -0.1403
  139SAPE   C2915137   2.268   3.264   9.704 -0.2764  0.1180 -0.0856
  139SAPE   H9R15138   2.235   3.337   9.629  0.8707 -0.1383 -0.8428
  139SAPE  C21015139   2.349   3.152   9.652 -0.0483 -0.1704 -0.4526
  139SAPE  H10R15140   2.390   3.082   9.728 -1.1040 -0.7252 -0.3934
  139SAPE  H10S15141   2.436   3.215   9.623 -0.9584  0.5821 -1.6069
  139SAPE  C21115142   2.283   3.063   9.549  0.2179 -0.2096 -0.4412
  139SAPE  H11R15143   2.308   2.960   9.579  4.1302  0.9178  0.3896
  139SAPE  C21215144   2.212   3.089   9.440  0.4723 -0.8261  0.1803
  139SAPE  H12R15145   2.180   3.004   9.378 -1.4642 -0.4929  0.6825
  139SAPE  C21315146   2.200   3.232   9.382  0.2964  0.4690 -0.4041
  139SAPE  H13R15147   2.141   3.291   9.455  1.6685 -0.5215  1.5810
  139SAPE  H13S15148   2.147   3.218   9.286  1.6325  1.9426 -1.3748
  139SAPE  C21415149   2.332   3.294   9.352 -0.0817 -0.4111  0.0817
  139SAPE  H14R15150   2.423   3.238   9.377 -0.5422 -0.5100  1.5921
  139SAPE  C21515151   2.351   3.422   9.325  0.1081  0.1433  0.4715
  139SAPE  H15R15152   2.445   3.462   9.282 -1.2386  2.4345 -0.4250
  139SAPE  C21615153   2.235   3.518   9.301 -0.4737  0.3526  1.2363
  139SAPE  H16R15154   2.143   3.463   9.272  1.9380 -1.9489 -2.4255
  139SAPE  H16S15155   2.258   3.580   9.212  0.5781 -0.6535  0.7898
  139SAPE  C21715156   2.208   3.605   9.432 -0.4780  0.8630 -0.3558
  139SAPE  H17R15157   2.306   3.640   9.472  0.0991 -1.2407  0.1376
  139SAPE  H17S15158   2.171   3.532   9.506 -0.5026  3.0291  1.8625
  139SAPE  C21815159   2.125   3.727   9.417  0.7021  0.2093 -0.0117
  139SAPE  H18R15160   2.023   3.694   9.387  1.1773 -1.0660 -0.2614
  139SAPE  H18S15161   2.154   3.796   9.334 -0.7858 -1.1110 -1.6760
  139SAPE  C21915162   2.127   3.814   9.542  0.2709  0.2455  0.3922
  139SAPE  H19R15163   2.066   3.901   9.511  0.9117  1.3723  2.2159
  139SAPE  H19S15164   2.233   3.849   9.547  0.7495 -1.4254  2.6749
  139SAPE  C22015165   2.077   3.760   9.679  0.0355 -0.5566  0.0846
  139SAPE  H20R15166   2.069   3.847   9.748 -0.3105  0.5639 -1.3456
  139SAPE  H20S15167   2.160   3.703   9.726  1.7639  2.7512  1.2208
  139SAPE  H20T15168   1.975   3.716   9.674  0.2522 -1.1890  1.0390
  139SAPE   C3315169   1.965   2.402  10.239 -0.8683  0.1764 -0.3575
  139SAPE   H3X15170   1.987   2.508  10.214  1.5245 -0.3301 -0.4734
  139SAPE   H3Y15171   1.855   2.398  10.223 -0.8451  0.3266 -0.5635
  139SAPE   C3415172   2.040   2.309  10.136  0.5836 -0.2092 -0.0842
  139SAPE   H4X15173   2.038   2.209  10.184 -2.6643  1.0485  2.5706
  139SAPE   H4Y15174   2.140   2.356  10.143 -0.2268  1.4855  0.2518
  139SAPE   C3515175   1.984   2.316   9.989  0.4509  0.4683 -0.2287
  139SAPE   H5X15176   1.987   2.425   9.967  3.0222  0.1623 -1.4995
  139SAPE   H5Y15177   1.880   2.275   9.981 -0.4392  2.5682  0.2826
  139SAPE   C3615178   2.077   2.237   9.894 -0.1074  0.0238 -0.7304
  139SAPE   H6X15179   2.088   2.132   9.928 -0.4364  0.7779  1.8643
  139SAPE   H6Y15180   2.180   2.280   9.902  0.3845 -1.3692  0.6782
  139SAPE   C3715181   2.044   2.253   9.743 -0.0216 -0.0547 -0.1525
  139SAPE   H7X15182   2.127   2.206   9.688  1.5964  2.8295 -0.2759
  139SAPE   H7Y15183   2.042   2.363   9.729  1.2196  0.0900  0.7601
  139SAPE   C3815184   1.904   2.212   9.703 -0.1025 -0.4099  0.5346
  139SAPE   H8X15185   1.831   2.279   9.753  0.4878  1.2306 -0.7523
  139SAPE   H8Y15186   1.900   2.107   9.736 -2.4825 -0.4424  0.1929
  139SAPE   C3915187   1.873   2.210   9.544  0.6627  0.3611  0.4697
  139SAPE   H9X15188   1.772   2.164   9.536  0.3909  1.0180  0.0582
  139SAPE   H9Y15189   1.958   2.158   9.495 -0.2321  1.8860 -2.8168
  139SAPE  C31015190   1.875   2.350   9.486 -0.8638 -0.4938  0.5060
  139SAPE  H10X15191   1.979   2.389   9.485 -1.4358  1.0476  1.1435
  139SAPE  H10Y15192   1.811   2.417   9.548  0.3597 -0.0982  1.3665
  139SAPE  C31115193   1.824   2.359   9.342 -0.2586  0.2805  0.2711
  139SAPE  H11X15194   1.730   2.299   9.347  0.0971 -0.0833  3.6227
  139SAPE  H11Y15195   1.888   2.309   9.267  1.4608  0.8131  1.3566
  139SAPE  C31215196   1.791   2.494   9.289 -0.2195  0.1578 -0.1471
  139SAPE  H12X15197   1.879   2.558   9.264  1.2512 -1.8356 -0.1491
  139SAPE  H12Y15198   1.730   2.551   9.362 -1.3674  0.6301 -1.4355
  139SAPE  C31315199   1.708   2.486   9.163  0.5055 -0.6161 -0.0652
  139SAPE  H13X15200   1.621   2.430   9.204  1.3668 -0.7075  1.6884
  139SAPE  H13Y15201   1.764   2.424   9.089  1.6112  1.1056 -0.7129
  139SAPE  C31415202   1.669   2.627   9.106  0.1526 -0.1086  0.5372
  139SAPE  H14X15203   1.763   2.675   9.072 -1.0879  2.3412  0.4774
  139SAPE  H14Y15204   1.626   2.688   9.188 -2.9090 -2.1320  0.5156
  139SAPE  C31515205   1.563   2.627   8.994 -0.1632  0.9708 -0.0321
  139SAPE  H15X15206   1.544   2.730   8.956 -0.3734  1.6348  1.7987
  139SAPE  H15Y15207   1.461   2.601   9.032 -0.0862  0.1530 -0.3834
  139SAPE  C31615208   1.617   2.520   8.892 -1.2028 -0.0348  0.1158
  139SAPE  H16X15209   1.718   2.545   8.854  0.4892 -0.5639  4.0040
  139SAPE  H16Y15210   1.611   2.423   8.946  1.5600 -0.0152  0.5487
  139SAPE  C31715211   1.520   2.499   8.773  0.5741 -0.1283 -0.1988
  139SAPE  H17X15212   1.534   2.592   8.714  0.0555 -0.9215 -1.5829
  139SAPE  H17Y15213   1.417   2.492   8.814  0.7974 -0.4031  0.3194
  139SAPE  C31815214   1.542   2.367   8.698 -0.1325 -0.5325  0.1267
  139SAPE  H18X15215   1.573   2.391   8.594  0.2577 -1.0604  0.1180
  139SAPE  H18Y15216   1.450   2.306   8.713 -0.3930  0.3210  2.1354
  139SAPE  H18Z15217   1.621   2.301   8.741 -0.7098 -0.2915  1.5983
  140SAPE     N15218   5.783   6.499  11.126  0.2847  0.5532  0.3814
  140SAPE   HN115219   5.745   6.561  11.052 -0.3574  1.4626  1.4668
  140SAPE   HN215220   5.749   6.544  11.214 -1.0313 -0.7569  0.5635
  140SAPE   HN315221   5.887   6.494  11.120  0.2844 -0.0646  0.7878
  140SAPE   C1215222   5.727   6.357  11.098  0.1734 -0.3626  0.5039
  140SAPE  H12A15223   5.765   6.290  11.179  1.9073 -0.5560 -0.4611
  140SAPE  H12B15224   5.776   6.323  11.004  0.3040 -0.0468  0.4589
  140SAPE   C1115225   5.568   6.346  11.087 -0.2953 -0.4334  0.3541
  140SAPE  H11A15226   5.537   6.355  11.193 -1.2896 -0.7656  0.0964
  140SAPE  H11B15227   5.544   6.245  11.047 -0.9871 -0.6547  1.3368
  140SAPE     P15228   5.382   6.429  10.917 -0.2133  0.0063  0.0873
  140SAPE   O1315229   5.319   6.294  10.919  0.2162 -0.0708 -0.3770
  140SAPE   O1415230   5.281   6.531  10.952 -0.5379  0.0766  0.1302
  140SAPE   O1215231   5.511   6.448  11.006  0.5012  0.0430 -0.1656
  140SAPE   O1115232   5.450   6.461  10.780 -0.2818 -0.5636  0.6544
  140SAPE    C115233   5.580   6.421  10.738  0.0084  0.0140  0.4924
  140SAPE    HA15234   5.660   6.483  10.783  1.2784 -2.1258  1.2420
  140SAPE    HB15235   5.595   6.316  10.771  0.5377  0.7802  2.7587
  140SAPE    C215236   5.597   6.439  10.583  0.0331  0.6445 -0.5278
  140SAPE    HS15237   5.685   6.382  10.546 -0.4949 -0.0019 -0.8141
  140SAPE   O2115238   5.600   6.579  10.550  0.2502  0.1171 -0.5965
  140SAPE   C2115239   5.725   6.629  10.555  0.1140 -0.0333  0.5701
  140SAPE   O2215240   5.823   6.568  10.586 -0.3285 -0.5812  0.0546
  140SAPE   C2215241   5.722   6.769  10.490  0.0097  0.4042 -0.3833
  140SAPE   H2R15242   5.750   6.842  10.569 -0.0624  2.6653 -2.3664
  140SAPE   H2S15243   5.803   6.757  10.415  1.5978 -3.3247  1.7911
  140SAPE    C315244   5.477   6.378  10.499 -0.1586 -0.5517  0.1064
  140SAPE    HX15245   5.380   6.432  10.510 -0.5937 -0.9976 -1.4328
  140SAPE    HY15246   5.469   6.273  10.533  0.2022 -1.1261 -1.5315
  140SAPE   O3115247   5.495   6.380  10.353  0.5045 -0.7235 -0.7189
  140SAPE   C3115248   5.580   6.296  10.311  0.6994 -0.0644  0.1257
  140SAPE   O3215249   5.644   6.215  10.376 -0.6821 -0.2047  0.1945
  140SAPE   C3215250   5.575   6.303  10.162 -0.3237  0.8799 -0.1926
  140SAPE   H2X15251   5.591   6.408  10.129 -3.1822  1.3661 -0.1919
  140SAPE   H2Y15252   5.476   6.262  10.131  0.6307 -0.7992 -1.0834
  140SAPE   C2315253   5.590   6.814  10.432  1.0255  0.5998  1.0871
  140SAPE   H3R15254   5.594   6.925  10.435  2.8072  0.5273  1.7265
  140SAPE   H3S15255   5.506   6.788  10.499 -0.7199  1.0462 -0.8664
  140SAPE   C2415256   5.549   6.769  10.293 -0.6885 -0.2301 -0.2380
  140SAPE   H4R15257   5.444   6.802  10.277 -0.6185  1.1782  1.9714
  140SAPE   H4S15258   5.539   6.658  10.304 -0.6702 -0.2424 -0.3454
  140SAPE   C2515259   5.642   6.812  10.184  0.1961  0.1628 -0.5366
  140SAPE   H5R15260   5.744   6.829  10.222  0.1328 -2.2264  0.7257
  140SAPE   C2615261   5.596   6.823  10.058 -0.1138 -1.0546 -0.3895
  140SAPE   H6R15262   5.674   6.848   9.984 -1.3246  3.4631 -0.3071
  140SAPE   C2715263   5.458   6.798   9.999  0.2030  0.0851 -0.6339
  140SAPE   H7R15264   5.459   6.831   9.893  0.0005 -0.5224 -0.8245
  140SAPE   H7S15265   5.381   6.856  10.055  0.4863 -0.8187  0.7017
  140SAPE   C2815266   5.412   6.660  10.003 -0.8598 -0.1804  0.4733
  140SAPE   H8R15267   5.382   6.623  10.102  1.0384 -1.2703  0.6717
  140SAPE   C2915268   5.410   6.571   9.908 -0.1071 -0.0896  0.7545
  140SAPE   H9R15269   5.376   6.467   9.924 -2.1588  0.2053 -1.4699
  140SAPE  C21015270   5.451   6.598   9.763  0.3827 -0.5912 -0.3822
  140SAPE  H10R15271   5.515   6.515   9.725 -0.8778 -1.4758 -0.6412
  140SAPE  H10S15272   5.522   6.683   9.767 -2.4847  1.9189 -0.7241
  140SAPE  C21115273   5.343   6.652   9.679 -0.7887  0.1179  0.2510
  140SAPE  H11R15274   5.255   6.702   9.721 -1.3214 -0.9450  0.4100
  140SAPE  C21215275   5.343   6.643   9.544  0.1489 -0.4903 -0.0375
  140SAPE  H12R15276   5.252   6.680   9.494 -0.3006 -0.4231  0.8221
  140SAPE  C21315277   5.451   6.581   9.462 -0.1259 -0.6755  0.4128
  140SAPE  H13R15278   5.518   6.516   9.523 -1.2987 -1.5863  0.7483
  140SAPE  H13S15279   5.506   6.657   9.402  0.0498  0.5776  2.1210
  140SAPE  C21415280   5.404   6.487   9.355 -0.4627  0.0337 -0.0108
  140SAPE  H14R15281   5.396   6.380   9.380 -2.0186  0.3228  0.7473
  140SAPE  C21515282   5.354   6.527   9.233  0.1508  0.1492  0.0943
  140SAPE  H15R15283   5.326   6.455   9.154 -2.3756 -0.9071  1.8959
  140SAPE  C21615284   5.323   6.665   9.178  0.2869 -0.1588  0.3803
  140SAPE  H16R15285   5.415   6.692   9.121 -0.0811  3.6474  1.4273
  140SAPE  H16S15286   5.327   6.732   9.266  0.5235  0.1598  0.1301
  140SAPE  C21715287   5.189   6.679   9.100  0.3754  0.2964  0.3107
  140SAPE  H17R15288   5.162   6.786   9.092  0.4971  0.6219  3.5938
  140SAPE  H17S15289   5.103   6.643   9.160  0.7819 -0.9467  0.1706
  140SAPE  C21815290   5.199   6.621   8.961  0.1272 -0.1999  0.3561
  140SAPE  H18R15291   5.207   6.511   8.970 -1.5382 -0.3213  0.4695
  140SAPE  H18S15292   5.300   6.657   8.930  1.2114 -1.6620  2.0590
  140SAPE  C21915293   5.092   6.662   8.864 -0.2865 -0.7219  0.4311
  140SAPE  H19R15294   5.083   6.773   8.866 -0.0944 -0.6288 -1.9613
  140SAPE  H19S15295   4.991   6.621   8.884 -1.4685  0.9074 -1.9164
  140SAPE  C22015296   5.130   6.627   8.721 -0.1667  0.8344  0.4456
  140SAPE  H20R15297   5.232   6.659   8.690 -0.3430  0.7989 -0.1725
  140SAPE  H20S15298   5.062   6.682   8.653 -0.2541  0.6355  0.3726
  140SAPE  H20T15299   5.133   6.520   8.688 -0.3968  1.6082 -2.1800
  140SAPE   C3315300   5.674   6.214  10.086 -0.7785 -0.6143 -0.2458
  140SAPE   H3X15301   5.655   6.110  10.120 -0.8272  0.0035  1.6781
  140SAPE   H3Y15302   5.768   6.261  10.121 -0.4739  0.1101 -1.9845
  140SAPE   C3415303   5.672   6.216   9.933  0.2355  0.5064  0.0702
  140SAPE   H4X15304   5.670   6.323   9.905  0.4143  0.4655 -0.0941
  140SAPE   H4Y15305   5.573   6.168   9.915 -1.0008  2.5726  1.0827
  140SAPE   C3515306   5.781   6.129   9.857  0.8185  0.3577 -0.0837
  140SAPE   H5X15307   5.800   6.039   9.920 -0.0662  0.5688  0.5000
  140SAPE   H5Y15308   5.872   6.192   9.857  0.2071  1.2570  0.5619
  140SAPE   C3615309   5.732   6.084   9.719  0.6845  0.0616  0.0454
  140SAPE   H6X15310   5.625   6.058   9.705 -0.6590  4.0079  2.0877
  140SAPE   H6Y15311   5.789   6.000   9.673 -0.5885 -0.9714  0.3373
  140SAPE   C3715312   5.737   6.207   9.624  0.0302  0.2160  0.0755
  140SAPE   H7X15313   5.830   6.263   9.649 -0.3314  0.8261  0.0657
  140SAPE   H7Y15314   5.647   6.271   9.637 -0.1320  0.0424 -0.1934
  140SAPE   C3815315   5.747   6.162   9.478  0.4790 -0.5377 -0.2650
  140SAPE   H8X15316   5.663   6.101   9.439  0.6790  0.1125 -1.7400
  140SAPE   H8Y15317   5.833   6.092   9.478  0.6173 -0.3815  1.1240
  140SAPE   C3915318   5.781   6.272   9.383  0.7452  0.7884  0.3238
  140SAPE   H9X15319   5.864   6.325   9.433  2.5042 -1.4839 -0.0857
  140SAPE   H9Y15320   5.701   6.346   9.359 -0.3349 -0.6622 -0.7111
  140SAPE  C31015321   5.832   6.220   9.247 -0.1776  0.7827  1.0440
  140SAPE  H10X15322   5.929   6.170   9.266 -0.7915 -2.2210 -3.0478
  140SAPE  H10Y15323   5.842   6.311   9.183  2.8174  0.3527  0.8250
  140SAPE  C31115324   5.751   6.118   9.163  0.2170  0.1924 -0.3673
  140SAPE  H11X15325   5.740   6.032   9.232  0.7315  0.0092 -0.5125
  140SAPE  H11Y15326   5.810   6.072   9.081  1.3765  2.0188 -0.5988
  140SAPE  C31215327   5.620   6.184   9.100 -0.1111 -0.0069  0.3375
  140SAPE  H12X15328   5.547   6.226   9.173 -0.9929  2.3773 -1.8585
  140SAPE  H12Y15329   5.567   6.090   9.072  0.5396 -0.8742  1.8897
  140SAPE  C31315330   5.636   6.277   8.981 -0.0020 -0.6073  0.2701
  140SAPE  H13X15331   5.703   6.221   8.913  0.2170 -2.7472  2.1822
  140SAPE  H13Y15332   5.677   6.374   9.015 -1.3444  0.8177 -2.0592
  140SAPE  C31415333   5.494   6.300   8.910 -0.1098  0.4840 -0.2889
  140SAPE  H14X15334   5.433   6.351   8.988 -1.7831 -1.7290 -0.0737
  140SAPE  H14Y15335   5.447   6.201   8.887  0.1624  0.9122 -2.8349
  140SAPE  C31515336   5.507   6.382   8.783 -0.6498 -0.7339  0.1950
  140SAPE  H15X15337   5.576   6.466   8.804 -2.1996  1.3056 -2.6032
  140SAPE  H15Y15338   5.418   6.430   8.739  1.4896 -0.3132 -3.8954
  140SAPE  C31615339   5.564   6.305   8.662 -0.2161  0.1556  0.5281
  140SAPE  H16X15340   5.664   6.264   8.691 -0.5672  0.1899  1.8057
  140SAPE  H16Y15341   5.572   6.370   8.573 -0.0841 -0.3624  0.1561
  140SAPE  C31715342   5.478   6.192   8.611  1.0911  0.0505  0.2921
  140SAPE  H17X15343   5.373   6.229   8.617  1.4251  1.6324 -2.8126
  140SAPE  H17Y15344   5.492   6.108   8.683 -1.5037  1.0909  2.1089
  140SAPE  C31815345   5.515   6.147   8.468 -0.7104  0.6575 -0.2135
  140SAPE  H18X15346   5.448   6.062   8.442 -2.3517  2.1280 -0.8281
  140SAPE  H18Y15347   5.618   6.109   8.484 -1.0955  1.4074  4.9029
  140SAPE  H18Z15348   5.498   6.228   8.395 -2.2031  1.3991  0.9263
  141SAPE     N15349   5.535   0.293  10.796 -0.1575  0.5392 -0.1473
  141SAPE   HN115350   5.493   0.347  10.718 -3.9431 -0.0774  1.3435
  141SAPE   HN215351   5.498   0.322  10.889 -0.4028  2.1531 -0.7361
  141SAPE   HN315352   5.637   0.315  10.794 -0.2133  0.7626 -0.5699
  141SAPE   C1215353   5.504   0.147  10.792  0.0737  0.2985 -0.3861
  141SAPE  H12A15354   5.538   0.105  10.695  1.5120  0.4742  0.0356
  141SAPE  H12B15355   5.395   0.135  10.809  0.0029  0.2965 -0.8455
  141SAPE   C1115356   5.586   0.062  10.890  0.1077 -1.0796  0.6046
  141SAPE  H11A15357   5.574  -0.045  10.860  0.8708 -1.1115  0.3946
  141SAPE  H11B15358   5.547   0.065  10.994 -1.2814  1.5724  0.0404
  141SAPE     P15359   5.825   0.012  10.973 -0.1603  0.0647 -0.4417
  141SAPE   O1315360   5.840   0.048  11.115 -0.6347 -0.1935  0.0279
  141SAPE   O1415361   5.786  -0.126  10.951 -0.0198  0.0940  0.4443
  141SAPE   O1215362   5.717   0.111  10.898 -0.1371 -0.0520  0.0071
  141SAPE   O1115363   5.955   0.036  10.897 -0.0459 -0.0097  0.3583
  141SAPE    C115364   5.969   0.026  10.760  0.0946 -0.3140  0.2379
  141SAPE    HA15365   5.935  -0.076  10.733 -0.8818  0.4548 -1.4783
  141SAPE    HB15366   5.917   0.104  10.700  1.1070  0.6977  0.6535
  141SAPE    C215367   6.120   0.031  10.707 -0.1058  0.4468  0.1800
  141SAPE    HS15368   6.172   0.096  10.781  0.4257  0.0957  0.1210
  141SAPE   O2115369   6.112   0.095  10.574 -0.1154  0.5318  0.2858
  141SAPE   C2115370   6.224   0.154  10.539  0.0019 -0.3548 -0.0641
  141SAPE   O2215371   6.329   0.152  10.601 -0.5162  0.0042 -0.5695
  141SAPE   C2215372   6.213   0.219  10.396  0.2967  0.0954  0.2133
  141SAPE   H2R15373   6.313   0.260  10.371  0.0316  0.6444  0.0528
  141SAPE   H2S15374   6.190   0.133  10.329  2.9861  1.1478 -2.1640
  141SAPE    C315375   6.197  -0.110  10.697  0.9084 -0.9191  0.8612
  141SAPE    HX15376   6.224  -0.141  10.800  2.8427  2.2102  1.3613
  141SAPE    HY15377   6.300  -0.098  10.657  1.1059 -1.7845  1.1006
  141SAPE   O3115378   6.128  -0.213  10.630 -0.2902  0.3672  0.1525
  141SAPE   C3115379   6.147  -0.211  10.499  0.8038  0.5426 -0.0193
  141SAPE   O3215380   6.214  -0.125  10.435  0.5808 -0.3535 -0.0107
  141SAPE   C3215381   6.088  -0.341  10.439 -0.2546  0.2650 -0.2932
  141SAPE   H2X15382   6.031  -0.403  10.512 -3.1201  2.1250 -0.8684
  141SAPE   H2Y15383   6.167  -0.408  10.398  0.4294  0.3184  0.9297
  141SAPE   C2315384   6.096   0.321  10.382  0.2790 -0.5147 -0.5745
  141SAPE   H3R15385   6.108   0.415  10.440 -0.9759 -0.4504 -0.4047
  141SAPE   H3S15386   6.005   0.267  10.415 -0.5897  1.9591  1.2704
  141SAPE   C2415387   6.083   0.370  10.234  0.3121 -0.0048 -0.2259
  141SAPE   H4R15388   5.997   0.439  10.221  1.4767  1.6795  0.9687
  141SAPE   H4S15389   6.071   0.281  10.168 -2.9207 -0.1480  0.4419
  141SAPE   C2515390   6.199   0.454  10.181  0.0850  1.0798  0.1193
  141SAPE   H5R15391   6.295   0.446  10.233  1.0562  3.0776 -1.2705
  141SAPE   C2615392   6.203   0.526  10.069  0.0846 -0.0338  0.4750
  141SAPE   H6R15393   6.299   0.572  10.041 -0.3342 -0.4593 -1.7595
  141SAPE   C2715394   6.088   0.529   9.970  0.8566 -0.3637  0.3176
  141SAPE   H7R15395   6.005   0.455   9.973  0.7539 -0.3187 -1.1755
  141SAPE   H7S15396   6.117   0.508   9.865  1.0790 -1.8668  0.6612
  141SAPE   C2815397   6.011   0.661   9.993  0.5242  0.6474 -0.3568
  141SAPE   H8R15398   6.012   0.701  10.095  2.8843  0.2910 -0.2008
  141SAPE   C2915399   5.919   0.722   9.909  0.5723 -0.1101 -0.3905
  141SAPE   H9R15400   5.889   0.824   9.937 -0.2499 -0.6126  0.6108
  141SAPE  C21015401   5.887   0.683   9.765  0.2753  0.0590  0.7629
  141SAPE  H10R15402   5.785   0.723   9.746 -0.3136 -1.5625  0.4595
  141SAPE  H10S15403   5.879   0.573   9.752 -1.7026  0.2762 -0.0626
  141SAPE  C21115404   5.959   0.720   9.643 -0.3322  0.6597 -0.2051
  141SAPE  H11R15405   6.060   0.758   9.667 -0.5523  2.1145 -1.4952
  141SAPE  C21215406   5.919   0.729   9.516  0.3737 -0.8333  0.6763
  141SAPE  H12R15407   6.003   0.740   9.446  1.7758  1.9858  2.6714
  141SAPE  C21315408   5.775   0.703   9.466  0.4355 -0.0089 -0.3231
  141SAPE  H13R15409   5.714   0.654   9.545 -0.3047  0.7065 -0.4486
  141SAPE  H13S15410   5.769   0.626   9.386 -1.2930  1.2235 -1.4047
  141SAPE  C21415411   5.712   0.831   9.426  0.3419  0.0275  0.1718
  141SAPE  H14R15412   5.715   0.911   9.501 -1.7903 -0.3180  0.6758
  141SAPE  C21515413   5.655   0.864   9.312 -0.5172  0.6915 -0.4141
  141SAPE  H15R15414   5.605   0.961   9.305 -0.1840  1.0114  1.4467
  141SAPE  C21615415   5.638   0.784   9.189  0.2696 -0.2962  0.1984
  141SAPE  H16R15416   5.680   0.682   9.204 -0.9452 -0.8549 -0.1287
  141SAPE  H16S15417   5.694   0.822   9.101 -1.2944 -1.4586 -1.3287
  141SAPE  C21715418   5.490   0.784   9.144  0.6702  0.0077  0.4943
  141SAPE  H17R15419   5.430   0.875   9.165 -1.8942 -1.2523 -1.1692
  141SAPE  H17S15420   5.443   0.701   9.201 -1.0057  1.9704  2.0131
  141SAPE  C21815421   5.480   0.731   8.998  0.8986  0.2291  0.8943
  141SAPE  H18R15422   5.374   0.698   8.985  1.2571 -0.6196 -0.0081
  141SAPE  H18S15423   5.550   0.644   8.996  0.7378  0.1058  0.4730
  141SAPE  C21915424   5.521   0.831   8.888 -0.5133 -0.3456  0.9987
  141SAPE  H19R15425   5.464   0.808   8.796  1.1073 -1.5247  0.2713
  141SAPE  H19S15426   5.625   0.815   8.853 -0.6409 -0.7081  0.7822
  141SAPE  C22015427   5.508   0.981   8.916 -0.1729  0.0096 -0.2988
  141SAPE  H20R15428   5.399   0.994   8.937  0.1715  2.7985 -0.0326
  141SAPE  H20S15429   5.539   1.036   8.825 -2.8470 -0.2373 -1.4029
  141SAPE  H20T15430   5.562   1.015   9.007 -3.9099  2.7581  1.0475
  141SAPE   C3315431   5.987  -0.313  10.324  0.1351 -0.6718 -0.6574
  141SAPE   H3X15432   5.950  -0.208  10.328 -0.8539 -1.0807  1.6898
  141SAPE   H3Y15433   5.906  -0.388  10.326  1.1453 -1.8383 -2.0216
  141SAPE   C3415434   6.042  -0.321  10.182  0.1761 -0.6421 -0.5634
  141SAPE   H4X15435   6.086  -0.421  10.164 -1.4872 -1.4412 -0.3018
  141SAPE   H4Y15436   6.126  -0.249  10.189  1.7998 -2.7093  1.8440
  141SAPE   C3515437   5.949  -0.276  10.070 -0.5506  0.3341  0.2080
  141SAPE   H5X15438   5.934  -0.168  10.087 -0.9310 -0.0286  2.3021
  141SAPE   H5Y15439   5.860  -0.340  10.087  1.3927 -2.0102  2.1510
  141SAPE   C3615440   6.000  -0.293   9.929  0.4570  0.1701 -0.0409
  141SAPE   H6X15441   6.008  -0.402   9.909 -0.5634  0.0045  0.4765
  141SAPE   H6Y15442   6.099  -0.243   9.915 -0.7543  1.8379 -3.2591
  141SAPE   C3715443   5.899  -0.246   9.826 -0.0052 -0.4334 -0.1204
  141SAPE   H7X15444   5.871  -0.143   9.857 -1.2144 -0.2629 -1.6935
  141SAPE   H7Y15445   5.804  -0.303   9.821 -0.1723 -0.1468 -0.2517
  141SAPE   C3815446   5.956  -0.223   9.685  0.3651  0.0731  0.4023
  141SAPE   H8X15447   5.994  -0.309   9.626 -1.1004  1.1566 -2.2300
  141SAPE   H8Y15448   6.040  -0.150   9.692  0.3333 -0.0419  2.2801
  141SAPE   C3915449   5.859  -0.158   9.579  0.3809  0.1444 -0.4139
  141SAPE   H9X15450   5.833  -0.057   9.618  0.8963  0.6878 -1.4592
  141SAPE   H9Y15451   5.763  -0.214   9.574 -1.5347  3.3783 -2.1951
  141SAPE  C31015452   5.923  -0.148   9.445  0.4659 -0.1097 -0.1617
  141SAPE  H10X15453   5.954  -0.253   9.426 -1.2444 -0.6552 -0.0053
  141SAPE  H10Y15454   5.999  -0.067   9.440  1.6815 -1.2397 -0.4135
  141SAPE  C31115455   5.823  -0.120   9.329 -0.1812 -0.0395  0.4171
  141SAPE  H11X15456   5.814  -0.010   9.339  0.4646 -0.0317  0.9730
  141SAPE  H11Y15457   5.726  -0.171   9.346  0.1396 -1.2750 -1.2080
  141SAPE  C31215458   5.874  -0.161   9.192  0.8193 -0.1526 -0.4007
  141SAPE  H12X15459   5.894  -0.270   9.185 -0.3027 -0.3259 -0.9266
  141SAPE  H12Y15460   5.970  -0.109   9.170  2.5400 -2.8166  0.4478
  141SAPE  C31315461   5.763  -0.121   9.090 -0.1352 -0.0770 -0.1108
  141SAPE  H13X15462   5.716  -0.022   9.109 -0.0750 -0.0665 -0.0182
  141SAPE  H13Y15463   5.680  -0.195   9.096 -0.3257  0.0896 -0.6277
  141SAPE  C31415464   5.806  -0.130   8.948  0.4052  0.2678 -0.3551
  141SAPE  H14X15465   5.826  -0.229   8.901  1.4565  0.3163 -0.0400
  141SAPE  H14Y15466   5.903  -0.081   8.924  0.7675 -0.4917 -0.4754
  141SAPE  C31515467   5.700  -0.083   8.843  0.1414 -0.1379 -0.3574
  141SAPE  H15X15468   5.669   0.020   8.871 -0.5574 -0.4007 -0.1538
  141SAPE  H15Y15469   5.610  -0.146   8.860  0.5229 -0.4278  0.6184
  141SAPE  C31615470   5.734  -0.079   8.697 -0.3772 -0.4328  0.0991
  141SAPE  H16X15471   5.779  -0.175   8.663 -0.7276  0.6985 -3.7659
  141SAPE  H16Y15472   5.807   0.003   8.680 -1.3469  1.0522  2.7428
  141SAPE  C31715473   5.606  -0.027   8.618  0.3713  0.3211  0.1129
  141SAPE  H17X15474   5.626  -0.031   8.508  2.0265 -2.4844  0.4575
  141SAPE  H17Y15475   5.589   0.078   8.649  0.2353  0.2530  0.2684
  141SAPE  C31815476   5.482  -0.113   8.651  0.6679 -0.3403  0.0488
  141SAPE  H18X15477   5.487  -0.219   8.618 -1.2850 -0.6046  0.5134
  141SAPE  H18Y15478   5.398  -0.071   8.592 -0.5903  0.0721  2.0719
  141SAPE  H18Z15479   5.444  -0.101   8.755 -0.3828  0.2170 -0.3888
  142SAPE     N15480   6.664   5.226  11.288 -0.5237 -0.6234  0.2818
  142SAPE   HN115481   6.677   5.311  11.346 -0.7599 -1.0244  0.9236
  142SAPE   HN215482   6.565   5.210  11.260  0.1846 -1.2860 -1.9823
  142SAPE   HN315483   6.668   5.136  11.340  0.7380 -1.0369 -0.5027
  142SAPE   C1215484   6.747   5.222  11.165 -0.4738  0.4044 -0.0960
  142SAPE  H12A15485   6.758   5.117  11.131 -0.2702  0.7571 -1.1472
  142SAPE  H12B15486   6.852   5.242  11.197 -0.7479  2.4467 -0.3835
  142SAPE   C1115487   6.706   5.322  11.061 -0.3900 -0.1108 -1.2778
  142SAPE  H11A15488   6.604   5.305  11.019  0.0349 -0.3155 -2.2237
  142SAPE  H11B15489   6.761   5.303  10.967  1.6491  0.2714 -0.1962
  142SAPE     P15490   6.597   5.564  11.092 -0.1819 -0.0650 -0.2554
  142SAPE   O1315491   6.477   5.492  11.133  0.1685  0.0838 -0.2968
  142SAPE   O1415492   6.630   5.679  11.176  0.1151  0.2615 -0.2723
  142SAPE   O1215493   6.723   5.457  11.100  0.6569 -0.0563  0.4167
  142SAPE   O1115494   6.588   5.607  10.936 -0.4040 -0.1724 -0.1242
  142SAPE    C115495   6.612   5.521  10.825 -0.5023  0.1176 -0.1266
  142SAPE    HA15496   6.707   5.464  10.825 -0.2886  0.4462 -1.5000
  142SAPE    HB15497   6.524   5.452  10.826  0.0137 -0.5792 -1.1661
  142SAPE    C215498   6.607   5.608  10.693  0.2007  0.6535 -0.6204
  142SAPE    HS15499   6.647   5.708  10.720  1.4118 -0.1336  0.6014
  142SAPE   O2115500   6.473   5.610  10.639 -0.5171 -0.0449  0.0343
  142SAPE   C2115501   6.421   5.715  10.569 -0.8403  0.3698  0.3627
  142SAPE   O2215502   6.479   5.820  10.541 -0.7688 -0.0738 -0.2676
  142SAPE   C2215503   6.275   5.680  10.537 -0.2803  0.3749 -0.7329
  142SAPE   H2R15504   6.269   5.570  10.523  1.2531  0.2815 -0.6780
  142SAPE   H2S15505   6.216   5.727  10.619 -2.1399 -1.8654 -0.7627
  142SAPE    C315506   6.702   5.552  10.586  0.0081  0.2656 -0.0789
  142SAPE    HX15507   6.675   5.447  10.560 -1.6021  1.2612 -2.5667
  142SAPE    HY15508   6.805   5.530  10.623 -0.0356 -0.1508 -0.2027
  142SAPE   O3115509   6.692   5.626  10.460 -0.3838  0.4315  0.0398
  142SAPE   C3115510   6.768   5.730  10.450  0.7382  0.1853 -0.4377
  142SAPE   O3215511   6.831   5.785  10.538 -0.1380 -0.1855 -0.0654
  142SAPE   C3215512   6.767   5.770  10.300 -0.4122 -0.5410  0.3709
  142SAPE   H2X15513   6.704   5.697  10.246 -1.2730  0.2788  0.2581
  142SAPE   H2Y15514   6.872   5.763  10.263 -0.0377  0.4310  1.1998
  142SAPE   C2315515   6.223   5.750  10.406 -0.6732 -0.4476 -0.4701
  142SAPE   H3R15516   6.242   5.857  10.428 -2.6681 -0.3816  0.9957
  142SAPE   H3S15517   6.118   5.718  10.391  0.4575 -3.3211 -2.8847
  142SAPE   C2415518   6.300   5.707  10.284 -0.1101  0.3804  0.2732
  142SAPE   H4R15519   6.408   5.735  10.290 -0.1550  0.9639 -1.5237
  142SAPE   H4S15520   6.278   5.775  10.199  0.8409  0.2070 -0.1236
  142SAPE   C2515521   6.287   5.564  10.264  0.4356 -1.4050  0.4171
  142SAPE   H5R15522   6.312   5.488  10.340  2.8401 -0.9636  0.0955
  142SAPE   C2615523   6.239   5.522  10.150 -0.5457 -0.3950 -0.0861
  142SAPE   H6R15524   6.242   5.412  10.139  1.0572 -0.6001  2.1896
  142SAPE   C2715525   6.190   5.606  10.031 -0.0183  0.6433  0.1497
  142SAPE   H7R15526   6.267   5.679   9.999 -0.7262  1.6321  0.7044
  142SAPE   H7S15527   6.107   5.672  10.063 -0.4478  0.5475 -0.7613
  142SAPE   C2815528   6.138   5.529   9.908  0.2991 -0.2024 -0.6752
  142SAPE   H8R15529   6.140   5.419   9.915 -4.3559 -0.2779  1.0637
  142SAPE   C2915530   6.096   5.579   9.788  0.2839  0.1597  0.1408
  142SAPE   H9R15531   6.071   5.509   9.706 -2.1064  0.1830  0.8184
  142SAPE  C21015532   6.072   5.727   9.753 -0.1714  0.0785  0.0800
  142SAPE  H10R15533   6.136   5.757   9.667  2.3277 -5.0410 -0.0090
  142SAPE  H10S15534   6.089   5.793   9.840 -2.1491  1.2358 -0.3819
  142SAPE  C21115535   5.930   5.738   9.713  0.7075 -0.3524 -0.1248
  142SAPE  H11R15536   5.867   5.785   9.789 -1.4307  0.8043 -2.5296
  142SAPE  C21215537   5.876   5.719   9.586 -0.4340 -0.0251 -0.1660
  142SAPE  H12R15538   5.770   5.735   9.561  0.2022  2.2475 -1.5179
  142SAPE  C21315539   5.943   5.683   9.463 -0.4443 -0.3136  0.9593
  142SAPE  H13R15540   5.876   5.614   9.408  1.0666 -0.4173 -0.7975
  142SAPE  H13S15541   6.035   5.630   9.495  0.2525  0.3871  0.1508
  142SAPE  C21415542   5.975   5.805   9.372  0.3838 -0.4578  0.5476
  142SAPE  H14R15543   5.890   5.871   9.352  1.3641  0.3074 -1.1890
  142SAPE  C21515544   6.093   5.853   9.344  0.0271 -1.2183 -0.2759
  142SAPE  H15R15545   6.094   5.951   9.294  0.5171 -1.1575 -0.1507
  142SAPE  C21615546   6.234   5.797   9.384 -0.2873  0.1355  0.3297
  142SAPE  H16R15547   6.230   5.693   9.423 -0.1605 -0.4050 -1.0736
  142SAPE  H16S15548   6.260   5.844   9.481 -0.6810 -0.3200  0.6617
  142SAPE  C21715549   6.349   5.811   9.278 -0.5031  0.0240 -0.2915
  142SAPE  H17R15550   6.443   5.769   9.320  0.7884  1.7321 -1.3675
  142SAPE  H17S15551   6.360   5.919   9.253  0.2825 -0.1144 -0.5536
  142SAPE  C21815552   6.323   5.738   9.141  0.7418 -0.7557 -0.3440
  142SAPE  H18R15553   6.246   5.803   9.093 -0.4929 -1.7712  0.2466
  142SAPE  H18S15554   6.281   5.636   9.154 -1.1338  0.2836  2.1447
  142SAPE  C21915555   6.450   5.734   9.056 -0.0227  0.4159 -0.7315
  142SAPE  H19R15556   6.435   5.679   8.960 -0.1970 -2.4773  0.8894
  142SAPE  H19S15557   6.526   5.666   9.102  0.6112  0.8236 -1.1697
  142SAPE  C22015558   6.524   5.862   9.029  0.2505 -0.6468  0.4016
  142SAPE  H20R15559   6.448   5.936   8.998 -0.6463 -1.5820  0.3647
  142SAPE  H20S15560   6.600   5.859   8.948  1.5906  0.5522  1.5705
  142SAPE  H20T15561   6.574   5.904   9.119  0.1302 -0.5756  0.4337
  142SAPE   C3315562   6.705   5.913  10.287  0.0907  0.0801 -0.1607
  142SAPE   H3X15563   6.775   5.988  10.329 -1.1384  0.8121  0.6042
  142SAPE   H3Y15564   6.616   5.918  10.353  0.8893 -1.3877  1.0617
  142SAPE   C3415565   6.658   5.940  10.145  0.3199 -0.5122 -0.1398
  142SAPE   H4X15566   6.600   6.035  10.137 -1.0534 -1.2564  0.8172
  142SAPE   H4Y15567   6.590   5.856  10.120 -0.1504  0.1175 -1.0204
  142SAPE   C3515568   6.777   5.919  10.044  0.3023  0.2041  0.1383
  142SAPE   H5X15569   6.741   5.950   9.944  0.6731  0.3860  0.0605
  142SAPE   H5Y15570   6.808   5.812  10.040 -1.2486 -0.3806  2.4599
  142SAPE   C3615571   6.903   5.994  10.087  0.7614 -0.3070  0.5506
  142SAPE   H6X15572   6.948   5.960  10.183 -0.0129 -0.7983  0.7469
  142SAPE   H6Y15573   6.869   6.099  10.099 -3.3278 -0.9058 -4.0388
  142SAPE   C3715574   7.000   5.973   9.974 -0.2025 -0.2566 -0.0296
  142SAPE   H7X15575   6.957   6.012   9.879  2.1066 -0.0552 -1.0415
  142SAPE   H7Y15576   7.022   5.864   9.967  2.2803  0.2292 -0.1580
  142SAPE   C3815577   7.133   6.044   9.985  0.6644  0.4138  0.7262
  142SAPE   H8X15578   7.161   6.046  10.093  0.2030 -0.7928  0.8789
  142SAPE   H8Y15579   7.136   6.151   9.957  0.1838  0.9874  2.8183
  142SAPE   C3915580   7.252   5.977   9.918  0.2947  0.6042  0.2794
  142SAPE   H9X15581   7.271   5.881   9.971  0.8060 -0.9293 -2.5783
  142SAPE   H9Y15582   7.343   6.038   9.936 -0.7199  1.1501  3.9450
  142SAPE  C31015583   7.244   5.962   9.763 -0.5546 -0.2364  0.0468
  142SAPE  H10X15584   7.256   6.064   9.720  1.4828  0.1767  1.4783
  142SAPE  H10Y15585   7.146   5.918   9.734 -1.3756  0.7255  1.2838
  142SAPE  C31115586   7.341   5.866   9.698  0.3831 -0.0171  0.5510
  142SAPE  H11X15587   7.343   5.765   9.745  2.3104 -0.0122  0.5271
  142SAPE  H11Y15588   7.441   5.910   9.719  0.4106 -0.5094  1.4754
  142SAPE  C31215589   7.314   5.847   9.548  0.5829  0.1197 -0.1606
  142SAPE  H12X15590   7.286   5.942   9.498  0.3491 -1.0616 -2.2938
  142SAPE  H12Y15591   7.223   5.784   9.545 -0.8970  1.9825  2.9883
  142SAPE  C31315592   7.427   5.778   9.481  0.0016 -0.0685  0.6538
  142SAPE  H13X15593   7.436   5.673   9.515  0.4614  0.4414  2.1388
  142SAPE  H13Y15594   7.520   5.836   9.497  0.6222 -1.1510  1.0120
  142SAPE  C31415595   7.400   5.775   9.327  0.2826 -0.4504  0.3191
  142SAPE  H14X15596   7.353   5.870   9.294 -0.2542 -0.7925  0.0994
  142SAPE  H14Y15597   7.321   5.699   9.306  0.0582  0.9449 -4.3916
  142SAPE  C31515598   7.524   5.739   9.234 -0.2020  0.0201  0.0057
  142SAPE  H15X15599   7.556   5.633   9.248  0.2300  0.1622  0.1000
  142SAPE  H15Y15600   7.614   5.801   9.250  0.8302 -0.9033 -2.0740
  142SAPE  C31615601   7.486   5.755   9.087  0.5555 -0.3880 -0.3680
  142SAPE  H16X15602   7.577   5.745   9.025  0.3403  0.6741 -0.8864
  142SAPE  H16Y15603   7.457   5.862   9.076 -1.2570 -0.4345  3.1058
  142SAPE  C31715604   7.385   5.652   9.026  0.3531  0.6843 -0.1891
  142SAPE  H17X15605   7.289   5.666   9.080  0.4853 -1.1449  0.5779
  142SAPE  H17Y15606   7.418   5.546   9.031 -2.1252 -0.1869 -1.6341
  142SAPE  C31815607   7.364   5.669   8.873  0.3347 -0.0342  0.3943
  142SAPE  H18X15608   7.307   5.760   8.846 -0.2494 -0.1236  1.3355
  142SAPE  H18Y15609   7.302   5.584   8.838 -2.5258  1.8877  0.6307
  142SAPE  H18Z15610   7.459   5.669   8.814  0.1984  0.2028  0.1769
  143SAPE     N15611   1.742   5.656  11.112 -0.2653  0.3196  0.3080
  143SAPE   HN115612   1.839   5.692  11.121  0.6358 -1.5974 -1.4020
  143SAPE   HN215613   1.743   5.558  11.076 -1.7555  0.5302 -0.3630
  143SAPE   HN315614   1.697   5.716  11.040 -1.5544  0.4473  1.1948
  143SAPE   C1215615   1.662   5.658  11.238 -0.4062  0.7019 -0.2873
  143SAPE  H12A15616   1.678   5.762  11.276  2.3806  0.2463 -0.0864
  143SAPE  H12B15617   1.695   5.575  11.304 -0.3150  0.1172 -1.0597
  143SAPE   C1115618   1.512   5.644  11.197  0.1190  0.5547  0.2904
  143SAPE  H11A15619   1.463   5.658  11.295 -1.5270 -1.5298 -0.2044
  143SAPE  H11B15620   1.499   5.542  11.156  3.0765 -0.3887  1.5941
  143SAPE     P15621   1.325   5.755  11.046 -0.2867 -0.1631  0.0450
  143SAPE   O1315622   1.230   5.686  11.139 -0.4994 -0.1019  0.5463
  143SAPE   O1415623   1.291   5.896  11.025  0.1926 -0.0716 -0.1299
  143SAPE   O1215624   1.472   5.746  11.101  0.1413  0.6911 -0.5434
  143SAPE   O1115625   1.333   5.689  10.907  0.0727 -0.5150  0.2156
  143SAPE    C115626   1.295   5.552  10.885  0.4782  0.5126 -0.0365
  143SAPE    HA15627   1.355   5.485  10.950  0.2730  1.2377  0.9279
  143SAPE    HB15628   1.188   5.538  10.912  0.1933 -3.5149 -2.8464
  143SAPE    C215629   1.312   5.510  10.739  0.3295 -0.3808 -0.0242
  143SAPE    HS15630   1.299   5.399  10.738  0.1413 -0.3823  1.4655
  143SAPE   O2115631   1.440   5.529  10.673  0.0713  0.0619  0.0937
  143SAPE   C2115632   1.550   5.488  10.731  0.1376 -0.8631  0.6693
  143SAPE   O2215633   1.555   5.415  10.830 -0.2191 -0.5265 -0.8077
  143SAPE   C2215634   1.677   5.548  10.663  0.7872  0.3759 -0.0362
  143SAPE   H2R15635   1.644   5.632  10.598 -2.3102 -1.9151 -1.5163
  143SAPE   H2S15636   1.741   5.587  10.746 -0.3431 -0.0184  1.0315
  143SAPE    C315637   1.201   5.594  10.665 -0.4638 -0.0556  0.6884
  143SAPE    HX15638   1.203   5.703  10.685  0.2818 -0.0726  0.7506
  143SAPE    HY15639   1.104   5.569  10.713 -0.7150 -0.5032 -0.0448
  143SAPE   O3115640   1.192   5.572  10.524 -0.0831  0.8281 -0.0655
  143SAPE   C3115641   1.263   5.658  10.451  0.3241 -0.0489  0.4578
  143SAPE   O3215642   1.328   5.751  10.490 -0.2144 -0.0171 -0.0561
  143SAPE   C3215643   1.269   5.609  10.311  0.0737  0.6929  0.5282
  143SAPE   H2X15644   1.169   5.587  10.267 -0.1102 -0.5866  1.5341
  143SAPE   H2Y15645   1.324   5.512  10.312 -2.0816 -0.5805 -0.8710
  143SAPE   C2315646   1.739   5.421  10.589  0.6011 -0.1164  0.4140
  143SAPE   H3R15647   1.763   5.342  10.663 -1.9342 -0.6665  0.7001
  143SAPE   H3S15648   1.830   5.459  10.539 -0.2729  1.4008 -0.0559
  143SAPE   C2415649   1.650   5.351  10.484 -0.1650  0.0385  0.5657
  143SAPE   H4R15650   1.567   5.296  10.534  0.1010 -1.8614 -1.0487
  143SAPE   H4S15651   1.714   5.275  10.435 -0.8849 -0.0145 -0.2881
  143SAPE   C2515652   1.604   5.453  10.390 -0.5571  0.8396  0.3724
  143SAPE   H5R15653   1.543   5.535  10.432 -1.4668 -0.5274  1.7503
  143SAPE   C2615654   1.637   5.460  10.256  0.5029  0.2855 -0.9381
  143SAPE   H6R15655   1.606   5.547  10.195 -1.5055  0.3949  0.1980
  143SAPE   C2715656   1.720   5.370  10.169  0.5798 -0.2899  0.1663
  143SAPE   H7R15657   1.779   5.302  10.234  2.2052  2.0286  1.1843
  143SAPE   H7S15658   1.786   5.423  10.097  0.1432  0.0068 -0.0180
  143SAPE   C2815659   1.630   5.265  10.107  0.4170 -0.0179  0.3065
  143SAPE   H8R15660   1.602   5.184  10.176  0.5946 -1.0310 -0.7938
  143SAPE   C2915661   1.595   5.269   9.975 -0.0069 -0.1875  1.0073
  143SAPE   H9R15662   1.533   5.186   9.937  2.5872 -0.9637 -1.7245
  143SAPE  C21015663   1.632   5.362   9.862 -0.2906  0.0522 -0.6158
  143SAPE  H10R15664   1.689   5.311   9.783  1.1290  1.6363 -0.6540
  143SAPE  H10S15665   1.694   5.443   9.906  1.7103 -1.8139  0.0450
  143SAPE  C21115666   1.512   5.437   9.801 -0.3107  0.3540  0.1359
  143SAPE  H11R15667   1.458   5.511   9.862 -0.4297 -1.3123  2.1043
  143SAPE  C21215668   1.453   5.421   9.683 -0.2013 -0.2072 -0.2616
  143SAPE  H12R15669   1.365   5.479   9.650 -0.8901 -1.2938 -0.3467
  143SAPE  C21315670   1.495   5.322   9.574  0.2895  0.1363 -0.1895
  143SAPE  H13R15671   1.415   5.245   9.575  1.9059 -1.5507  0.8559
  143SAPE  H13S15672   1.579   5.257   9.603 -0.0834 -0.0416  0.4946
  143SAPE  C21415673   1.516   5.387   9.433  0.0066  0.1618 -0.8736
  143SAPE  H14R15674   1.590   5.466   9.415  0.0360  0.7134  1.4649
  143SAPE  C21515675   1.434   5.345   9.328  0.1442 -0.3284 -0.6000
  143SAPE  H15R15676   1.452   5.400   9.235  0.2743  3.7759  1.7149
  143SAPE  C21615677   1.318   5.242   9.323 -0.5014  0.0526 -0.1930
  143SAPE  H16R15678   1.248   5.261   9.238 -1.6213  1.0529  0.9340
  143SAPE  H16S15679   1.266   5.250   9.420 -1.5345 -0.4745 -0.6975
  143SAPE  C21715680   1.370   5.099   9.293 -0.3087  0.0248 -0.6927
  143SAPE  H17R15681   1.449   5.076   9.368  0.8680 -2.4951 -2.6415
  143SAPE  H17S15682   1.409   5.100   9.189  0.5483  2.6153 -0.4027
  143SAPE  C21815683   1.263   4.986   9.294 -0.1685  0.7101  0.5846
  143SAPE  H18R15684   1.177   5.018   9.232  1.5510  2.3390 -1.0030
  143SAPE  H18S15685   1.228   4.976   9.399  1.0782  1.1357  1.0509
  143SAPE  C21915686   1.319   4.868   9.225  0.1969 -0.9049  0.1383
  143SAPE  H19R15687   1.360   4.883   9.123 -1.6183 -0.4097 -0.5526
  143SAPE  H19S15688   1.242   4.787   9.219 -0.3776 -0.4102  0.7113
  143SAPE  C22015689   1.424   4.795   9.308 -0.6588 -0.1371  0.1209
  143SAPE  H20R15690   1.410   4.794   9.418 -3.4400 -0.0604 -0.1915
  143SAPE  H20S15691   1.523   4.844   9.295 -1.7455  2.1197  0.0806
  143SAPE  H20T15692   1.449   4.692   9.275 -1.0080  1.2415 -4.9555
  143SAPE   C3315693   1.340   5.707  10.229 -0.2477  0.0107  0.4487
  143SAPE   H3X15694   1.437   5.736  10.274 -0.4240 -1.0142  1.5131
  143SAPE   H3Y15695   1.290   5.806  10.225  3.5218  1.9949  0.5079
  143SAPE   C3415696   1.374   5.650  10.082  0.5634 -0.4872  0.2356
  143SAPE   H4X15697   1.279   5.619  10.034  0.8594 -0.0158 -0.6664
  143SAPE   H4Y15698   1.432   5.555  10.083 -0.3734 -1.0812 -0.7656
  143SAPE   C3515699   1.464   5.744   9.996 -0.3138  0.0168 -0.5153
  143SAPE   H5X15700   1.538   5.677   9.947 -0.4593 -0.9057  0.5126
  143SAPE   H5Y15701   1.522   5.814  10.061  1.3194 -1.1824 -0.6411
  143SAPE   C3615702   1.386   5.827   9.901  0.6821  0.2496  0.6872
  143SAPE   H6X15703   1.299   5.875   9.950  1.1400  0.0753  1.6997
  143SAPE   H6Y15704   1.339   5.766   9.822  1.2718 -0.6514  1.0162
  143SAPE   C3715705   1.471   5.936   9.831 -0.2175  0.5492  1.2449
  143SAPE   H7X15706   1.552   5.874   9.786 -1.8479 -0.0851 -0.9227
  143SAPE   H7Y15707   1.510   6.007   9.907  1.2673  1.9993 -0.8056
  143SAPE   C3815708   1.402   6.010   9.715 -0.0769  0.0727 -0.0152
  143SAPE   H8X15709   1.474   6.075   9.662 -0.3236 -1.3336 -2.1227
  143SAPE   H8Y15710   1.347   6.100   9.752 -1.1564 -0.2424 -0.8436
  143SAPE   C3915711   1.329   5.939   9.604  0.2651 -0.2649  0.5824
  143SAPE   H9X15712   1.251   5.873   9.647  0.6069 -0.8274  0.3334
  143SAPE   H9Y15713   1.405   5.869   9.563 -1.8291 -2.8484  1.0424
  143SAPE  C31015714   1.264   6.031   9.501  0.5159 -0.2248 -0.0798
  143SAPE  H10X15715   1.216   6.117   9.551 -0.6659  0.1165 -1.7428
  143SAPE  H10Y15716   1.192   5.982   9.432 -0.6703  0.3966  0.6964
  143SAPE  C31115717   1.372   6.081   9.399  0.6374 -0.4104  0.5704
  143SAPE  H11X15718   1.436   5.999   9.360 -0.5882 -0.8670 -0.5510
  143SAPE  H11Y15719   1.443   6.134   9.466  0.3785 -1.2868  1.5458
  143SAPE  C31215720   1.313   6.156   9.279 -0.7420  0.1745 -1.0079
  143SAPE  H12X15721   1.391   6.222   9.234 -1.0903  1.1832 -0.1368
  143SAPE  H12Y15722   1.226   6.221   9.302 -0.1392  1.0368 -1.1408
  143SAPE  C31315723   1.259   6.062   9.173 -0.5420 -0.3464  0.4626
  143SAPE  H13X15724   1.206   6.123   9.096 -1.0312  0.1295  1.1752
  143SAPE  H13Y15725   1.187   5.989   9.215 -0.8697 -0.9003 -1.0222
  143SAPE  C31415726   1.370   5.976   9.099 -0.0158 -0.3771 -0.5466
  143SAPE  H14X15727   1.395   5.894   9.170  0.2823 -2.2136 -2.7071
  143SAPE  H14Y15728   1.470   6.024   9.097 -0.5619  0.8161  0.2246
  143SAPE  C31515729   1.336   5.924   8.962 -0.1685  0.5426 -0.5378
  143SAPE  H15X15730   1.409   5.853   8.919  1.3098  2.6626 -1.6106
  143SAPE  H15Y15731   1.333   6.009   8.891 -0.8099  0.7001 -0.3232
  143SAPE  C31615732   1.200   5.852   8.968  0.5625  0.3574  0.3708
  143SAPE  H16X15733   1.177   5.811   8.867  1.9070 -1.8208  0.9192
  143SAPE  H16Y15734   1.124   5.928   8.998  1.1182 -0.1490  3.1673
  143SAPE  C31715735   1.209   5.721   9.051 -0.6400 -0.5715  0.2169
  143SAPE  H17X15736   1.238   5.747   9.155 -2.0427 -1.5553  0.8786
  143SAPE  H17Y15737   1.291   5.659   9.009 -0.1714  0.9308 -1.0982
  143SAPE  C31815738   1.075   5.649   9.061 -0.2794 -0.6852 -0.6568
  143SAPE  H18X15739   1.035   5.652   8.958 -1.9542  2.1005  0.0178
  143SAPE  H18Y15740   1.005   5.706   9.126  3.6607  0.6328  2.6747
  143SAPE  H18Z15741   1.082   5.547   9.104 -2.3475 -0.5371  0.0858
  144SAPE     N15742   3.600   4.595  10.775  0.1413 -0.1548  0.2443
  144SAPE   HN115743   3.586   4.627  10.677  1.7348  2.3991  0.8024
  144SAPE   HN215744   3.612   4.492  10.781 -0.6465 -0.2794 -0.1704
  144SAPE   HN315745   3.505   4.611  10.815 -0.3532  0.7387 -1.2026
  144SAPE   C1215746   3.695   4.674  10.850 -0.1561 -0.6576  0.3294
  144SAPE  H12A15747   3.695   4.636  10.955  0.1897 -0.7629  0.2937
  144SAPE  H12B15748   3.669   4.781  10.858 -0.0032 -0.7097  1.6603
  144SAPE   C1115749   3.837   4.659  10.789 -0.0647 -0.4077  0.8843
  144SAPE  H11A15750   3.911   4.735  10.823  0.0675  0.1776 -0.6620
  144SAPE  H11B15751   3.832   4.679  10.680 -0.3900  2.7655  1.4077
  144SAPE     P15752   4.016   4.476  10.860  0.3384  0.0915  0.0512
  144SAPE   O1315753   4.096   4.585  10.916 -0.3857 -0.0806  0.3232
  144SAPE   O1415754   3.980   4.378  10.968 -0.2908  0.0458 -0.2419
  144SAPE   O1215755   3.882   4.526  10.793  0.7728 -0.4045 -0.8665
  144SAPE   O1115756   4.095   4.413  10.741  0.0949 -0.1513 -0.5630
  144SAPE    C115757   4.042   4.310  10.666  0.1734 -0.6644  0.5385
  144SAPE    HA15758   4.122   4.234  10.651  0.7377 -0.4243  2.2300
  144SAPE    HB15759   3.951   4.256  10.699 -1.6178  1.4308 -0.8682
  144SAPE    C215760   4.011   4.367  10.516  0.0056  0.0018  0.2674
  144SAPE    HS15761   4.010   4.278  10.450  0.1175 -0.0867  0.3851
  144SAPE   O2115762   4.110   4.457  10.463 -0.1762 -0.3295 -0.2216
  144SAPE   C2115763   4.211   4.401  10.387 -0.7698  0.0546  0.8058
  144SAPE   O2215764   4.223   4.283  10.365 -0.3573 -0.0538  0.7937
  144SAPE   C2215765   4.296   4.519  10.338  0.1127  0.7881  0.2210
  144SAPE   H2R15766   4.230   4.601  10.301  1.5224  1.8968  0.1118
  144SAPE   H2S15767   4.352   4.553  10.428  0.7519 -1.7747  0.8176
  144SAPE    C315768   3.876   4.436  10.500 -0.4713 -0.2840  0.1673
  144SAPE    HX15769   3.888   4.535  10.549 -0.0316 -0.4418  0.3837
  144SAPE    HY15770   3.794   4.387  10.557 -1.2111 -0.8362 -1.3379
  144SAPE   O3115771   3.846   4.439  10.358  0.6009 -0.5853 -0.5654
  144SAPE   C3115772   3.820   4.553  10.302 -0.0664  0.3621 -0.1680
  144SAPE   O3215773   3.780   4.653  10.362  0.1125 -0.5830 -0.0201
  144SAPE   C3215774   3.837   4.536  10.154  0.7458 -0.5117  1.4651
  144SAPE   H2X15775   3.750   4.584  10.104  1.3920 -0.2859  0.5416
  144SAPE   H2Y15776   3.832   4.429  10.127 -0.4711 -0.4701  1.4760
  144SAPE   C2315777   4.407   4.476  10.235 -0.6372  0.4001 -0.5581
  144SAPE   H3R15778   4.488   4.407  10.267 -1.6111 -1.8361 -2.7461
  144SAPE   H3S15779   4.454   4.575  10.220  3.5160 -1.2357  0.9176
  144SAPE   C2415780   4.342   4.432  10.098 -0.6317  0.3422  0.0531
  144SAPE   H4R15781   4.298   4.523  10.052  2.3868  1.1254 -1.4251
  144SAPE   H4S15782   4.259   4.361  10.119 -0.5509 -0.2514 -1.5359
  144SAPE   C2515783   4.443   4.356  10.009 -0.1315  0.0014  0.2820
  144SAPE   H5R15784   4.495   4.418   9.935  2.0390  0.0020  1.7628
  144SAPE   C2615785   4.449   4.219   9.991  0.3229  0.1002 -0.5140
  144SAPE   H6R15786   4.521   4.176   9.921 -1.9380 -1.6013 -1.8789
  144SAPE   C2715787   4.373   4.102  10.052  0.1042  0.3135 -0.6918
  144SAPE   H7R15788   4.274   4.121  10.004  0.2890 -0.1216 -1.2514
  144SAPE   H7S15789   4.363   4.120  10.161  0.6264 -0.7077 -0.4682
  144SAPE   C2815790   4.405   3.958  10.010  0.1754 -0.2437  0.1851
  144SAPE   H8R15791   4.427   3.886  10.091  0.0041  0.8230  1.1842
  144SAPE   C2915792   4.385   3.909   9.887  0.6652  0.1778 -0.5343
  144SAPE   H9R15793   4.410   3.802   9.882  1.6666  0.4008 -0.3071
  144SAPE  C21015794   4.334   3.966   9.754 -0.1702 -0.4984 -0.5624
  144SAPE  H10R15795   4.411   3.929   9.684  1.8569 -0.7635  1.7262
  144SAPE  H10S15796   4.348   4.076   9.753  1.2246 -0.6591  0.4579
  144SAPE  C21115797   4.190   3.930   9.735  0.1813  0.2672 -0.4649
  144SAPE  H11R15798   4.125   3.939   9.822 -2.9318 -0.9259 -2.5950
  144SAPE  C21215799   4.139   3.907   9.611  0.2789 -0.0195  0.1763
  144SAPE  H12R15800   4.029   3.905   9.616  0.2893  1.2798  1.1521
  144SAPE  C21315801   4.197   3.909   9.475 -0.1465 -0.0318  0.7188
  144SAPE  H13R15802   4.183   3.807   9.432 -1.3260  1.3050 -2.2135
  144SAPE  H13S15803   4.303   3.936   9.492 -0.4305  0.5191  1.6527
  144SAPE  C21415804   4.129   4.026   9.403 -0.0412 -0.6865 -0.7495
  144SAPE  H14R15805   4.038   4.059   9.456  1.6710 -2.3419  3.3656
  144SAPE  C21515806   4.190   4.085   9.293 -0.0064  0.2609 -0.1474
  144SAPE  H15R15807   4.141   4.173   9.250  1.2827  0.9179 -0.3247
  144SAPE  C21615808   4.315   4.068   9.210 -0.5143 -0.2505 -0.1675
  144SAPE  H16R15809   4.382   3.995   9.260  1.1761  1.0406 -0.4633
  144SAPE  H16S15810   4.368   4.166   9.210 -1.8136  0.4708  0.1643
  144SAPE  C21715811   4.297   4.020   9.068 -0.4480 -0.1687 -0.5323
  144SAPE  H17R15812   4.235   3.930   9.050  0.3488 -0.7887 -0.2030
  144SAPE  H17S15813   4.393   3.998   9.016  1.8314 -0.7236  3.7364
  144SAPE  C21815814   4.229   4.125   8.965  0.2538  0.8234  0.4494
  144SAPE  H18R15815   4.300   4.210   8.957  2.2000 -0.6424  1.6215
  144SAPE  H18S15816   4.137   4.153   9.021 -1.7283 -2.1947 -1.1778
  144SAPE  C21915817   4.184   4.058   8.835 -0.7566  0.0868  0.7147
  144SAPE  H19R15818   4.139   3.961   8.868  2.1610 -1.5784  0.0171
  144SAPE  H19S15819   4.269   4.033   8.768 -0.5315  1.2206  0.5772
  144SAPE  C22015820   4.087   4.120   8.734 -0.1317 -0.1767  0.0741
  144SAPE  H20R15821   4.130   4.211   8.687  0.8908 -0.6487  0.0821
  144SAPE  H20S15822   3.994   4.150   8.788 -0.1586  0.9381 -0.5856
  144SAPE  H20T15823   4.055   4.044   8.660  2.3186 -0.4263 -0.7483
  144SAPE   C3315824   3.973   4.605  10.115 -0.0601 -0.3776  0.0092
  144SAPE   H3X15825   4.057   4.549  10.160 -0.0492  0.4899  1.1023
  144SAPE   H3Y15826   3.975   4.710  10.153 -1.3193  0.8442 -3.1568
  144SAPE   C3415827   3.983   4.607   9.962  0.4503  0.2254 -0.0469
  144SAPE   H4X15828   4.063   4.679   9.933  0.3658  0.4724  0.3269
  144SAPE   H4Y15829   3.891   4.646   9.914 -0.6686 -0.4088  1.5695
  144SAPE   C3515830   4.022   4.469   9.907 -0.6693  0.1963  0.5671
  144SAPE   H5X15831   3.931   4.406   9.912 -0.6912  0.0366 -1.3819
  144SAPE   H5Y15832   4.091   4.421   9.979 -1.8249  0.2651  1.7547
  144SAPE   C3615833   4.067   4.460   9.757  0.8316  0.0974  0.2308
  144SAPE   H6X15834   4.009   4.527   9.692 -0.0082  0.6852  1.5687
  144SAPE   H6Y15835   4.030   4.360   9.727  1.3794 -0.0716  0.1004
  144SAPE   C3715836   4.220   4.460   9.748 -1.2529 -0.0925 -0.3031
  144SAPE   H7X15837   4.259   4.388   9.823 -2.8642 -0.5581  0.1194
  144SAPE   H7Y15838   4.274   4.553   9.775 -0.3727  0.1994 -2.8972
  144SAPE   C3815839   4.256   4.413   9.612  0.3609  0.5458  0.0986
  144SAPE   H8X15840   4.197   4.469   9.537 -0.2923 -1.6264 -1.0527
  144SAPE   H8Y15841   4.235   4.307   9.586  0.3713  0.3343  0.9388
  144SAPE   C3915842   4.404   4.438   9.579 -0.1771  0.0684 -0.0675
  144SAPE   H9X15843   4.470   4.379   9.647 -0.9713  0.2570  0.8836
  144SAPE   H9Y15844   4.417   4.548   9.586 -1.3844  0.4201 -2.7103
  144SAPE  C31015845   4.444   4.397   9.436 -0.2320  0.2249 -0.6448
  144SAPE  H10X15846   4.433   4.289   9.416 -1.0047 -0.3644  2.6734
  144SAPE  H10Y15847   4.548   4.433   9.424 -0.1334  0.0265 -0.3738
  144SAPE  C31115848   4.373   4.473   9.326  0.2441  0.0089  0.0010
  144SAPE  H11X15849   4.373   4.579   9.360 -1.4009 -0.4562  1.5450
  144SAPE  H11Y15850   4.264   4.452   9.331  0.0436  1.1529  0.7028
  144SAPE  C31215851   4.452   4.449   9.191 -0.0114 -0.3685  0.2301
  144SAPE  H12X15852   4.420   4.356   9.140  1.1337 -0.7409  0.1821
  144SAPE  H12Y15853   4.562   4.449   9.203 -0.1461 -1.9595  1.6763
  144SAPE  C31315854   4.424   4.560   9.089  0.4697 -0.0254 -0.5358
  144SAPE  H13X15855   4.450   4.658   9.135  0.0276  0.3750 -1.1350
  144SAPE  H13Y15856   4.315   4.571   9.071  0.3691 -0.9580 -0.4942
  144SAPE  C31415857   4.498   4.547   8.954 -0.2143  0.3450 -0.2547
  144SAPE  H14X15858   4.442   4.472   8.894 -0.5239 -1.1874  1.8619
  144SAPE  H14Y15859   4.605   4.522   8.972 -0.4337  0.9830  2.0874
  144SAPE  C31515860   4.497   4.682   8.882 -0.6749 -0.1329  0.9356
  144SAPE  H15X15861   4.558   4.750   8.946 -0.7718  0.1587  0.7186
  144SAPE  H15Y15862   4.395   4.723   8.893 -0.7502  0.8654 -2.7996
  144SAPE  C31615863   4.546   4.669   8.733 -0.2264 -0.6128 -0.7645
  144SAPE  H16X15864   4.460   4.685   8.663 -0.5495 -2.1997 -0.7623
  144SAPE  H16Y15865   4.583   4.566   8.714  1.3532 -0.1952 -0.0150
  144SAPE  C31715866   4.683   4.742   8.700  0.4199  0.0081 -0.5627
  144SAPE  H17X15867   4.711   4.704   8.599 -1.5233  1.1674 -1.5684
  144SAPE  H17Y15868   4.756   4.699   8.771 -0.5897 -0.6567  0.0815
  144SAPE  C31815869   4.684   4.894   8.719 -0.5087  0.0383 -0.7239
  144SAPE  H18X15870   4.671   4.923   8.826 -0.5268 -1.6172 -0.2509
  144SAPE  H18Y15871   4.606   4.946   8.660 -0.1714  2.8673  1.2441
  144SAPE  H18Z15872   4.775   4.948   8.687  0.0147  1.8844  3.5311
  145SAPE     N15873   2.319   5.274  11.590 -0.6729  0.2068 -0.1953
  145SAPE   HN115874   2.422   5.276  11.575 -0.5162 -0.5518  0.7658
  145SAPE   HN215875   2.274   5.363  11.561 -0.2248 -0.4446 -3.0215
  145SAPE   HN315876   2.307   5.252  11.691 -0.7200 -0.4185 -0.3371
  145SAPE   C1215877   2.263   5.164  11.502  0.4751 -0.2882 -1.0207
  145SAPE  H12A15878   2.153   5.181  11.501  0.3218 -1.2410 -0.4915
  145SAPE  H12B15879   2.279   5.062  11.543 -0.2159  0.7110  1.8353
  145SAPE   C1115880   2.324   5.172  11.358  0.2771  0.9160 -0.2924
  145SAPE  H11A15881   2.255   5.243  11.307 -1.0710 -0.2102 -0.0927
  145SAPE  H11B15882   2.300   5.070  11.321  0.8708  0.2014  1.2534
  145SAPE     P15883   2.503   5.319  11.263  0.1424  0.4206  0.1989
  145SAPE   O1315884   2.485   5.444  11.339  0.2305 -0.3639 -0.0264
  145SAPE   O1415885   2.632   5.277  11.203  0.7240  0.1945 -0.8124
  145SAPE   O1215886   2.460   5.204  11.355 -0.5315 -0.2204  0.1079
  145SAPE   O1115887   2.395   5.317  11.151 -0.1212  0.2639  0.7295
  145SAPE    C115888   2.365   5.209  11.066 -0.2592  0.6988 -0.3654
  145SAPE    HA15889   2.420   5.113  11.082 -0.6104  0.8984  2.2582
  145SAPE    HB15890   2.257   5.185  11.055  0.2064 -2.1273  0.7420
  145SAPE    C215891   2.402   5.257  10.921  0.1459 -0.2999  0.5969
  145SAPE    HS15892   2.510   5.279  10.917  0.0904 -0.2236 -0.4601
  145SAPE   O2115893   2.315   5.373  10.890  0.1310  0.2186 -0.6581
  145SAPE   C2115894   2.374   5.450  10.799  1.2011  0.7809  0.1888
  145SAPE   O2215895   2.480   5.438  10.749 -0.0645 -0.2932  0.1017
  145SAPE   C2215896   2.274   5.550  10.744 -0.3246  0.4692 -0.5622
  145SAPE   H2R15897   2.244   5.626  10.820 -0.6838 -1.7376  1.5597
  145SAPE   H2S15898   2.327   5.606  10.664 -2.2443 -0.2811 -2.4346
  145SAPE    C315899   2.383   5.132  10.828  0.7168  0.2544 -0.4224
  145SAPE    HX15900   2.275   5.104  10.825  0.4389  1.3436 -0.6354
  145SAPE    HY15901   2.445   5.052  10.873  0.0471  0.0805  0.2129
  145SAPE   O3115902   2.417   5.158  10.692  0.2273 -0.0939 -0.2588
  145SAPE   C3115903   2.542   5.138  10.659  0.5965 -0.5842  0.9393
  145SAPE   O3215904   2.631   5.087  10.723  0.4342 -0.2255 -0.5364
  145SAPE   C3215905   2.549   5.171  10.513 -0.4426  0.4561 -0.8851
  145SAPE   H2X15906   2.515   5.277  10.505 -0.3205  0.5112 -0.6912
  145SAPE   H2Y15907   2.478   5.110  10.454  2.5652 -1.4658 -2.6561
  145SAPE   C2315908   2.140   5.497  10.694 -0.2435  0.3378  0.2165
  145SAPE   H3R15909   2.068   5.574  10.661  0.4227  1.0127  0.3218
  145SAPE   H3S15910   2.096   5.448  10.783 -0.8809  2.5215  1.1324
  145SAPE   C2415911   2.158   5.391  10.574  0.5707 -0.1644  0.7073
  145SAPE   H4R15912   2.063   5.387  10.518  0.5824  1.5824  0.5380
  145SAPE   H4S15913   2.181   5.295  10.627 -2.8578 -0.6791  1.3461
  145SAPE   C2515914   2.263   5.418  10.467  0.1081 -0.1760  0.7470
  145SAPE   H5R15915   2.330   5.506  10.477  1.5677 -0.8375 -2.5005
  145SAPE   C2615916   2.263   5.358  10.345 -0.9295 -0.2394 -0.8851
  145SAPE   H6R15917   2.318   5.405  10.263  1.0071 -1.7720 -0.5235
  145SAPE   C2715918   2.178   5.240  10.305 -0.3763 -0.6843 -0.5770
  145SAPE   H7R15919   2.154   5.179  10.395 -0.6119  1.8309  1.1010
  145SAPE   H7S15920   2.254   5.179  10.250  0.8010  0.7034 -0.5060
  145SAPE   C2815921   2.062   5.257  10.218  0.7057  0.5070  0.1090
  145SAPE   H8R15922   2.012   5.354  10.228 -0.2488 -0.0039  0.4208
  145SAPE   C2915923   2.011   5.158  10.143 -0.3648  0.3154  0.6265
  145SAPE   H9R15924   1.920   5.172  10.081 -1.4133  2.6302  2.5986
  145SAPE  C21015925   2.064   5.019  10.133  0.3444  0.1036  0.1595
  145SAPE  H10R15926   2.049   4.965  10.229 -0.2244 -1.4257 -0.7691
  145SAPE  H10S15927   2.174   5.016  10.119  0.1538 -0.8881 -1.1629
  145SAPE  C21115928   1.988   4.934  10.032 -0.0950 -0.2711 -0.4554
  145SAPE  H11R15929   1.935   4.848  10.076 -2.2642  1.4644  0.3918
  145SAPE  C21215930   1.992   4.948   9.897  0.2701  0.0883 -0.7827
  145SAPE  H12R15931   1.931   4.869   9.852 -0.0126 -0.9804  1.3793
  145SAPE  C21315932   2.063   5.047   9.814 -0.2970  0.8317 -0.2078
  145SAPE  H13R15933   2.118   4.995   9.732  0.1834 -0.3936  0.8839
  145SAPE  H13S15934   2.140   5.094   9.878 -0.7005 -1.4789  2.0583
  145SAPE  C21415935   1.966   5.150   9.750 -0.5940  0.2106  0.4080
  145SAPE  H14R15936   1.930   5.234   9.812 -0.1491 -0.3042  1.3680
  145SAPE  C21515937   1.937   5.159   9.616  0.0932 -0.2781 -0.5574
  145SAPE  H15R15938   1.884   5.244   9.571 -0.9315 -0.2120  0.7406
  145SAPE  C21615939   1.994   5.076   9.501 -0.2070  0.4588 -0.1308
  145SAPE  H16R15940   1.967   4.968   9.511 -1.7079  0.7161 -1.1505
  145SAPE  H16S15941   2.105   5.081   9.503 -0.2677  1.8044  0.4098
  145SAPE  C21715942   1.946   5.134   9.371  0.9382  0.1471 -0.1853
  145SAPE  H17R15943   2.004   5.089   9.288  2.0349 -0.0173  0.6604
  145SAPE  H17S15944   1.967   5.242   9.357  3.4978 -0.1310  1.2910
  145SAPE  C21815945   1.799   5.109   9.346 -0.5003  0.0270 -0.7655
  145SAPE  H18R15946   1.740   5.153   9.430 -1.9984 -0.4135 -1.5740
  145SAPE  H18S15947   1.791   4.999   9.343  0.3742 -0.0432 -0.8534
  145SAPE  C21915948   1.737   5.167   9.213  0.0458 -0.2878 -0.2224
  145SAPE  H19R15949   1.760   5.276   9.215 -1.1599 -0.0177 -0.5652
  145SAPE  H19S15950   1.630   5.139   9.207 -0.3223  0.9139  0.4548
  145SAPE  C22015951   1.812   5.113   9.091 -0.4786  0.6927  0.0927
  145SAPE  H20R15952   1.918   5.137   9.114  0.5331 -2.9370 -0.4666
  145SAPE  H20S15953   1.785   5.161   8.995  1.1628 -1.3929 -1.4599
  145SAPE  H20T15954   1.801   5.003   9.074  1.8095  0.5825 -0.8251
  145SAPE   C3315955   2.683   5.133  10.446  0.3750 -0.2183  0.2465
  145SAPE   H3X15956   2.695   5.023  10.436  1.1798  0.0397 -1.8063
  145SAPE   H3Y15957   2.773   5.182  10.489  0.1573 -0.1813  0.6635
  145SAPE   C3415958   2.684   5.183  10.297 -0.5074 -0.5084 -0.1296
  145SAPE   H4X15959   2.784   5.167  10.252 -1.0554 -0.1456 -1.4907
  145SAPE   H4Y15960   2.670   5.293  10.309  0.4987 -0.2639 -1.1217
  145SAPE   C3515961   2.584   5.128  10.190  0.5639 -0.4877 -0.0358
  145SAPE   H5X15962   2.479   5.145  10.221  0.1315  0.3805 -1.9758
  145SAPE   H5Y15963   2.596   5.018  10.173 -2.0047 -0.9567  1.0271
  145SAPE   C3615964   2.589   5.212  10.061  0.4521  0.6292  0.1836
  145SAPE   H6X15965   2.685   5.191  10.009 -0.1861 -2.5474  0.1960
  145SAPE   H6Y15966   2.593   5.322  10.077  0.6422  0.7582 -0.6989
  145SAPE   C3715967   2.476   5.168   9.966 -0.8717 -0.1768  0.2605
  145SAPE   H7X15968   2.382   5.201  10.014 -0.3789  0.8021  0.5812
  145SAPE   H7Y15969   2.492   5.059   9.950 -0.2932  0.2792 -2.5409
  145SAPE   C3815970   2.482   5.245   9.829  0.3288 -0.5995  0.0165
  145SAPE   H8X15971   2.577   5.222   9.774 -0.5495 -0.5452 -1.5605
  145SAPE   H8Y15972   2.476   5.354   9.843 -0.7294 -0.9114  2.0480
  145SAPE   C3915973   2.360   5.200   9.745 -0.4365  0.2592 -0.0968
  145SAPE   H9X15974   2.269   5.240   9.795 -3.2259 -2.1828 -3.0035
  145SAPE   H9Y15975   2.339   5.091   9.737 -1.1429  0.3924 -0.0855
  145SAPE  C31015976   2.359   5.269   9.605  0.5569  0.0790  0.2827
  145SAPE  H10X15977   2.429   5.356   9.611 -0.2647  0.7360  0.4186
  145SAPE  H10Y15978   2.261   5.310   9.572  0.5567  1.5297  2.0063
  145SAPE  C31115979   2.417   5.172   9.494  0.3366 -0.3026 -0.7837
  145SAPE  H11X15980   2.351   5.083   9.483 -2.4491  1.7064 -1.0248
  145SAPE  H11Y15981   2.522   5.145   9.517 -0.0557  0.0682  1.6308
  145SAPE  C31215982   2.426   5.245   9.359 -0.2191  0.0371 -0.1578
  145SAPE  H12X15983   2.477   5.177   9.288  0.2649 -1.3184  1.4358
  145SAPE  H12Y15984   2.478   5.342   9.369 -0.4921  0.2788 -1.0946
  145SAPE  C31315985   2.292   5.276   9.299  0.3650  0.2962  0.4570
  145SAPE  H13X15986   2.269   5.364   9.363  1.5802 -0.2368  1.6507
  145SAPE  H13Y15987   2.225   5.189   9.317 -0.6460  1.1033  0.6520
  145SAPE  C31415988   2.303   5.311   9.149  0.1957 -0.2057 -0.5440
  145SAPE  H14X15989   2.305   5.219   9.087 -1.2121  0.1333 -1.1014
  145SAPE  H14Y15990   2.387   5.374   9.114  0.8496 -1.8007 -1.8963
  145SAPE  C31515991   2.175   5.382   9.092 -0.5485 -0.3725 -0.8317
  145SAPE  H15X15992   2.172   5.489   9.122  2.0756 -0.3354 -0.5795
  145SAPE  H15Y15993   2.086   5.334   9.138 -1.0502  1.4605  0.1650
  145SAPE  C31615994   2.174   5.375   8.942 -0.1730  0.6081  0.6017
  145SAPE  H16X15995   2.272   5.349   8.897 -0.7034 -1.5836  0.6232
  145SAPE  H16Y15996   2.138   5.477   8.917  0.6217  0.5237 -0.9783
  145SAPE  C31715997   2.061   5.284   8.890  0.2475 -0.2070 -0.2489
  145SAPE  H17X15998   2.035   5.328   8.792  0.5253  0.0241 -0.2191
  145SAPE  H17Y15999   1.975   5.304   8.957  2.2188 -0.6191  2.4840
  145SAPE  C31816000   2.090   5.136   8.875  0.0874  0.6857  0.3836
  145SAPE  H18X16001   2.085   5.086   8.974  0.4433  1.6240  0.8834
  145SAPE  H18Y16002   2.198   5.131   8.848  0.2590  2.1382  0.7940
  145SAPE  H18Z16003   2.024   5.077   8.808  0.3306 -0.1233  0.8471
  146SAPE     N16004   5.790   4.338  10.668 -0.0351  0.1791  0.0258
  146SAPE   HN116005   5.793   4.441  10.651 -0.4985  0.4448  1.4556
  146SAPE   HN216006   5.859   4.293  10.605 -0.3279 -1.0769  0.5949
  146SAPE   HN316007   5.696   4.298  10.652  0.1600 -0.9246  1.4934
  146SAPE   C1216008   5.820   4.319  10.818 -0.2125  0.5555 -0.2462
  146SAPE  H12A16009   5.929   4.332  10.835 -0.3600  1.1907  0.2667
  146SAPE  H12B16010   5.791   4.215  10.844  0.8948  0.4272  0.5066
  146SAPE   C1116011   5.752   4.417  10.907  1.1892  0.4659 -0.0834
  146SAPE  H11A16012   5.788   4.408  11.012  1.5127  0.6247 -0.1772
  146SAPE  H11B16013   5.646   4.384  10.906  1.1749  0.4999  0.1946
  146SAPE     P16014   5.708   4.663  10.949  0.1102 -0.0067  0.1573
  146SAPE   O1316015   5.565   4.648  10.939  0.0181 -0.2191  0.1409
  146SAPE   O1416016   5.767   4.656  11.087  0.0792 -0.2665  0.3478
  146SAPE   O1216017   5.776   4.551  10.862 -0.2570 -0.3579  0.1596
  146SAPE   O1116018   5.760   4.795  10.886  0.4907 -0.2718  0.1908
  146SAPE    C116019   5.777   4.788  10.740  0.3906  0.2402  0.0317
  146SAPE    HA16020   5.842   4.875  10.716  1.1065 -0.2529  0.1573
  146SAPE    HB16021   5.850   4.706  10.722 -1.4428 -1.0885 -1.4568
  146SAPE    C216022   5.647   4.777  10.658 -0.8575 -0.4637 -0.1609
  146SAPE    HS16023   5.615   4.672  10.679  0.1351 -0.6325  0.5716
  146SAPE   O2116024   5.688   4.796  10.522  0.0665 -0.2083 -0.2927
  146SAPE   C2116025   5.718   4.677  10.463  0.3223  0.7064 -0.3486
  146SAPE   O2216026   5.730   4.567  10.511  0.2169  0.4269 -0.1276
  146SAPE   C2216027   5.752   4.711  10.318 -0.1702  0.1980  0.1035
  146SAPE   H2R16028   5.681   4.787  10.279 -1.3259 -0.7912  0.2662
  146SAPE   H2S16029   5.854   4.753  10.326 -0.5421  0.8546  1.5356
  146SAPE    C316030   5.541   4.885  10.701  1.0216  0.2574  0.0432
  146SAPE    HX16031   5.596   4.980  10.714  0.7999  0.4874 -0.7070
  146SAPE    HY16032   5.492   4.851  10.795  0.4377 -1.8519 -1.0058
  146SAPE   O3116033   5.450   4.897  10.596  0.2650 -0.2611  0.1369
  146SAPE   C3116034   5.366   4.795  10.585  0.1384 -0.0791 -0.3127
  146SAPE   O3216035   5.348   4.701  10.660 -0.4398  0.2683  0.3218
  146SAPE   C3216036   5.283   4.804  10.448  0.1163  0.7521 -0.4698
  146SAPE   H2X16037   5.286   4.912  10.425 -1.8696  1.0028  0.3855
  146SAPE   H2Y16038   5.186   4.756  10.474  0.9804 -0.2626  0.9966
  146SAPE   C2316039   5.744   4.593  10.219  0.2357 -0.4861  0.0505
  146SAPE   H3R16040   5.636   4.573  10.203  0.1432  0.0877 -0.0625
  146SAPE   H3S16041   5.784   4.503  10.270 -1.6834 -1.4971 -0.1744
  146SAPE   C2416042   5.825   4.612  10.091 -0.6456 -0.2273  0.8156
  146SAPE   H4R16043   5.830   4.522  10.026  0.7325  0.1166  0.4355
  146SAPE   H4S16044   5.932   4.629  10.115 -0.2273 -0.0335 -1.0995
  146SAPE   C2516045   5.778   4.728  10.003  0.1242 -0.9141 -0.1602
  146SAPE   H5R16046   5.713   4.798  10.057  0.4287 -1.3948  0.8529
  146SAPE   C2616047   5.787   4.735   9.872  0.7825 -0.3651 -0.6619
  146SAPE   H6R16048   5.768   4.825   9.812  0.6550  1.1769  1.5842
  146SAPE   C2716049   5.853   4.633   9.791  0.3065  0.6236 -0.3004
  146SAPE   H7R16050   5.802   4.641   9.693 -1.6083  0.1427  0.6424
  146SAPE   H7S16051   5.832   4.532   9.831  0.0902  1.2703  1.2554
  146SAPE   C2816052   6.007   4.642   9.779  0.3462  0.1304 -0.2672
  146SAPE   H8R16053   6.070   4.617   9.866  1.4040  1.3597 -0.6789
  146SAPE   C2916054   6.074   4.660   9.664  0.3217  0.4294 -0.4095
  146SAPE   H9R16055   6.184   4.652   9.669  0.3893 -0.1937 -2.6047
  146SAPE  C21016056   6.012   4.669   9.532 -0.1692 -0.1864 -0.8436
  146SAPE  H10R16057   5.945   4.581   9.527 -0.2246 -0.2400  0.6865
  146SAPE  H10S16058   6.085   4.641   9.452 -1.3801  0.8068 -2.3356
  146SAPE  C21116059   5.941   4.794   9.488 -1.0393 -0.4832 -0.4369
  146SAPE  H11R16060   5.879   4.839   9.568  0.7950  0.7372  0.3334
  146SAPE  C21216061   5.945   4.855   9.369 -0.1102 -0.3584  1.0985
  146SAPE  H12R16062   5.891   4.951   9.360 -0.0695 -0.4343 -0.0763
  146SAPE  C21316063   6.014   4.807   9.243 -0.2355  0.0589 -0.8470
  146SAPE  H13R16064   5.942   4.814   9.159 -1.4130 -0.0382  0.1520
  146SAPE  H13S16065   6.036   4.698   9.237 -1.4147 -0.1228 -2.0799
  146SAPE  C21416066   6.155   4.868   9.221 -0.1787  0.2960 -1.1048
  146SAPE  H14R16067   6.194   4.907   9.316 -2.0533 -0.9730  0.2454
  146SAPE  C21516068   6.223   4.881   9.111  0.2979  0.0731  0.9049
  146SAPE  H15R16069   6.320   4.933   9.116 -0.3980  1.4227  0.4358
  146SAPE  C21616070   6.181   4.832   8.971 -0.7986 -0.3933 -0.0401
  146SAPE  H16R16071   6.073   4.804   8.969 -0.6936 -0.8758  0.8379
  146SAPE  H16S16072   6.247   4.745   8.954  0.2518  0.0012  1.8365
  146SAPE  C21716073   6.206   4.938   8.857  0.2010 -0.4259  0.5647
  146SAPE  H17R16074   6.234   4.882   8.765 -2.2393 -0.5038 -0.1695
  146SAPE  H17S16075   6.288   5.009   8.882 -1.3809  1.9317 -0.8089
  146SAPE  C21816076   6.085   5.027   8.833 -0.1268 -0.3188  0.0899
  146SAPE  H18R16077   6.042   5.057   8.931  0.8618 -0.4481  0.5761
  146SAPE  H18S16078   6.001   4.965   8.795  0.6289 -1.0025 -0.4698
  146SAPE  C21916079   6.093   5.135   8.723  1.1696  0.2432  0.1808
  146SAPE  H19R16080   6.015   5.210   8.745  2.1836  1.5631 -0.6085
  146SAPE  H19S16081   6.070   5.088   8.625  1.8772 -0.6169  0.4136
  146SAPE  C22016082   6.226   5.210   8.722 -0.4324 -0.2288  0.3854
  146SAPE  H20R16083   6.217   5.292   8.648  0.3533  0.8573  1.4924
  146SAPE  H20S16084   6.312   5.154   8.679 -0.6743  0.7104 -1.3544
  146SAPE  H20T16085   6.250   5.242   8.825 -0.9551 -0.1963  0.4974
  146SAPE   C3316086   5.353   4.725  10.329  0.7159 -0.4483 -0.1411
  146SAPE   H3X16087   5.329   4.618  10.348  1.4867 -0.7383 -0.8091
  146SAPE   H3Y16088   5.463   4.725  10.346  0.5423 -1.4796  1.0998
  146SAPE   C3416089   5.323   4.768  10.185  0.1210 -0.5663 -0.7777
  146SAPE   H4X16090   5.359   4.873  10.189  0.9108 -0.8974  1.8365
  146SAPE   H4Y16091   5.213   4.755  10.183 -0.2917  1.6703  3.4498
  146SAPE   C3516092   5.383   4.686  10.082 -0.5903  0.1201  0.3154
  146SAPE   H5X16093   5.361   4.579  10.106 -1.7781  0.6331  1.5761
  146SAPE   H5Y16094   5.492   4.707  10.083  0.0132 -2.6110 -1.7711
  146SAPE   C3616095   5.328   4.715   9.943  0.5175  0.5608  0.2039
  146SAPE   H6X16096   5.333   4.825   9.928  0.2355  0.5766  0.2307
  146SAPE   H6Y16097   5.221   4.690   9.953  0.7997  0.2968  2.9398
  146SAPE   C3716098   5.392   4.631   9.833 -0.0339  0.5229 -0.0701
  146SAPE   H7X16099   5.358   4.526   9.845 -1.0261  1.0211  1.5806
  146SAPE   H7Y16100   5.499   4.610   9.857 -0.1970 -1.1535 -0.7443
  146SAPE   C3816101   5.365   4.681   9.689  0.0267  0.6139  0.1684
  146SAPE   H8X16102   5.384   4.791   9.686 -1.4780  0.8457 -1.5051
  146SAPE   H8Y16103   5.258   4.676   9.660  0.3991  0.1088 -1.1621
  146SAPE   C3916104   5.441   4.626   9.571  0.2754 -0.3743  0.5975
  146SAPE   H9X16105   5.436   4.515   9.563 -1.1924 -0.2296 -0.7542
  146SAPE   H9Y16106   5.545   4.665   9.576  0.4329 -0.5851 -0.7508
  146SAPE  C31016107   5.392   4.679   9.437  0.5381 -0.4421 -0.1097
  146SAPE  H10X16108   5.400   4.790   9.440  0.4395 -0.4425  0.1898
  146SAPE  H10Y16109   5.285   4.656   9.424  0.4992 -0.4643  0.2507
  146SAPE  C31116110   5.462   4.630   9.301 -0.6839  0.0130 -0.2633
  146SAPE  H11X16111   5.421   4.677   9.210 -1.8836 -1.1680 -0.3502
  146SAPE  H11Y16112   5.442   4.522   9.285  0.3675 -0.0698 -1.1099
  146SAPE  C31216113   5.614   4.650   9.312 -0.4060 -0.5157  0.9309
  146SAPE  H12X16114   5.646   4.574   9.386  1.5999 -0.1626  0.4841
  146SAPE  H12Y16115   5.629   4.755   9.345  2.1976 -0.7226  0.5650
  146SAPE  C31316116   5.691   4.625   9.182 -0.5129 -0.2563  0.1804
  146SAPE  H13X16117   5.675   4.523   9.141 -0.0629 -0.0542 -0.5107
  146SAPE  H13Y16118   5.793   4.645   9.222 -0.5783  1.6544 -0.5539
  146SAPE  C31416119   5.653   4.721   9.067 -0.5608 -0.4621 -0.0673
  146SAPE  H14X16120   5.647   4.823   9.111 -1.2175 -1.2929  1.8151
  146SAPE  H14Y16121   5.551   4.698   9.027 -0.8897 -1.8948  1.5576
  146SAPE  C31516122   5.747   4.726   8.940  0.1214  0.5918  0.6907
  146SAPE  H15X16123   5.772   4.624   8.904 -0.9261 -0.7836  3.6893
  146SAPE  H15Y16124   5.845   4.764   8.975 -0.6418  1.2763  2.1180
  146SAPE  C31616125   5.687   4.804   8.824 -0.5249  0.0458  0.6778
  146SAPE  H16X16126   5.773   4.828   8.757 -2.5509  2.3235 -1.2277
  146SAPE  H16Y16127   5.660   4.903   8.866 -2.9482 -0.1738 -0.3027
  146SAPE  C31716128   5.569   4.739   8.749 -0.5230  0.3079  0.7027
  146SAPE  H17X16129   5.478   4.719   8.811 -2.5779  0.0426 -2.2925
  146SAPE  H17Y16130   5.605   4.643   8.707 -2.3157  0.0961 -0.4136
  146SAPE  C31816131   5.516   4.820   8.628  0.4343 -0.7474  0.1058
  146SAPE  H18X16132   5.598   4.843   8.557 -1.1407 -0.0860 -1.5420
  146SAPE  H18Y16133   5.460   4.911   8.658 -0.3429 -1.7810  1.8700
  146SAPE  H18Z16134   5.442   4.761   8.569 -0.4668  1.5509 -1.0914
  147SAPE     N16135   2.657   2.229   6.262  0.1100  0.3365 -0.4981
  147SAPE   HN116136   2.672   2.288   6.346 -0.8821  0.6937 -0.5698
  147SAPE   HN216137   2.556   2.208   6.271 -0.1261  1.9710  1.0108
  147SAPE   HN316138   2.706   2.137   6.272 -0.6586  0.2841  4.2972
  147SAPE   C1216139   2.678   2.313   6.150 -0.0122 -0.4585  0.1973
  147SAPE  H12A16140   2.712   2.252   6.064 -0.2575 -1.5432  0.8559
  147SAPE  H12B16141   2.757   2.381   6.189  0.0267 -1.2772  1.5906
  147SAPE   C1116142   2.549   2.382   6.114  0.3550  0.1201 -1.1111
  147SAPE  H11A16143   2.509   2.309   6.041  0.6188 -0.7926 -0.3526
  147SAPE  H11B16144   2.557   2.475   6.054 -0.6187 -0.9018 -2.8529
  147SAPE     P16145   2.334   2.307   6.238 -0.2782 -0.0184 -0.0699
  147SAPE   O1316146   2.251   2.326   6.122  0.3717 -0.5782 -0.0295
  147SAPE   O1416147   2.392   2.177   6.270 -0.5601  0.1241 -0.6569
  147SAPE   O1216148   2.459   2.406   6.227  0.3454  0.2296  0.1796
  147SAPE   O1116149   2.253   2.369   6.365 -0.0632  0.2312 -0.5083
  147SAPE    C116150   2.245   2.510   6.396 -0.1437  0.3801  0.1616
  147SAPE    HA16151   2.259   2.570   6.303 -0.4171  1.4237  0.7879
  147SAPE    HB16152   2.140   2.524   6.429 -0.0695  0.0567  0.5312
  147SAPE    C216153   2.340   2.546   6.513  0.3527 -0.4712 -0.4804
  147SAPE    HS16154   2.443   2.507   6.497  1.0961  1.1667  0.2554
  147SAPE   O2116155   2.285   2.482   6.631 -0.1191  0.2172  0.2246
  147SAPE   C2116156   2.372   2.424   6.711  0.7049  0.3670 -0.4235
  147SAPE   O2216157   2.488   2.395   6.687 -0.2148  0.7372 -0.1068
  147SAPE   C2216158   2.303   2.412   6.847 -0.2044  0.3841 -0.3218
  147SAPE   H2R16159   2.229   2.494   6.860 -0.7553 -0.4112  1.7967
  147SAPE   H2S16160   2.256   2.312   6.848 -0.5560  0.5528  1.1442
  147SAPE    C316161   2.351   2.700   6.542 -0.2470 -0.2009 -0.2932
  147SAPE    HX16162   2.249   2.745   6.547 -0.6541 -0.9230 -1.8508
  147SAPE    HY16163   2.390   2.742   6.447 -2.1492 -2.2288 -2.0305
  147SAPE   O3116164   2.427   2.735   6.658 -0.1120  0.2483  0.0619
  147SAPE   C3116165   2.454   2.869   6.658 -0.5072  0.7324 -0.9579
  147SAPE   O3216166   2.420   2.950   6.576 -0.1987 -0.3979 -0.5110
  147SAPE   C3216167   2.525   2.913   6.782 -0.0083 -0.2736 -0.0424
  147SAPE   H2X16168   2.493   2.849   6.867  1.2790  0.9765  1.4298
  147SAPE   H2Y16169   2.499   3.021   6.792  1.2329  0.0894 -0.6582
  147SAPE   C2316170   2.389   2.395   6.973  0.5085  0.1165 -0.6877
  147SAPE   H3R16171   2.462   2.478   6.980  2.6282 -1.8300  1.0682
  147SAPE   H3S16172   2.444   2.299   6.964  0.0420 -0.3282  1.0116
  147SAPE   C2416173   2.307   2.373   7.107 -0.4048  0.6816 -0.2514
  147SAPE   H4R16174   2.230   2.294   7.095 -1.3848  1.2558  1.9343
  147SAPE   H4S16175   2.243   2.459   7.136 -2.9455 -1.5237  0.8931
  147SAPE   C2516176   2.399   2.332   7.224 -0.4062 -0.2975  0.2180
  147SAPE   H5R16177   2.457   2.239   7.216  0.6918  0.4220 -0.2553
  147SAPE   C2616178   2.423   2.403   7.337 -0.9961 -0.6261 -0.0729
  147SAPE   H6R16179   2.491   2.354   7.408  1.4867  0.4891 -1.6413
  147SAPE   C2716180   2.377   2.545   7.368  0.4830 -0.9695 -0.1545
  147SAPE   H7R16181   2.379   2.609   7.278  0.9783  1.9789  1.8625
  147SAPE   H7S16182   2.442   2.590   7.447 -0.2447  1.0793 -0.7101
  147SAPE   C2816183   2.241   2.548   7.434  0.4882  0.3998 -0.4053
  147SAPE   H8R16184   2.164   2.581   7.364  2.3423 -0.5691 -2.9890
  147SAPE   C2916185   2.210   2.527   7.558  0.5330 -0.1802 -0.2480
  147SAPE   H9R16186   2.106   2.545   7.588 -0.9140 -2.1228 -3.7611
  147SAPE  C21016187   2.306   2.486   7.667  0.0556  0.8306 -0.0634
  147SAPE  H10R16188   2.355   2.573   7.715  0.4060  1.8257 -2.1433
  147SAPE  H10S16189   2.392   2.433   7.619  0.2472 -1.0214  2.2439
  147SAPE  C21116190   2.245   2.388   7.759  0.0451 -0.1235 -0.0460
  147SAPE  H11R16191   2.159   2.336   7.714  1.4900 -3.4479  0.8717
  147SAPE  C21216192   2.268   2.352   7.886  0.1422 -0.5254  0.6804
  147SAPE  H12R16193   2.215   2.266   7.929 -0.9003  1.3696  3.3808
  147SAPE  C21316194   2.383   2.408   7.971  0.1338  0.1444 -0.4792
  147SAPE  H13R16195   2.408   2.510   7.933  1.2774 -0.7405 -2.1781
  147SAPE  H13S16196   2.477   2.355   7.944 -0.6430 -1.8232  0.6143
  147SAPE  C21416197   2.356   2.403   8.121 -0.2915 -0.1138  0.7648
  147SAPE  H14R16198   2.360   2.296   8.144 -2.9768 -0.7367 -1.4770
  147SAPE  C21516199   2.328   2.500   8.210  0.8385 -0.2715  0.4463
  147SAPE  H15R16200   2.310   2.476   8.315 -1.9544 -1.3976 -0.2462
  147SAPE  C21616201   2.301   2.638   8.161  0.3615  0.5708 -0.1751
  147SAPE  H16R16202   2.219   2.687   8.218 -0.1095  0.0414 -0.3938
  147SAPE  H16S16203   2.266   2.639   8.055 -0.9045 -1.2411  0.2117
  147SAPE  C21716204   2.429   2.728   8.177  0.4718  0.0540  0.6853
  147SAPE  H17R16205   2.483   2.730   8.079  0.7002 -1.1942  0.7793
  147SAPE  H17S16206   2.500   2.671   8.240  0.7532 -2.4295 -1.7464
  147SAPE  C21816207   2.406   2.871   8.226  1.0017 -0.4615 -0.7507
  147SAPE  H18R16208   2.498   2.893   8.284 -0.4528 -0.5007  1.6309
  147SAPE  H18S16209   2.325   2.850   8.298  0.7364 -1.3510 -1.2981
  147SAPE  C21916210   2.360   2.967   8.126  0.3683 -0.1730 -0.0535
  147SAPE  H19R16211   2.270   2.927   8.075  0.4500  1.2226 -1.3336
  147SAPE  H19S16212   2.437   2.965   8.046  1.1487  1.6507  0.6326
  147SAPE  C22016213   2.339   3.108   8.181  0.5976  0.0477  0.2760
  147SAPE  H20R16214   2.254   3.123   8.251  1.0136 -0.1898  0.8311
  147SAPE  H20S16215   2.332   3.173   8.091  0.9736 -0.0560  0.1725
  147SAPE  H20T16216   2.428   3.146   8.235 -0.2380  0.7821  1.1718
  147SAPE   C3316217   2.677   2.909   6.755  0.5739  0.0314 -0.0922
  147SAPE   H3X16218   2.722   2.966   6.839 -1.9210 -1.5345  2.4223
  147SAPE   H3Y16219   2.701   2.945   6.653  1.5997  0.0528  0.1558
  147SAPE   C3416220   2.729   2.765   6.770 -0.2852  0.2442  0.2219
  147SAPE   H4X16221   2.692   2.719   6.675  0.5818  1.6414 -0.8182
  147SAPE   H4Y16222   2.677   2.713   6.853  0.3687 -1.7745 -0.6004
  147SAPE   C3516223   2.881   2.724   6.775  0.4330  0.4583 -0.2215
  147SAPE   H5X16224   2.922   2.782   6.860 -0.7087  0.7266  0.1663
  147SAPE   H5Y16225   2.942   2.751   6.686  0.3009  0.0382 -0.4385
  147SAPE   C3616226   2.915   2.571   6.792 -0.0754  0.6066  0.2731
  147SAPE   H6X16227   3.026   2.573   6.794 -0.0750  0.5155  0.3032
  147SAPE   H6Y16228   2.883   2.527   6.696 -0.1672  0.1562  0.5075
  147SAPE   C3716229   2.856   2.504   6.909 -0.1586 -0.6095 -0.6705
  147SAPE   H7X16230   2.878   2.395   6.914 -2.4778 -1.0299  1.0235
  147SAPE   H7Y16231   2.746   2.513   6.900  0.0224 -0.9357 -3.7300
  147SAPE   C3816232   2.888   2.566   7.044  0.4276  0.4379  0.2311
  147SAPE   H8X16233   2.843   2.667   7.046 -0.1173  0.2059 -0.2282
  147SAPE   H8Y16234   2.996   2.589   7.060  0.3889 -0.6847  2.3194
  147SAPE   C3916235   2.851   2.478   7.165  0.1346  0.0236  0.0965
  147SAPE   H9X16236   2.910   2.384   7.161 -0.5937 -0.4280 -0.3062
  147SAPE   H9Y16237   2.743   2.451   7.162  0.3522 -0.9754  0.8352
  147SAPE  C31016238   2.884   2.548   7.296 -0.7012 -0.4115  0.3713
  147SAPE  H10X16239   2.848   2.653   7.294  1.1613  0.2178 -1.1045
  147SAPE  H10Y16240   2.993   2.557   7.314 -0.8688  2.7593 -0.0296
  147SAPE  C31116241   2.810   2.480   7.409  0.2948 -0.3378 -0.5517
  147SAPE  H11X16242   2.845   2.376   7.421 -1.0551 -0.4236  3.8069
  147SAPE  H11Y16243   2.700   2.474   7.396  0.3543 -1.3526 -0.6294
  147SAPE  C31216244   2.833   2.561   7.541 -0.1046  0.3596 -0.5695
  147SAPE  H12X16245   2.792   2.663   7.526  0.9892  1.0208  0.8031
  147SAPE  H12Y16246   2.941   2.572   7.567  0.1003 -0.2566 -1.1403
  147SAPE  C31316247   2.763   2.509   7.666 -0.6109  0.3903 -0.0890
  147SAPE  H13X16248   2.779   2.401   7.688  1.2211  0.7720  0.4963
  147SAPE  H13Y16249   2.656   2.530   7.642 -0.3931 -0.7427 -2.2175
  147SAPE  C31416250   2.814   2.591   7.786 -0.2370 -0.5769 -0.1559
  147SAPE  H14X16251   2.785   2.698   7.775  0.5711 -0.3332  0.0216
  147SAPE  H14Y16252   2.924   2.599   7.793 -0.4708  1.3036  2.0143
  147SAPE  C31516253   2.763   2.524   7.912  0.5299  0.4610  0.0278
  147SAPE  H15X16254   2.823   2.431   7.923 -0.4493 -0.1156  0.5993
  147SAPE  H15Y16255   2.657   2.497   7.895  0.5770  1.5579 -2.0837
  147SAPE  C31616256   2.770   2.616   8.037  0.0117 -0.2775  0.4272
  147SAPE  H16X16257   2.679   2.679   8.032  0.0539 -0.2412  0.0533
  147SAPE  H16Y16258   2.860   2.681   8.029 -0.3447  0.0334 -1.3888
  147SAPE  C31716259   2.769   2.548   8.175  1.0071  0.4295  0.2594
  147SAPE  H17X16260   2.678   2.485   8.186  1.1391  0.1135 -0.3825
  147SAPE  H17Y16261   2.752   2.629   8.249 -1.2124  1.0351 -0.8758
  147SAPE  C31816262   2.888   2.454   8.197  0.0707  0.2219  0.0059
  147SAPE  H18X16263   2.904   2.386   8.110  1.1287  0.1063  0.2740
  147SAPE  H18Y16264   2.868   2.396   8.290  1.5324 -0.0674  0.1625
  147SAPE  H18Z16265   2.984   2.506   8.218 -1.8144  2.9806  2.0169
  148SAPE     N16266   2.067   1.890   6.593  0.0138  0.1150 -0.2633
  148SAPE   HN116267   2.058   1.793   6.631  0.3368  0.0287 -0.4096
  148SAPE   HN216268   2.113   1.954   6.660 -0.6328  0.1617  0.1411
  148SAPE   HN316269   1.967   1.908   6.572  0.1814  0.2027 -0.9931
  148SAPE   C1216270   2.140   1.885   6.469 -0.2496  0.0384  0.2588
  148SAPE  H12A16271   2.182   1.986   6.447 -1.1743  0.4409  0.3079
  148SAPE  H12B16272   2.068   1.844   6.396  1.1007 -0.6351 -0.7151
  148SAPE   C1116273   2.256   1.783   6.481  0.0322  0.1181  0.8530
  148SAPE  H11A16274   2.324   1.832   6.554  0.4711  0.9996 -0.1309
  148SAPE  H11B16275   2.305   1.784   6.381 -1.9459 -1.2573 -0.1596
  148SAPE     P16276   2.160   1.570   6.628  0.3988 -0.4857 -0.0636
  148SAPE   O1316277   2.029   1.631   6.653  0.4708 -0.1021 -0.3707
  148SAPE   O1416278   2.170   1.425   6.608  0.1711  0.0885 -0.1008
  148SAPE   O1216279   2.223   1.643   6.505 -0.1016  0.1712  0.0753
  148SAPE   O1116280   2.257   1.607   6.743 -0.4496 -0.1363  0.4546
  148SAPE    C116281   2.211   1.551   6.869  0.1426 -0.2235 -0.0714
  148SAPE    HA16282   2.124   1.608   6.908 -1.2326 -1.4336 -1.2915
  148SAPE    HB16283   2.180   1.444   6.860  0.6287 -0.4588  0.8723
  148SAPE    C216284   2.329   1.547   6.974 -0.2375  0.4459  1.0196
  148SAPE    HS16285   2.367   1.650   6.989 -0.8286  0.9695 -0.9689
  148SAPE   O2116286   2.439   1.473   6.917 -0.8841 -0.4472  0.0697
  148SAPE   C2116287   2.559   1.519   6.956  0.0698 -0.5438  0.0834
  148SAPE   O2216288   2.573   1.600   7.047 -0.6233  0.7205  0.5801
  148SAPE   C2216289   2.661   1.448   6.871 -0.3257  0.1831  0.2600
  148SAPE   H2R16290   2.627   1.353   6.825  0.2597  0.0554  0.0861
  148SAPE   H2S16291   2.667   1.510   6.779 -0.3685 -1.6984 -1.0433
  148SAPE    C316292   2.281   1.477   7.101 -0.7041  0.0989  0.1645
  148SAPE    HX16293   2.365   1.463   7.172 -0.9107  0.1652  0.4276
  148SAPE    HY16294   2.245   1.377   7.069 -0.7147  0.2462 -0.2811
  148SAPE   O3116295   2.182   1.561   7.158 -0.4297 -0.0885 -0.2300
  148SAPE   C3116296   2.074   1.500   7.206 -0.2258  0.9666  0.1354
  148SAPE   O3216297   2.059   1.378   7.195  0.4348  0.6837 -0.7619
  148SAPE   C3216298   1.993   1.595   7.287 -0.1805  0.2829  0.8323
  148SAPE   H2X16299   1.933   1.662   7.222 -1.7731 -1.9309 -0.0366
  148SAPE   H2Y16300   2.056   1.647   7.363 -2.7310 -0.0694  3.2870
  148SAPE   C2316301   2.796   1.435   6.936  0.0947  0.6558 -0.6163
  148SAPE   H3R16302   2.825   1.540   6.961  0.6369  0.2634  0.4519
  148SAPE   H3S16303   2.879   1.404   6.869 -1.5714 -1.7798 -1.6084
  148SAPE   C2416304   2.798   1.342   7.057  0.0981 -0.1020 -0.0565
  148SAPE   H4R16305   2.711   1.361   7.124  1.6503  0.7520  1.7579
  148SAPE   H4S16306   2.886   1.382   7.112  0.8232 -0.2073 -1.1352
  148SAPE   C2516307   2.791   1.200   7.018 -0.0012  0.4362  0.5497
  148SAPE   H5R16308   2.755   1.177   6.917 -0.5749  0.8929  0.6401
  148SAPE   C2616309   2.806   1.107   7.110 -0.1035 -0.1661 -0.7559
  148SAPE   H6R16310   2.807   1.000   7.084 -0.0586 -0.5446  0.7556
  148SAPE   C2716311   2.833   1.124   7.256  0.1852  0.8313 -0.5168
  148SAPE   H7R16312   2.735   1.109   7.307 -0.0377 -0.1817 -1.2344
  148SAPE   H7S16313   2.873   1.225   7.277  0.2676  0.9838 -1.3998
  148SAPE   C2816314   2.939   1.023   7.311 -0.7540  0.6412  0.2291
  148SAPE   H8R16315   3.002   0.968   7.239 -2.5909 -1.4510  0.1643
  148SAPE   C2916316   2.966   1.002   7.441 -0.4166 -0.0736 -0.2233
  148SAPE   H9R16317   3.041   0.926   7.465 -0.2295  0.0752 -0.3390
  148SAPE  C21016318   2.891   1.064   7.555 -0.1288 -0.0866  0.0493
  148SAPE  H10R16319   2.797   1.006   7.563 -1.2933  1.7770  0.0291
  148SAPE  H10S16320   2.852   1.167   7.539  1.5059  0.5349 -0.0800
  148SAPE  C21116321   2.956   1.059   7.687 -0.5784 -0.1036  1.3981
  148SAPE  H11R16322   2.896   1.001   7.758 -1.3582 -0.7089  0.2542
  148SAPE  C21216323   3.073   1.116   7.716 -0.7835  0.4795 -0.0189
  148SAPE  H12R16324   3.129   1.089   7.807 -1.2734 -1.2332 -0.1947
  148SAPE  C21316325   3.175   1.181   7.628  0.0054 -0.4996  0.1914
  148SAPE  H13R16326   3.160   1.290   7.642  0.0953 -0.6286  1.3489
  148SAPE  H13S16327   3.151   1.176   7.520  1.5200  0.3971 -0.2073
  148SAPE  C21416328   3.316   1.134   7.652  0.4298 -0.4920  0.4255
  148SAPE  H14R16329   3.313   1.043   7.715  0.8795 -1.0818 -0.3979
  148SAPE  C21516330   3.436   1.196   7.636  0.9422  0.1299  0.0207
  148SAPE  H15R16331   3.531   1.143   7.651  0.7636 -0.1762  0.0864
  148SAPE  C21616332   3.467   1.322   7.563  0.2136 -0.6744  0.8923
  148SAPE  H16R16333   3.458   1.406   7.635 -1.4026 -1.5985  1.8137
  148SAPE  H16S16334   3.380   1.334   7.495 -0.3553  0.6978  1.8322
  148SAPE  C21716335   3.603   1.317   7.495  0.0328 -0.5563 -0.1175
  148SAPE  H17R16336   3.678   1.261   7.553  0.1687 -1.5963 -1.2833
  148SAPE  H17S16337   3.627   1.426   7.496 -1.1180 -0.2868 -0.6305
  148SAPE  C21816338   3.605   1.253   7.351 -0.2714  0.4232  0.3292
  148SAPE  H18R16339   3.525   1.306   7.295 -0.7969 -0.1071  0.5699
  148SAPE  H18S16340   3.566   1.149   7.348  3.0378 -0.8674  0.2679
  148SAPE  C21916341   3.736   1.266   7.273 -0.1016  0.1101  0.8230
  148SAPE  H19R16342   3.723   1.232   7.168 -0.0119  3.4143 -0.3238
  148SAPE  H19S16343   3.807   1.187   7.303  1.8430  1.3613 -0.3736
  148SAPE  C22016344   3.808   1.406   7.262 -0.5795 -0.1689 -0.1264
  148SAPE  H20R16345   3.741   1.462   7.194 -0.3135  0.0495 -0.2107
  148SAPE  H20S16346   3.901   1.395   7.202 -2.0581 -1.7934 -2.1867
  148SAPE  H20T16347   3.823   1.459   7.359  0.6829  1.6697 -1.3039
  148SAPE   C3316348   1.883   1.542   7.376  0.1023 -0.7408  1.4243
  148SAPE   H3X16349   1.804   1.506   7.307 -0.3178  0.6292  1.1584
  148SAPE   H3Y16350   1.846   1.627   7.437 -1.9247  1.0244 -2.1044
  148SAPE   C3416351   1.921   1.433   7.480  0.2437  0.4079  0.2473
  148SAPE   H4X16352   1.906   1.337   7.427  2.4155  0.7604 -1.0554
  148SAPE   H4Y16353   1.844   1.442   7.560 -0.0843 -2.0585  0.2362
  148SAPE   C3516354   2.063   1.434   7.548  0.1487 -0.1156  0.1397
  148SAPE   H5X16355   2.138   1.440   7.466  1.2768 -1.7542  1.0186
  148SAPE   H5Y16356   2.071   1.351   7.622 -0.1629  0.4154  0.7759
  148SAPE   C3616357   2.085   1.563   7.625  0.1776 -0.1202 -0.2315
  148SAPE   H6X16358   2.035   1.563   7.724  1.5635 -1.0105  0.4781
  148SAPE   H6Y16359   2.035   1.642   7.564 -1.9765 -2.8575 -2.1510
  148SAPE   C3716360   2.238   1.596   7.645  0.1805  0.0175 -0.4544
  148SAPE   H7X16361   2.253   1.706   7.649  0.5524 -0.0433 -0.2420
  148SAPE   H7Y16362   2.288   1.552   7.556 -0.1862 -1.6237  0.1439
  148SAPE   C3816363   2.294   1.530   7.772  0.6140 -0.2437  0.4198
  148SAPE   H8X16364   2.403   1.545   7.768  0.8056 -1.3061  1.2936
  148SAPE   H8Y16365   2.269   1.421   7.769  2.6745 -0.7020 -1.5354
  148SAPE   C3916366   2.241   1.598   7.906  0.3538  0.4254  0.0818
  148SAPE   H9X16367   2.132   1.574   7.908  0.4277  0.0093 -0.5663
  148SAPE   H9Y16368   2.263   1.707   7.909  1.8302  0.1373  0.0095
  148SAPE  C31016369   2.311   1.544   8.029  0.2388  0.9276 -0.0369
  148SAPE  H10X16370   2.418   1.546   7.999  0.4349 -0.6552  0.4714
  148SAPE  H10Y16371   2.277   1.439   8.047  0.6350  0.8191  0.0870
  148SAPE  C31116372   2.289   1.612   8.166 -0.0091  0.8153  0.8721
  148SAPE  H11X16373   2.188   1.585   8.204  0.4210 -2.8708 -0.4549
  148SAPE  H11Y16374   2.293   1.722   8.147  0.5462  0.3943 -1.6697
  148SAPE  C31216375   2.408   1.564   8.259  0.1409  0.3544 -0.3027
  148SAPE  H12X16376   2.389   1.610   8.358 -0.9233 -1.8817  0.5428
  148SAPE  H12Y16377   2.500   1.605   8.211 -0.3605  3.2837  1.1301
  148SAPE  C31316378   2.419   1.414   8.283  0.4479 -0.8865  0.2372
  148SAPE  H13X16379   2.405   1.358   8.189 -2.2643  0.7742 -0.4019
  148SAPE  H13Y16380   2.326   1.383   8.335 -1.1641  2.0163 -0.7651
  148SAPE  C31416381   2.533   1.358   8.372  0.2507 -0.0491 -0.1253
  148SAPE  H14X16382   2.624   1.386   8.316 -0.9026  2.4888 -0.7932
  148SAPE  H14Y16383   2.527   1.247   8.376  0.9490 -0.0604  0.8425
  148SAPE  C31516384   2.528   1.415   8.516  0.2236 -0.4048  0.6849
  148SAPE  H15X16385   2.532   1.526   8.511  1.7834 -0.4770 -0.1338
  148SAPE  H15Y16386   2.619   1.390   8.575  0.8553 -0.2461 -0.2045
  148SAPE  C31616387   2.414   1.379   8.606  0.3234 -0.2380  0.9521
  148SAPE  H16X16388   2.398   1.270   8.593  2.1377 -0.2713 -1.3070
  148SAPE  H16Y16389   2.328   1.442   8.576  0.6326  0.4030  1.3963
  148SAPE  C31716390   2.447   1.415   8.754 -0.1618 -0.9358  0.0326
  148SAPE  H17X16391   2.528   1.349   8.792  0.4662 -0.6641 -0.8239
  148SAPE  H17Y16392   2.353   1.384   8.804  0.7918 -3.2899  0.4309
  148SAPE  C31816393   2.495   1.555   8.784 -0.2198 -0.0666  0.1519
  148SAPE  H18X16394   2.589   1.591   8.737  0.1846  1.2716  1.8983
  148SAPE  H18Y16395   2.516   1.560   8.893  1.7419 -1.7870 -0.1365
  148SAPE  H18Z16396   2.409   1.623   8.761 -0.1586  0.8944  2.6023
  149SAPE     N16397   2.906   1.569   6.434 -0.3060 -0.1161  0.5702
  149SAPE   HN116398   2.943   1.540   6.341 -0.2497  1.2521  0.1498
  149SAPE   HN216399   2.888   1.477   6.478  1.5358  0.0220  1.6783
  149SAPE   HN316400   2.813   1.613   6.423  0.6084  1.8437  0.3460
  149SAPE   C1216401   2.989   1.665   6.509 -0.1062 -0.2263  0.0057
  149SAPE  H12A16402   3.073   1.698   6.444 -0.5711  1.1508  0.0843
  149SAPE  H12B16403   3.036   1.607   6.591 -0.0986 -1.0972 -0.5964
  149SAPE   C1116404   2.902   1.775   6.569 -0.3870 -0.0355  0.9732
  149SAPE  H11A16405   2.973   1.834   6.631  0.7883  0.0941 -0.4558
  149SAPE  H11B16406   2.823   1.736   6.636  2.5289 -2.6209  3.0878
  149SAPE     P16407   2.709   1.865   6.398  0.1868  0.3028 -0.3495
  149SAPE   O1316408   2.710   1.980   6.307  0.1837 -0.2130  0.2531
  149SAPE   O1416409   2.674   1.731   6.342  0.0912 -0.0892 -0.1329
  149SAPE   O1216410   2.851   1.863   6.467  0.0394 -0.3903  0.2540
  149SAPE   O1116411   2.616   1.892   6.524  0.1895  0.2004  0.3531
  149SAPE    C116412   2.617   2.022   6.579 -0.2428  0.1085  0.0515
  149SAPE    HA16413   2.717   2.070   6.581  0.3033 -0.8907 -1.8610
  149SAPE    HB16414   2.547   2.090   6.525  0.4923 -0.1830 -1.2994
  149SAPE    C216415   2.581   2.013   6.731 -0.4049  0.1778 -1.2389
  149SAPE    HS16416   2.590   2.116   6.772  2.6183 -0.0679 -1.1579
  149SAPE   O2116417   2.665   1.921   6.801  0.1495 -0.4980  0.0768
  149SAPE   C2116418   2.790   1.950   6.824  0.5766 -0.3033 -0.3040
  149SAPE   O2216419   2.857   2.039   6.773  0.4062  0.3734  0.5794
  149SAPE   C2216420   2.838   1.843   6.932 -0.2004  0.1487  0.0671
  149SAPE   H2R16421   2.754   1.779   6.965  0.3001  0.6312  2.3978
  149SAPE   H2S16422   2.907   1.773   6.880 -1.1294 -0.0158 -0.9561
  149SAPE    C316423   2.436   1.976   6.757  0.0268 -0.3737  0.3096
  149SAPE    HX16424   2.419   1.870   6.727 -1.6780 -0.0698  0.1488
  149SAPE    HY16425   2.372   2.046   6.700 -0.4248 -0.6516  0.4721
  149SAPE   O3116426   2.405   1.991   6.899  0.3196  0.2656  0.1015
  149SAPE   C3116427   2.275   1.968   6.928  0.0519 -0.2007 -0.1771
  149SAPE   O3216428   2.186   1.950   6.845 -0.5986  0.2703 -0.1319
  149SAPE   C3216429   2.264   1.967   7.079 -0.4833  0.4812  0.2609
  149SAPE   H2X16430   2.295   2.063   7.124 -0.4666  0.2332  0.7746
  149SAPE   H2Y16431   2.344   1.898   7.113 -1.1692 -0.2054  0.4710
  149SAPE   C2316432   2.905   1.914   7.055 -0.0272 -0.5964  0.3522
  149SAPE   H3R16433   2.997   1.958   7.011 -0.2781 -1.1548 -0.7785
  149SAPE   H3S16434   2.938   1.842   7.133 -0.1383 -0.4567  0.5237
  149SAPE   C2416435   2.824   2.035   7.119  0.1481  0.4747 -0.1506
  149SAPE   H4R16436   2.805   2.122   7.053 -0.6483  1.1519  0.9355
  149SAPE   H4S16437   2.899   2.074   7.191 -0.2967  2.4873 -0.7414
  149SAPE   C2516438   2.695   1.992   7.185 -0.4081  0.1171 -0.3305
  149SAPE   H5R16439   2.623   1.957   7.109 -3.2701 -0.4019  2.5191
  149SAPE   C2616440   2.665   2.005   7.315 -0.2238 -0.0690 -0.0419
  149SAPE   H6R16441   2.568   1.971   7.354 -0.7952  0.6688 -0.8102
  149SAPE   C2716442   2.754   2.054   7.428 -0.1321 -0.5186  0.1250
  149SAPE   H7R16443   2.686   2.105   7.500  0.5426 -1.1499  1.2143
  149SAPE   H7S16444   2.820   2.139   7.400  2.0267 -1.8921  0.9156
  149SAPE   C2816445   2.853   1.955   7.484 -0.4147 -0.0860 -0.7619
  149SAPE   H8R16446   2.938   1.926   7.420  0.6098 -1.3651  1.1153
  149SAPE   C2916447   2.861   1.903   7.609  0.0250  0.0473 -0.2658
  149SAPE   H9R16448   2.936   1.826   7.631 -2.1118 -1.5286  1.7658
  149SAPE  C21016449   2.775   1.941   7.728  0.0117  0.2066  0.1987
  149SAPE  H10R16450   2.733   2.043   7.720 -2.3660 -0.6805  1.0329
  149SAPE  H10S16451   2.835   1.940   7.821 -0.4306 -2.7342  0.5047
  149SAPE  C21116452   2.665   1.837   7.742 -0.8361 -0.1842  0.0368
  149SAPE  H11R16453   2.644   1.787   7.646 -0.9793  1.6961 -0.9356
  149SAPE  C21216454   2.604   1.798   7.856  0.3766 -0.1388 -0.0656
  149SAPE  H12R16455   2.521   1.726   7.865 -1.9265  2.4386 -0.1692
  149SAPE  C21316456   2.621   1.862   7.991 -0.2860 -0.2462  0.0943
  149SAPE  H13R16457   2.728   1.850   8.016 -0.1918  1.7742  0.7416
  149SAPE  H13S16458   2.563   1.810   8.071  0.6540 -1.7234 -0.1701
  149SAPE  C21416459   2.571   2.007   7.990  0.1758  0.9521  0.0369
  149SAPE  H14R16460   2.489   2.034   7.923  3.0800  0.7222 -3.7951
  149SAPE  C21516461   2.628   2.108   8.060  0.2351  0.1933 -0.2879
  149SAPE  H15R16462   2.586   2.209   8.066  1.4559  0.7165 -0.4570
  149SAPE  C21616463   2.751   2.100   8.151  0.7883 -0.3150 -0.6046
  149SAPE  H16R16464   2.808   2.194   8.131 -0.9600  0.8520 -0.2122
  149SAPE  H16S16465   2.808   2.006   8.134  2.4401  0.4870  0.3192
  149SAPE  C21716466   2.710   2.090   8.290  0.6014 -0.0400 -0.2707
  149SAPE  H17R16467   2.645   2.001   8.308  0.8650 -0.0218  0.8500
  149SAPE  H17S16468   2.641   2.172   8.317  1.6347  0.9372 -0.5764
  149SAPE  C21816469   2.830   2.091   8.390  0.0429 -0.3867  0.1888
  149SAPE  H18R16470   2.892   2.179   8.363 -1.5492  0.6005 -0.3233
  149SAPE  H18S16471   2.894   2.001   8.376  1.5255  0.6008  0.6281
  149SAPE  C21916472   2.776   2.097   8.536 -0.2210 -0.2864 -0.2411
  149SAPE  H19R16473   2.699   2.017   8.551  0.0293 -0.4429  0.2190
  149SAPE  H19S16474   2.730   2.195   8.561 -1.2182 -1.1351  1.3643
  149SAPE  C22016475   2.893   2.073   8.628 -0.2017  0.4606  0.0201
  149SAPE  H20R16476   2.937   1.973   8.607 -2.8631 -0.5330 -1.0814
  149SAPE  H20S16477   2.867   2.076   8.736  0.5648 -0.5260  0.2414
  149SAPE  H20T16478   2.982   2.138   8.616  1.1723 -1.3672  0.0331
  149SAPE   C3316479   2.129   1.914   7.129  0.2667 -0.1360  0.1911
  149SAPE   H3X16480   2.124   1.804   7.112  0.2810  0.0444 -1.0538
  149SAPE   H3Y16481   2.034   1.953   7.086  1.4613  3.0431  0.2707
  149SAPE   C3416482   2.132   1.931   7.283  0.4128  0.0846  0.0229
  149SAPE   H4X16483   2.216   1.874   7.330  0.5124 -0.2515 -0.5579
  149SAPE   H4Y16484   2.035   1.887   7.312  0.2097  0.1251 -0.5900
  149SAPE   C3516485   2.119   2.081   7.325 -0.0578 -0.6532 -0.6194
  149SAPE   H5X16486   2.041   2.139   7.271 -1.4276 -1.8463  0.0167
  149SAPE   H5Y16487   2.209   2.139   7.297 -0.4167 -0.4680 -1.3984
  149SAPE   C3616488   2.094   2.082   7.476 -0.2621 -0.2215  0.6008
  149SAPE   H6X16489   2.090   2.191   7.500 -0.6023  0.0551 -0.6538
  149SAPE   H6Y16490   2.188   2.041   7.518 -0.5708  0.4113  1.9246
  149SAPE   C3716491   1.976   1.998   7.535 -0.6484 -0.6693 -0.1153
  149SAPE   H7X16492   1.998   1.890   7.524 -2.1372 -0.9606 -0.2238
  149SAPE   H7Y16493   1.888   2.017   7.470 -1.3385  1.1375  1.2904
  149SAPE   C3816494   1.947   2.035   7.686 -0.6702  0.4136 -0.6699
  149SAPE   H8X16495   1.861   1.973   7.721  1.1378 -0.3808  2.6026
  149SAPE   H8Y16496   1.923   2.143   7.687  2.1477  1.0675  0.4461
  149SAPE   C3916497   2.065   2.010   7.791  0.0618  0.4081  0.7058
  149SAPE   H9X16498   2.158   2.059   7.756 -0.2508  0.3110 -0.2902
  149SAPE   H9Y16499   2.088   1.902   7.773  0.1253  1.0817 -4.1091
  149SAPE  C31016500   2.037   2.040   7.931  0.3018 -0.8279 -0.2814
  149SAPE  H10X16501   1.941   1.993   7.960 -0.4974  0.6917 -0.4475
  149SAPE  H10Y16502   2.010   2.147   7.937  0.9110 -0.6654 -0.4177
  149SAPE  C31116503   2.149   1.997   8.026 -0.1158 -0.7802 -0.5022
  149SAPE  H11X16504   2.253   2.012   7.989 -0.0161 -2.1944 -0.8120
  149SAPE  H11Y16505   2.139   1.888   8.044 -0.9025 -0.1957  2.9317
  149SAPE  C31216506   2.147   2.073   8.157  0.4284 -0.0415 -0.0449
  149SAPE  H12X16507   2.043   2.077   8.196  0.0838  2.3716 -1.1037
  149SAPE  H12Y16508   2.166   2.181   8.139  0.9125  0.3597  2.6948
  149SAPE  C31316509   2.243   2.020   8.258  0.1360 -0.0145  0.1110
  149SAPE  H13X16510   2.340   1.976   8.226 -1.1411 -1.9341 -1.2310
  149SAPE  H13Y16511   2.192   1.934   8.307 -1.6988  0.8033 -0.3217
  149SAPE  C31416512   2.265   2.126   8.373  0.0317  0.4232  0.2453
  149SAPE  H14X16513   2.172   2.187   8.376  0.5753  1.2507  0.3106
  149SAPE  H14Y16514   2.345   2.200   8.358 -1.9839  2.6497  0.1471
  149SAPE  C31516515   2.283   2.065   8.508 -0.9809  0.6005  0.2533
  149SAPE  H15X16516   2.197   2.000   8.533 -0.7027  0.5713  1.1648
  149SAPE  H15Y16517   2.287   2.144   8.587  1.9895  2.7153 -1.8755
  149SAPE  C31616518   2.402   1.971   8.529  0.1104 -0.3627  0.2470
  149SAPE  H16X16519   2.489   2.031   8.495  0.1120 -0.2579  0.4327
  149SAPE  H16Y16520   2.396   1.887   8.457 -0.3006  1.6380 -2.1003
  149SAPE  C31716521   2.442   1.924   8.670  0.5312 -0.5143 -0.2834
  149SAPE  H17X16522   2.537   1.868   8.665  1.3638  0.4472  3.6309
  149SAPE  H17Y16523   2.368   1.846   8.697 -0.4935  0.4075 -0.3823
  149SAPE  C31816524   2.461   2.022   8.785  0.2311  0.3680 -0.1132
  149SAPE  H18X16525   2.368   2.082   8.796 -0.4310 -0.5577 -0.5684
  149SAPE  H18Y16526   2.540   2.094   8.757 -0.6997  1.2510 -0.5159
  149SAPE  H18Z16527   2.478   1.961   8.877  0.4178  1.3428  0.5005
  150SAPE     N16528   1.024   4.495   6.389  0.2835  0.2451 -0.4942
  150SAPE   HN116529   0.927   4.457   6.395  0.9327 -1.1952  1.5896
  150SAPE   HN216530   1.021   4.575   6.323 -2.1284  0.5998 -0.0194
  150SAPE   HN316531   1.090   4.422   6.357 -0.1768  0.7197 -2.6201
  150SAPE   C1216532   1.093   4.525   6.524  0.0355  0.3299  0.5124
  150SAPE  H12A16533   1.058   4.450   6.598  1.6819 -1.0658 -0.0890
  150SAPE  H12B16534   1.049   4.622   6.555 -1.3077 -0.0239 -0.2416
  150SAPE   C1116535   1.242   4.516   6.506 -0.1564 -0.1873  0.5281
  150SAPE  H11A16536   1.281   4.539   6.608  2.3297 -2.0377  0.0579
  150SAPE  H11B16537   1.273   4.593   6.433 -1.6750 -0.4048 -0.3674
  150SAPE     P16538   1.381   4.298   6.562 -0.3205 -0.1916  0.2744
  150SAPE   O1316539   1.367   4.161   6.508 -0.2302 -1.0290  0.2252
  150SAPE   O1416540   1.517   4.355   6.559  0.4833 -0.1659 -0.4284
  150SAPE   O1216541   1.285   4.386   6.475 -0.0185 -0.2338 -0.6670
  150SAPE   O1116542   1.317   4.300   6.706  0.0096  0.1540 -0.6008
  150SAPE    C116543   1.181   4.248   6.721  0.2570  0.1057  0.7200
  150SAPE    HA16544   1.126   4.340   6.750  1.4236  0.9159  0.4166
  150SAPE    HB16545   1.130   4.208   6.631 -0.1575 -1.3817  1.6021
  150SAPE    C216546   1.181   4.136   6.828  0.6410  0.3005  0.5589
  150SAPE    HS16547   1.081   4.089   6.824 -0.1578  2.0811 -2.4977
  150SAPE   O2116548   1.210   4.197   6.954 -0.0935  0.3423 -0.0540
  150SAPE   C2116549   1.099   4.235   7.016 -0.4615  0.0126 -0.4915
  150SAPE   O2216550   0.984   4.204   6.997 -0.5290 -0.2030 -0.0286
  150SAPE   C2216551   1.140   4.300   7.155 -0.7425 -0.4819 -0.3818
  150SAPE   H2R16552   1.220   4.236   7.199  0.4082  1.2290  0.0593
  150SAPE   H2S16553   1.182   4.398   7.125  0.7403 -0.9112  0.2392
  150SAPE    C316554   1.282   4.032   6.796  0.2644  0.0948 -0.3814
  150SAPE    HX16555   1.378   4.086   6.785  1.1137 -1.3458 -0.1241
  150SAPE    HY16556   1.249   3.998   6.695 -3.9100  0.6224  0.6877
  150SAPE   O3116557   1.293   3.921   6.897  0.2323  0.5778  0.0558
  150SAPE   C3116558   1.371   3.817   6.862  0.3752  0.9494 -0.8795
  150SAPE   O3216559   1.436   3.810   6.761  0.1282  0.8153 -0.0307
  150SAPE   C3216560   1.374   3.705   6.972  0.1012  0.2980  0.1783
  150SAPE   H2X16561   1.465   3.708   7.035  0.6209 -2.9350 -0.3113
  150SAPE   H2Y16562   1.385   3.616   6.907 -3.8040 -0.7541  0.7953
  150SAPE   C2316563   1.019   4.326   7.246  0.0699 -0.0390  0.4055
  150SAPE   H3R16564   0.939   4.371   7.183 -0.4975 -0.7093  0.6302
  150SAPE   H3S16565   1.041   4.403   7.323  0.3208 -2.1277  2.4609
  150SAPE   C2416566   0.976   4.197   7.324  0.4089 -0.6100 -0.6215
  150SAPE   H4R16567   1.063   4.162   7.384  0.2739 -1.8715 -1.1384
  150SAPE   H4S16568   0.952   4.127   7.241 -1.4239  1.3322 -1.7786
  150SAPE   C2516569   0.849   4.217   7.410 -0.2334  0.6650 -0.4178
  150SAPE   H5R16570   0.755   4.220   7.352  0.0836 -0.2604 -0.9807
  150SAPE   C2616571   0.848   4.238   7.539  0.4280 -0.4734 -0.1451
  150SAPE   H6R16572   0.748   4.273   7.570 -0.1897  0.7909 -3.4185
  150SAPE   C2716573   0.965   4.247   7.631 -0.3132 -0.8647 -0.2474
  150SAPE   H7R16574   1.046   4.181   7.594  0.6136  0.0487  0.1212
  150SAPE   H7S16575   0.928   4.218   7.732 -0.7946  0.8185  0.0715
  150SAPE   C2816576   1.035   4.379   7.644  0.4962 -0.1391  0.1269
  150SAPE   H8R16577   1.053   4.431   7.549 -0.5845 -1.9164 -1.0936
  150SAPE   C2916578   1.079   4.432   7.759 -0.2496  0.3340  0.1622
  150SAPE   H9R16579   1.125   4.532   7.749  0.7294  0.0006  1.2083
  150SAPE  C21016580   1.083   4.372   7.897 -0.1721 -0.8474 -0.3376
  150SAPE  H10R16581   0.982   4.336   7.925 -0.5588  0.5110  0.0369
  150SAPE  H10S16582   1.088   4.455   7.971  0.1480 -1.6124  0.5122
  150SAPE  C21116583   1.189   4.271   7.905  0.3741 -0.1407  0.0684
  150SAPE  H11R16584   1.263   4.268   7.824 -1.1229 -2.4164 -1.2360
  150SAPE  C21216585   1.214   4.198   8.010  0.4462  0.1437  0.2094
  150SAPE  H12R16586   1.292   4.122   8.005 -0.4391 -0.6846 -1.1790
  150SAPE  C21316587   1.133   4.196   8.138  0.1145  0.5278 -0.3848
  150SAPE  H13R16588   1.026   4.220   8.122  0.8773  2.5059 -2.9052
  150SAPE  H13S16589   1.174   4.273   8.207  0.5373  0.1100 -0.1706
  150SAPE  C21416590   1.122   4.063   8.210  0.1309  0.3372 -0.0044
  150SAPE  H14R16591   1.031   4.015   8.172 -0.5206  0.9376  0.7663
  150SAPE  C21516592   1.179   4.018   8.322  0.0404  0.2700 -0.3353
  150SAPE  H15R16593   1.170   3.911   8.345  0.0101  0.7262  1.9151
  150SAPE  C21616594   1.283   4.090   8.408  0.5737  0.4856  0.2933
  150SAPE  H16R16595   1.279   4.199   8.386 -3.9159  0.2284 -0.6268
  150SAPE  H16S16596   1.387   4.056   8.389 -0.0722 -1.3458 -0.0071
  150SAPE  C21716597   1.260   4.086   8.558 -0.4473  0.1865 -0.4847
  150SAPE  H17R16598   1.262   3.978   8.584 -0.9733  0.7274  1.9984
  150SAPE  H17S16599   1.164   4.135   8.586  0.3015  0.8488  1.0218
  150SAPE  C21816600   1.373   4.161   8.631 -0.0245  0.2675 -0.0163
  150SAPE  H18R16601   1.331   4.176   8.732  0.7680 -0.5302  0.4385
  150SAPE  H18S16602   1.402   4.262   8.592 -0.7293  1.0007  1.3364
  150SAPE  C21916603   1.498   4.077   8.650 -0.0727  0.2111  0.1316
  150SAPE  H19R16604   1.544   4.071   8.549  2.0125 -0.7286  1.1251
  150SAPE  H19S16605   1.481   3.970   8.672  1.0191 -0.5316 -2.3767
  150SAPE  C22016606   1.583   4.137   8.762 -0.4816 -0.0575  0.2124
  150SAPE  H20R16607   1.670   4.069   8.780 -0.3106  0.2929  0.7319
  150SAPE  H20S16608   1.532   4.139   8.861 -0.9181  1.1336 -0.0250
  150SAPE  H20T16609   1.625   4.236   8.732 -3.7379  0.9682 -1.2016
  150SAPE   C3316610   1.242   3.699   7.059 -0.4590 -0.1722  0.0622
  150SAPE   H3X16611   1.202   3.598   7.036 -1.0476  0.2480 -0.7909
  150SAPE   H3Y16612   1.164   3.773   7.031  0.8961  1.2075 -0.1711
  150SAPE   C3416613   1.270   3.723   7.216  0.0689  0.4336 -0.6135
  150SAPE   H4X16614   1.348   3.654   7.252  0.7422  1.0453 -0.8856
  150SAPE   H4Y16615   1.179   3.682   7.265 -0.1994  1.1321 -0.5098
  150SAPE   C3516616   1.302   3.866   7.253 -0.5900 -0.6508 -0.8706
  150SAPE   H5X16617   1.213   3.929   7.231  0.4890  0.9303 -0.7654
  150SAPE   H5Y16618   1.379   3.896   7.178 -0.2421 -0.1766 -0.3278
  150SAPE   C3616619   1.351   3.899   7.390 -0.7118  0.8537 -0.8423
  150SAPE   H6X16620   1.398   3.998   7.402  0.7888 -0.0207  0.7565
  150SAPE   H6Y16621   1.429   3.829   7.426 -2.7662 -0.1683  1.8335
  150SAPE   C3716622   1.234   3.891   7.487 -0.6307 -0.2760 -0.3097
  150SAPE   H7X16623   1.197   3.786   7.488  1.0484 -0.8890 -0.4471
  150SAPE   H7Y16624   1.153   3.956   7.448 -3.5711 -2.2077  2.3233
  150SAPE   C3816625   1.262   3.938   7.633 -0.8904  0.0874 -0.6745
  150SAPE   H8X16626   1.171   3.962   7.693 -0.4890  0.6354 -0.2718
  150SAPE   H8Y16627   1.317   4.035   7.629 -0.0520 -0.1120  3.3635
  150SAPE   C3916628   1.342   3.835   7.706  0.2652 -0.5165  0.3116
  150SAPE   H9X16629   1.441   3.829   7.656  0.7695 -2.6622  1.5332
  150SAPE   H9Y16630   1.277   3.746   7.695  0.1849 -0.1236 -2.7907
  150SAPE  C31016631   1.367   3.870   7.859  0.2628 -0.7859 -0.0204
  150SAPE  H10X16632   1.267   3.874   7.908  0.1551  1.6868 -0.3788
  150SAPE  H10Y16633   1.395   3.977   7.872 -0.5589 -0.3296 -1.9027
  150SAPE  C31116634   1.466   3.778   7.932  0.3583  0.7752  0.6209
  150SAPE  H11X16635   1.561   3.799   7.880 -0.0848  2.0752  0.3180
  150SAPE  H11Y16636   1.443   3.671   7.914  0.6613  1.0422 -1.4763
  150SAPE  C31216637   1.464   3.811   8.080  0.0498 -0.6120 -0.0087
  150SAPE  H12X16638   1.366   3.798   8.129  0.0140 -1.0729 -0.2070
  150SAPE  H12Y16639   1.490   3.919   8.092 -1.6864 -0.0936 -0.8040
  150SAPE  C31316640   1.574   3.737   8.161  0.5484  0.5760 -0.6432
  150SAPE  H13X16641   1.671   3.763   8.113  0.8210 -0.2283 -0.5261
  150SAPE  H13Y16642   1.565   3.630   8.132  1.2479 -0.4752  2.7923
  150SAPE  C31416643   1.566   3.752   8.316  0.4094 -0.1022 -0.5524
  150SAPE  H14X16644   1.548   3.858   8.341  2.2477 -0.3988  2.2688
  150SAPE  H14Y16645   1.667   3.728   8.355  0.2736  0.1727 -0.0242
  150SAPE  C31516646   1.447   3.678   8.374 -0.6429 -0.2060 -0.4775
  150SAPE  H15X16647   1.453   3.573   8.339  1.7218 -0.5719  0.9022
  150SAPE  H15Y16648   1.351   3.714   8.331  0.3275  1.5855 -1.2189
  150SAPE  C31616649   1.419   3.687   8.523  0.3911  1.3181 -0.4394
  150SAPE  H16X16650   1.395   3.793   8.546 -0.1944  1.2826 -0.8740
  150SAPE  H16Y16651   1.508   3.648   8.577  0.2283  2.0123  0.3368
  150SAPE  C31716652   1.314   3.583   8.567  0.8024  0.6878  0.6079
  150SAPE  H17X16653   1.342   3.484   8.526 -0.8343  0.6038 -0.3774
  150SAPE  H17Y16654   1.214   3.611   8.526  0.8176  2.4910  1.7193
  150SAPE  C31816655   1.290   3.570   8.718 -0.3716  0.1269  0.8271
  150SAPE  H18X16656   1.220   3.489   8.749 -0.5346  0.8765  2.4428
  150SAPE  H18Y16657   1.247   3.666   8.751  0.1899  0.6616  0.0278
  150SAPE  H18Z16658   1.380   3.542   8.776 -1.0130  0.0095  1.7741
  151SAPE     N16659   3.855   0.372   6.143  1.0374  0.3854  0.0059
  151SAPE   HN116660   3.805   0.378   6.234 -0.2810 -1.3097 -0.5807
  151SAPE   HN216661   3.836   0.457   6.088  2.0021 -0.0830 -1.0833
  151SAPE   HN316662   3.836   0.279   6.101 -0.7693  0.9025 -0.3285
  151SAPE   C1216663   4.006   0.377   6.177  0.2158 -0.3290  0.5196
  151SAPE  H12A16664   4.062   0.394   6.082  0.3597 -0.5310  0.5682
  151SAPE  H12B16665   4.028   0.277   6.220 -0.7896 -0.5405  0.5477
  151SAPE   C1116666   4.035   0.468   6.290 -0.6571 -0.0800  0.6174
  151SAPE  H11A16667   4.142   0.446   6.307 -1.0558 -0.8769  2.2015
  151SAPE  H11B16668   3.977   0.450   6.383 -0.6909 -0.8010  0.4592
  151SAPE     P16669   3.914   0.703   6.306  0.4880  0.1464  0.7797
  151SAPE   O1316670   3.921   0.833   6.231  0.2250 -0.0458 -0.3238
  151SAPE   O1416671   3.783   0.642   6.313 -0.0759 -0.9610  0.2058
  151SAPE   O1216672   4.020   0.605   6.241  0.0265  0.1991  1.1843
  151SAPE   O1116673   3.972   0.722   6.446  0.1995 -0.3025 -0.1545
  151SAPE    C116674   4.107   0.752   6.485  0.5935  0.3948  0.6767
  151SAPE    HA16675   4.173   0.700   6.412 -1.2124 -0.9284 -0.0673
  151SAPE    HB16676   4.128   0.861   6.482 -1.0832  0.7887  2.2392
  151SAPE    C216677   4.150   0.689   6.629 -0.0765  0.1217 -0.5785
  151SAPE    HS16678   4.260   0.698   6.640 -0.2946 -0.0451  2.0005
  151SAPE   O2116679   4.095   0.552   6.640 -0.6376 -0.5724 -0.0082
  151SAPE   C2116680   4.167   0.456   6.595  0.5851  0.1060 -0.0590
  151SAPE   O2216681   4.279   0.472   6.548 -0.1425 -0.2886  0.8411
  151SAPE   C2216682   4.105   0.317   6.608  0.2165  0.2388 -0.3477
  151SAPE   H2R16683   3.994   0.324   6.599 -0.1418 -1.5746  2.1120
  151SAPE   H2S16684   4.144   0.258   6.523  0.2654 -0.7772  0.3741
  151SAPE    C316685   4.078   0.772   6.738 -1.5661 -0.9780  0.1514
  151SAPE    HX16686   3.968   0.759   6.727 -2.1673  2.6565  1.3808
  151SAPE    HY16687   4.087   0.881   6.718 -2.3524 -1.0973 -0.8821
  151SAPE   O3116688   4.104   0.742   6.877 -0.5192  0.3484 -0.1890
  151SAPE   C3116689   4.201   0.819   6.935 -0.8402 -0.0374  0.3491
  151SAPE   O3216690   4.273   0.900   6.880  0.6949  0.1828 -0.3293
  151SAPE   C3216691   4.209   0.777   7.083 -0.6253  0.1265  0.2668
  151SAPE   H2X16692   4.156   0.680   7.094  1.9824 -1.7743 -2.7965
  151SAPE   H2Y16693   4.151   0.851   7.142  1.1348  1.4685  0.3681
  151SAPE   C2316694   4.129   0.251   6.748  0.8089 -0.0593  0.1036
  151SAPE   H3R16695   4.040   0.186   6.762  1.8227 -0.8683  3.2612
  151SAPE   H3S16696   4.104   0.319   6.833  0.4489 -0.8485  0.6346
  151SAPE   C2416697   4.257   0.175   6.763  0.0808 -0.0317 -1.1854
  151SAPE   H4R16698   4.287   0.110   6.678  0.3924 -0.0206 -1.0837
  151SAPE   H4S16699   4.241   0.095   6.839 -1.1070  0.9066 -0.4245
  151SAPE   C2516700   4.376   0.263   6.797  0.1588  0.1190  0.3643
  151SAPE   H5R16701   4.447   0.275   6.714  0.3546 -0.3341  0.4623
  151SAPE   C2616702   4.420   0.279   6.921 -0.6540 -0.5565 -0.1917
  151SAPE   H6R16703   4.517   0.327   6.941 -1.1868 -0.5745  2.6613
  151SAPE   C2716704   4.358   0.228   7.044 -0.1928 -0.1544 -0.7600
  151SAPE   H7R16705   4.264   0.171   7.029  0.3787 -1.6913  1.2002
  151SAPE   H7S16706   4.334   0.320   7.102 -0.9392 -1.6933  1.4260
  151SAPE   C2816707   4.440   0.131   7.132  1.1393 -0.4695  0.7603
  151SAPE   H8R16708   4.510   0.067   7.077  2.0698  1.9508 -1.0013
  151SAPE   C2916709   4.443   0.120   7.267  0.2098  0.4671  0.1601
  151SAPE   H9R16710   4.498   0.041   7.321 -1.5332  0.0660  1.3826
  151SAPE  C21016711   4.359   0.201   7.358  0.2593  0.1190 -0.1635
  151SAPE  H10R16712   4.335   0.137   7.445  1.6810  1.2956  1.1383
  151SAPE  H10S16713   4.265   0.233   7.307 -0.4026 -0.2094  0.8324
  151SAPE  C21116714   4.421   0.335   7.400 -0.0851 -0.2126 -0.6948
  151SAPE  H11R16715   4.443   0.400   7.315 -2.1957  1.5385  0.0546
  151SAPE  C21216716   4.462   0.371   7.523 -0.3773 -0.1280  0.3145
  151SAPE  H12R16717   4.513   0.468   7.534  2.1870 -1.4252  0.3208
  151SAPE  C21316718   4.462   0.292   7.650 -0.0536 -0.4004  0.1330
  151SAPE  H13R16719   4.555   0.310   7.709 -0.4916 -2.5098  1.5323
  151SAPE  H13S16720   4.461   0.182   7.636 -2.6315 -0.1505 -1.9727
  151SAPE  C21416721   4.335   0.324   7.721  0.3466  0.1831 -0.1561
  151SAPE  H14R16722   4.245   0.326   7.657 -1.6769  0.6911  2.6379
  151SAPE  C21516723   4.323   0.362   7.850 -0.5425 -0.2478  0.2982
  151SAPE  H15R16724   4.219   0.385   7.876 -0.6412 -0.9324  0.5290
  151SAPE  C21616725   4.438   0.372   7.949  0.5536  0.6125  0.8215
  151SAPE  H16R16726   4.526   0.409   7.892  1.3039 -0.8827  0.9634
  151SAPE  H16S16727   4.465   0.276   7.998  1.9177 -0.0548 -1.1491
  151SAPE  C21716728   4.412   0.477   8.063 -0.4444 -0.3200  0.3332
  151SAPE  H17R16729   4.312   0.463   8.108  0.1892 -1.2124  1.4759
  151SAPE  H17S16730   4.405   0.574   8.008 -1.2730 -0.7431 -0.3262
  151SAPE  C21816731   4.522   0.472   8.169  0.0586  0.2396 -0.8459
  151SAPE  H18R16732   4.621   0.492   8.125 -0.7013 -0.2648 -2.8420
  151SAPE  H18S16733   4.522   0.378   8.227  1.7347  1.7407  1.6652
  151SAPE  C21916734   4.500   0.576   8.283 -0.2254 -0.5465  0.0713
  151SAPE  H19R16735   4.399   0.546   8.320 -0.5161  1.2553  0.7799
  151SAPE  H19S16736   4.501   0.678   8.240  0.5739  0.4315  2.3277
  151SAPE  C22016737   4.600   0.571   8.399  0.4985  0.6606 -0.4320
  151SAPE  H20R16738   4.704   0.586   8.361  1.1559 -1.9755  0.2673
  151SAPE  H20S16739   4.563   0.647   8.472  1.5688 -1.6283  2.5810
  151SAPE  H20T16740   4.593   0.471   8.447  0.7366  0.6065 -0.5095
  151SAPE   C3316741   4.352   0.780   7.132  0.9653  0.5706  0.4431
  151SAPE   H3X16742   4.387   0.885   7.136  2.0622  0.2546 -0.5086
  151SAPE   H3Y16743   4.423   0.725   7.067  0.6868 -0.2265  0.8094
  151SAPE   C3416744   4.368   0.716   7.268  0.8393  0.7649 -0.5117
  151SAPE   H4X16745   4.473   0.732   7.303  0.1829 -0.3737  2.1155
  151SAPE   H4Y16746   4.340   0.609   7.254  2.0155  0.4207 -0.3181
  151SAPE   C3516747   4.276   0.778   7.382 -0.6771  0.1095  0.3846
  151SAPE   H5X16748   4.171   0.762   7.350  0.1923 -1.3458 -1.8672
  151SAPE   H5Y16749   4.286   0.888   7.379 -3.1076  0.3892  1.4328
  151SAPE   C3616750   4.303   0.733   7.522 -0.7499  0.1781 -0.5202
  151SAPE   H6X16751   4.302   0.623   7.541  3.1164  0.5888  2.4789
  151SAPE   H6Y16752   4.224   0.768   7.592 -0.5317  1.2087 -0.7900
  151SAPE   C3716753   4.432   0.790   7.580 -0.2943  0.3671 -1.0732
  151SAPE   H7X16754   4.428   0.901   7.580  0.9389  0.4277  0.2117
  151SAPE   H7Y16755   4.513   0.755   7.514 -0.3535  0.7718 -1.3674
  151SAPE   C3816756   4.466   0.742   7.730  0.4782 -0.6946  0.0288
  151SAPE   H8X16757   4.530   0.652   7.720 -1.4461 -1.9724 -1.0195
  151SAPE   H8Y16758   4.372   0.725   7.787  0.3309  0.4117  0.1238
  151SAPE   C3916759   4.569   0.832   7.802  0.4643  0.1420 -0.5456
  151SAPE   H9X16760   4.540   0.938   7.792 -2.0338 -0.2938  1.4910
  151SAPE   H9Y16761   4.660   0.826   7.739  0.1357  1.1391 -1.1298
  151SAPE  C31016762   4.596   0.793   7.943  0.5976 -0.6362 -0.1575
  151SAPE  H10X16763   4.630   0.689   7.961  1.8263 -0.0561  0.8894
  151SAPE  H10Y16764   4.501   0.795   8.001  1.7378 -0.1034  1.7496
  151SAPE  C31116765   4.700   0.884   8.010 -0.1922 -0.7589 -0.3401
  151SAPE  H11X16766   4.681   0.992   7.998  1.1531 -0.5900 -1.0374
  151SAPE  H11Y16767   4.802   0.868   7.969  0.1988  0.0880  0.2785
  151SAPE  C31216768   4.710   0.851   8.162  0.0295  0.5583  0.3362
  151SAPE  H12X16769   4.737   0.744   8.172 -1.0784  0.1345 -1.0832
  151SAPE  H12Y16770   4.611   0.852   8.213  0.2746  1.0566  0.8043
  151SAPE  C31316771   4.808   0.922   8.251  0.6175  0.1804 -0.2322
  151SAPE  H13X16772   4.775   1.026   8.267  2.0817  0.5904  0.1889
  151SAPE  H13Y16773   4.909   0.926   8.204  1.1001  0.9383  0.8698
  151SAPE  C31416774   4.831   0.845   8.385  0.2345  0.4649 -0.0749
  151SAPE  H14X16775   4.859   0.739   8.368  0.7980  0.0700  2.9254
  151SAPE  H14Y16776   4.735   0.852   8.442 -0.0342 -0.3076 -0.4370
  151SAPE  C31516777   4.945   0.894   8.469  0.5210  0.2134  0.0798
  151SAPE  H15X16778   4.925   0.999   8.501 -0.4456  0.6446 -1.8628
  151SAPE  H15Y16779   5.040   0.890   8.410  1.0428 -0.2571  0.9465
  151SAPE  C31616780   4.979   0.804   8.587  0.1641  0.0792 -0.1399
  151SAPE  H16X16781   4.981   0.697   8.556 -4.5371 -0.0032 -0.4996
  151SAPE  H16Y16782   4.895   0.809   8.659 -0.6584  0.9473 -1.1359
  151SAPE  C31716783   5.110   0.848   8.652 -0.3242 -0.7053 -0.3632
  151SAPE  H17X16784   5.092   0.956   8.671 -1.0967 -1.1932  1.8040
  151SAPE  H17Y16785   5.193   0.853   8.578  0.4317  0.7901  0.5585
  151SAPE  C31816786   5.144   0.793   8.785 -0.4852  0.4601  0.3260
  151SAPE  H18X16787   5.204   0.702   8.763  0.7472  1.3674 -0.1259
  151SAPE  H18Y16788   5.055   0.757   8.841 -0.8755 -0.9024 -1.1323
  151SAPE  H18Z16789   5.199   0.871   8.842 -0.3975  1.0669 -0.5769
  152SAPE     N16790   1.004   5.394   6.667 -0.2658  0.3484 -0.1235
  152SAPE   HN116791   1.036   5.474   6.726  0.2632 -2.2726  3.2872
  152SAPE   HN216792   0.920   5.423   6.612  1.5793  1.7268 -2.2823
  152SAPE   HN316793   0.976   5.313   6.726 -0.7066  1.3229  1.0345
  152SAPE   C1216794   1.111   5.332   6.567  0.8646 -0.1073  0.2692
  152SAPE  H12A16795   1.183   5.280   6.634  0.0322 -3.0257 -1.0656
  152SAPE  H12B16796   1.150   5.419   6.509  1.9473 -1.4405 -1.0220
  152SAPE   C1116797   1.044   5.220   6.492  0.1383  0.4046  0.0989
  152SAPE  H11A16798   1.122   5.171   6.430 -1.0075 -1.7308  0.3272
  152SAPE  H11B16799   0.970   5.258   6.419  1.9018 -0.1959 -2.0722
  152SAPE     P16800   0.930   4.984   6.518  0.1834  0.1313  0.3251
  152SAPE   O1316801   1.010   4.960   6.397  0.1951  0.0403 -0.4634
  152SAPE   O1416802   0.932   4.872   6.621  0.4129 -0.4925 -0.1113
  152SAPE   O1216803   0.987   5.116   6.578  0.4109 -0.3496  0.6536
  152SAPE   O1116804   0.775   5.033   6.492  0.5553  0.0235  0.0701
  152SAPE    C116805   0.694   5.095   6.597  0.1567 -0.7022 -0.2160
  152SAPE    HA16806   0.757   5.137   6.679  0.3427  0.3391 -0.8863
  152SAPE    HB16807   0.631   5.178   6.559 -0.2362 -1.4031 -1.1163
  152SAPE    C216808   0.590   4.999   6.663  0.1138 -0.3664  0.3306
  152SAPE    HS16809   0.525   5.062   6.727 -1.0577 -1.3059  0.0725
  152SAPE   O2116810   0.657   4.901   6.741 -0.6815 -0.1315  0.4250
  152SAPE   C2116811   0.675   4.928   6.868  0.5874 -0.2375 -0.2817
  152SAPE   O2216812   0.614   5.015   6.931 -0.1313  0.0252  0.1177
  152SAPE   C2216813   0.756   4.821   6.935 -0.9606  0.1625  0.2953
  152SAPE   H2R16814   0.685   4.736   6.921 -2.9423  1.8789 -0.3688
  152SAPE   H2S16815   0.847   4.801   6.874 -2.5012 -0.1603 -1.9915
  152SAPE    C316816   0.509   4.935   6.551  0.1360  0.0371 -0.2807
  152SAPE    HX16817   0.555   4.855   6.490 -0.0659 -1.1525  1.1212
  152SAPE    HY16818   0.482   5.016   6.480  0.0066  0.9893  0.8395
  152SAPE   O3116819   0.383   4.890   6.601  0.9684  0.2154  0.4229
  152SAPE   C3116820   0.380   4.765   6.649  0.0363  0.1533 -1.2163
  152SAPE   O3216821   0.470   4.687   6.636  0.0250 -0.0033 -0.1371
  152SAPE   C3216822   0.249   4.725   6.726 -0.0544  0.3741 -0.0920
  152SAPE   H2X16823   0.227   4.627   6.678 -1.3287  0.2322  0.7407
  152SAPE   H2Y16824   0.162   4.787   6.693  0.2170  1.3373  0.9722
  152SAPE   C2316825   0.795   4.850   7.081  0.2361  0.4519 -0.8272
  152SAPE   H3R16826   0.709   4.871   7.149 -1.0560  0.5949 -2.4678
  152SAPE   H3S16827   0.856   4.943   7.086 -1.8116  1.8325 -0.5010
  152SAPE   C2416828   0.869   4.733   7.158 -0.0701  0.5747  0.6848
  152SAPE   H4R16829   0.878   4.644   7.093 -1.9279  0.1263  1.0039
  152SAPE   H4S16830   0.806   4.710   7.246  2.2074 -1.1907  1.9241
  152SAPE   C2516831   1.000   4.778   7.198  1.2486  0.0271 -0.1152
  152SAPE   H5R16832   1.041   4.825   7.108  0.0034 -1.3058 -1.4063
  152SAPE   C2616833   1.063   4.779   7.318 -0.5047 -0.1335  0.5927
  152SAPE   H6R16834   1.160   4.831   7.310 -0.7802  0.1623 -0.9982
  152SAPE   C2716835   1.015   4.718   7.446 -0.0507 -0.6060  0.1915
  152SAPE   H7R16836   1.073   4.625   7.463  0.7745  0.1348  1.5416
  152SAPE   H7S16837   0.907   4.690   7.444 -0.3819  0.5962  0.4626
  152SAPE   C2816838   1.036   4.796   7.573 -0.8999 -0.1221 -0.3451
  152SAPE   H8R16839   1.128   4.856   7.584 -0.1442 -0.7382 -3.0799
  152SAPE   C2916840   0.956   4.809   7.683 -0.1629  0.3840 -0.5044
  152SAPE   H9R16841   1.005   4.856   7.770  1.4323  2.0472 -2.2716
  152SAPE  C21016842   0.816   4.757   7.707 -0.5121 -0.0677  0.8677
  152SAPE  H10R16843   0.752   4.756   7.616  1.5131 -0.3859 -0.5742
  152SAPE  H10S16844   0.765   4.836   7.766 -1.2270 -0.3920  0.6868
  152SAPE  C21116845   0.815   4.622   7.774  0.4638  0.0457 -0.0473
  152SAPE  H11R16846   0.786   4.538   7.709 -1.9954 -0.6050  1.8269
  152SAPE  C21216847   0.834   4.596   7.903  0.5419  0.3957 -0.3100
  152SAPE  H12R16848   0.826   4.489   7.928 -0.4922  0.5047 -0.1357
  152SAPE  C21316849   0.859   4.691   8.012  0.3371  0.2726  0.1350
  152SAPE  H13R16850   0.809   4.789   7.997  1.3423  0.7831  0.0257
  152SAPE  H13S16851   0.964   4.728   8.014 -0.4975  2.8864 -1.2278
  152SAPE  C21416852   0.819   4.635   8.149 -0.2871  0.1283  0.1851
  152SAPE  H14R16853   0.712   4.613   8.165 -0.9193  3.8295  1.6013
  152SAPE  C21516854   0.905   4.616   8.256 -0.5211 -0.3805 -0.5365
  152SAPE  H15R16855   0.857   4.567   8.342 -1.2322  0.8316 -0.2240
  152SAPE  C21616856   1.050   4.639   8.256  0.5518 -0.5345 -0.6758
  152SAPE  H16R16857   1.090   4.735   8.297 -0.1679 -1.1531  1.5649
  152SAPE  H16S16858   1.091   4.621   8.155  0.3230  0.2004 -0.9021
  152SAPE  C21716859   1.124   4.532   8.338  0.2978  0.3133  0.1788
  152SAPE  H17R16860   1.224   4.554   8.294  0.8478  0.0109  1.2572
  152SAPE  H17S16861   1.092   4.433   8.301 -3.0994  0.9702  1.1990
  152SAPE  C21816862   1.100   4.541   8.492  0.3123  0.4731 -0.3440
  152SAPE  H18R16863   0.992   4.533   8.519  0.9281 -0.8759  1.8266
  152SAPE  H18S16864   1.149   4.637   8.518  1.2658 -0.1421  0.1152
  152SAPE  C21916865   1.179   4.435   8.566  0.2516 -0.1340 -0.4710
  152SAPE  H19R16866   1.278   4.418   8.518  1.3065  1.6687  1.0178
  152SAPE  H19S16867   1.135   4.335   8.544  2.5766 -1.6187  1.3738
  152SAPE  C22016868   1.202   4.463   8.714  0.3359  0.5392 -0.1988
  152SAPE  H20R16869   1.235   4.568   8.735  1.5559 -0.4935  3.3947
  152SAPE  H20S16870   1.269   4.382   8.750 -0.2705  0.3986  0.6202
  152SAPE  H20T16871   1.112   4.437   8.773 -0.7839  0.2646 -1.9795
  152SAPE   C3316872   0.239   4.704   6.872 -0.2044  0.0560  0.3175
  152SAPE   H3X16873   0.291   4.612   6.906  1.2952  0.8254  0.1744
  152SAPE   H3Y16874   0.132   4.698   6.899 -0.4764  1.4758 -0.3579
  152SAPE   C3416875   0.296   4.815   6.950  0.6590  0.1431  0.0782
  152SAPE   H4X16876   0.266   4.914   6.909 -1.8872 -0.4456  0.4758
  152SAPE   H4Y16877   0.407   4.818   6.958  0.5928  2.2938  0.6779
  152SAPE   C3516878   0.247   4.817   7.101  0.0789 -0.3932  0.5567
  152SAPE   H5X16879   0.254   4.717   7.150 -1.5575 -1.2569 -0.9364
  152SAPE   H5Y16880   0.139   4.837   7.084 -0.1053 -0.5616  1.4976
  152SAPE   C3616881   0.315   4.923   7.181 -0.7096  0.4212  0.5459
  152SAPE   H6X16882   0.306   5.018   7.125  0.3284 -0.4360 -1.1126
  152SAPE   H6Y16883   0.421   4.898   7.205  0.2600  2.5000 -1.4372
  152SAPE   C3716884   0.248   4.945   7.313  0.7320 -0.1407 -0.1082
  152SAPE   H7X16885   0.236   4.843   7.356  1.2086 -0.4993 -0.8383
  152SAPE   H7Y16886   0.145   4.985   7.298  1.0223  2.2231  3.5453
  152SAPE   C3816887   0.316   5.041   7.408 -0.6365 -0.3323  0.8443
  152SAPE   H8X16888   0.293   5.146   7.380 -1.1866 -0.7835 -0.4505
  152SAPE   H8Y16889   0.426   5.025   7.406 -0.8570 -1.8356  0.1514
  152SAPE   C3916890   0.270   5.026   7.554  0.0421 -0.8546  0.0037
  152SAPE   H9X16891   0.353   5.074   7.611  1.1693 -1.6257 -0.9856
  152SAPE   H9Y16892   0.259   4.923   7.594 -0.3415 -0.2769  1.4243
  152SAPE  C31016893   0.152   5.114   7.601  0.2091  0.6277 -0.1401
  152SAPE  H10X16894   0.100   5.076   7.691 -1.9007  1.2801 -1.0371
  152SAPE  H10Y16895   0.075   5.117   7.521 -0.6725 -0.9295  0.6289
  152SAPE  C31116896   0.201   5.254   7.618  0.3533 -0.2010 -0.5959
  152SAPE  H11X16897   0.249   5.278   7.521  0.0749 -0.8121 -0.8883
  152SAPE  H11Y16898   0.279   5.256   7.697 -0.4242 -4.1548  0.3753
  152SAPE  C31216899   0.082   5.338   7.662  0.1948  0.5616 -0.0130
  152SAPE  H12X16900   0.000   5.310   7.592  0.7554  0.2666 -0.5494
  152SAPE  H12Y16901   0.110   5.442   7.638  0.6209  0.1234 -1.4420
  152SAPE  C31316902   0.046   5.318   7.808  0.2650  0.2009 -0.4831
  152SAPE  H13X16903   0.134   5.328   7.875 -1.9578  3.6222  2.1286
  152SAPE  H13Y16904   0.009   5.216   7.829  0.7524 -0.6629 -3.5804
  152SAPE  C31416905  -0.072   5.413   7.852  0.2149  0.3659 -0.9120
  152SAPE  H14X16906  -0.161   5.366   7.805  1.7662 -2.2166 -1.3315
  152SAPE  H14Y16907  -0.063   5.519   7.818 -0.2903  0.9757  0.7891
  152SAPE  C31516908  -0.077   5.408   8.011 -0.0589  0.0138  0.3631
  152SAPE  H15X16909  -0.107   5.304   8.038 -0.7807 -0.0198 -0.5410
  152SAPE  H15Y16910  -0.168   5.461   8.047  1.2326  2.4737  0.1031
  152SAPE  C31616911   0.036   5.451   8.101  0.0288  0.0115  0.1128
  152SAPE  H16X16912   0.066   5.557   8.086  1.0048  0.1187  2.6415
  152SAPE  H16Y16913   0.124   5.389   8.074  1.7274  1.7291  1.5720
  152SAPE  C31716914  -0.004   5.429   8.247  0.0863  0.6431  0.2196
  152SAPE  H17X16915  -0.029   5.322   8.260 -0.0331  0.5972 -0.3909
  152SAPE  H17Y16916  -0.083   5.502   8.275  0.9385  1.3446  0.8696
  152SAPE  C31816917   0.119   5.467   8.340 -0.1318 -0.0149  1.0112
  152SAPE  H18X16918   0.139   5.576   8.339 -0.7501  0.0966 -0.3540
  152SAPE  H18Y16919   0.215   5.431   8.296  1.0412  5.5076 -1.2819
  152SAPE  H18Z16920   0.109   5.418   8.439 -1.7143 -1.1293  0.3189
  153SAPE     N16921   3.860   4.144   6.388  0.5450 -0.1581  0.8428
  153SAPE   HN116922   3.912   4.060   6.355  0.7932  0.9728 -1.7579
  153SAPE   HN216923   3.920   4.197   6.455  1.7594 -0.7862  0.2711
  153SAPE   HN316924   3.773   4.121   6.440  0.7511 -0.0406  1.2441
  153SAPE   C1216925   3.820   4.232   6.268 -0.7731  0.0136 -0.7640
  153SAPE  H12A16926   3.748   4.179   6.202 -1.9878 -1.1437  1.4193
  153SAPE  H12B16927   3.916   4.242   6.214 -0.6770 -0.0542 -0.6083
  153SAPE   C1116928   3.775   4.368   6.324 -0.0097 -0.3420 -0.4593
  153SAPE  H11A16929   3.676   4.359   6.373  0.2421  0.6836  0.2431
  153SAPE  H11B16930   3.761   4.432   6.234  0.4433 -0.0602 -0.3337
  153SAPE     P16931   3.902   4.572   6.420  0.2045  0.3035 -0.0677
  153SAPE   O1316932   4.041   4.589   6.398 -0.9149 -0.5116  0.4832
  153SAPE   O1416933   3.806   4.651   6.336  0.3947  0.1731  0.1363
  153SAPE   O1216934   3.880   4.420   6.410  0.1514  0.0847 -0.3712
  153SAPE   O1116935   3.869   4.603   6.574 -0.1700 -0.0948  0.0155
  153SAPE    C116936   3.808   4.494   6.647  0.3004 -0.4641 -0.0333
  153SAPE    HA16937   3.704   4.472   6.616  0.0936 -0.6176  0.7671
  153SAPE    HB16938   3.874   4.405   6.642 -1.1090 -1.5719  0.6343
  153SAPE    C216939   3.784   4.541   6.798  0.7020  0.0969  0.6092
  153SAPE    HS16940   3.723   4.632   6.778  0.0159 -0.1177  1.6522
  153SAPE   O2116941   3.894   4.568   6.877 -0.3964  0.4477 -0.3744
  153SAPE   C2116942   3.884   4.662   6.963 -1.0092  0.9783 -0.3961
  153SAPE   O2216943   3.794   4.737   6.982  0.2598  0.4156  0.4978
  153SAPE   C2216944   4.015   4.688   7.048  0.2832  0.4248  0.0534
  153SAPE   H2R16945   4.093   4.616   7.016  1.4381  0.4230  2.7027
  153SAPE   H2S16946   4.042   4.793   7.027 -1.3841  1.1555  1.4530
  153SAPE    C316947   3.700   4.433   6.873  0.4407  0.1489  0.0462
  153SAPE    HX16948   3.761   4.340   6.865 -1.4734 -1.1315  0.2553
  153SAPE    HY16949   3.612   4.398   6.815  1.4846 -3.1504  0.3562
  153SAPE   O3116950   3.670   4.462   7.014 -0.2204 -0.2714  0.2956
  153SAPE   C3116951   3.553   4.515   7.029 -0.4487  0.4109 -0.6756
  153SAPE   O3216952   3.473   4.536   6.940  0.0890  0.6469 -0.0687
  153SAPE   C3216953   3.526   4.526   7.182 -0.1474 -0.4091 -0.2932
  153SAPE   H2X16954   3.433   4.465   7.192 -0.1533 -0.9989 -3.4723
  153SAPE   H2Y16955   3.500   4.633   7.193  0.1503  0.0364 -3.6062
  153SAPE   C2316956   3.990   4.682   7.204 -0.3519 -0.9187 -0.0814
  153SAPE   H3R16957   3.968   4.578   7.234 -0.2257 -0.7581  0.5847
  153SAPE   H3S16958   3.905   4.747   7.234  1.2031  1.0161  0.2572
  153SAPE   C2416959   4.106   4.737   7.295 -0.4153  0.5456 -1.1072
  153SAPE   H4R16960   4.074   4.716   7.399 -1.4492  3.1067 -0.8884
  153SAPE   H4S16961   4.110   4.848   7.291 -0.9955  0.5646 -1.0827
  153SAPE   C2516962   4.244   4.686   7.257  0.1725  0.0978 -0.7971
  153SAPE   H5R16963   4.272   4.668   7.152  0.3530 -0.1033 -0.7148
  153SAPE   C2616964   4.322   4.637   7.355  0.2139 -0.3525 -1.1308
  153SAPE   H6R16965   4.411   4.591   7.311 -0.2807 -2.0903 -0.3600
  153SAPE   C2716966   4.292   4.624   7.508 -0.1983 -0.2803  0.5183
  153SAPE   H7R16967   4.210   4.552   7.529 -0.0422 -0.6175  0.0047
  153SAPE   H7S16968   4.263   4.723   7.549  1.1758 -0.0658  0.9955
  153SAPE   C2816969   4.413   4.580   7.574  0.1750 -0.2214 -0.6698
  153SAPE   H8R16970   4.512   4.595   7.529  1.5110  0.6042  2.4569
  153SAPE   C2916971   4.421   4.516   7.696 -0.3893  0.5284  0.4364
  153SAPE   H9R16972   4.521   4.496   7.737 -0.4738  2.7179  1.8038
  153SAPE  C21016973   4.310   4.482   7.789  0.0619  0.3077 -0.5780
  153SAPE  H10R16974   4.350   4.412   7.866  3.1240  2.2987 -0.2695
  153SAPE  H10S16975   4.238   4.418   7.734  3.1214 -2.2832 -1.7591
  153SAPE  C21116976   4.240   4.598   7.862 -0.6526  0.7403  0.7145
  153SAPE  H11R16977   4.285   4.697   7.851  1.2827 -0.3780 -1.9534
  153SAPE  C21216978   4.146   4.590   7.957  0.3964 -0.5849 -0.1671
  153SAPE  H12R16979   4.119   4.686   8.003 -2.1559 -0.9471 -0.8816
  153SAPE  C21316980   4.071   4.472   8.012  0.0369  0.0945 -0.1069
  153SAPE  H13R16981   4.143   4.387   8.014  1.0259  0.9483  1.0339
  153SAPE  H13S16982   3.988   4.437   7.947  0.6199 -1.8922  0.1884
  153SAPE  C21416983   4.016   4.484   8.151 -0.2986 -0.3913  0.1159
  153SAPE  H14R16984   3.994   4.588   8.179  0.1698  0.1384 -1.4462
  153SAPE  C21516985   3.995   4.394   8.250 -0.1210 -1.1191 -0.0628
  153SAPE  H15R16986   3.952   4.429   8.345 -3.9655 -2.1729 -1.3589
  153SAPE  C21616987   4.018   4.244   8.244 -0.4444  0.0483 -0.1027
  153SAPE  H16R16988   3.980   4.203   8.148 -1.4126  0.5536  0.0557
  153SAPE  H16S16989   3.951   4.192   8.316 -1.3316 -0.5551 -1.3420
  153SAPE  C21716990   4.171   4.206   8.261  1.1113 -0.2578  0.4821
  153SAPE  H17R16991   4.222   4.248   8.171 -1.4938  2.7187  0.3071
  153SAPE  H17S16992   4.177   4.095   8.257  2.3511 -0.1270 -2.0078
  153SAPE  C21816993   4.230   4.258   8.393 -0.1295 -0.6344 -0.4149
  153SAPE  H18R16994   4.155   4.244   8.474  0.8567 -1.1326  0.4199
  153SAPE  H18S16995   4.253   4.365   8.375  2.4080 -1.0802 -0.0594
  153SAPE  C21916996   4.368   4.202   8.431  0.6650  0.0022  0.1836
  153SAPE  H19R16997   4.442   4.203   8.348 -1.6603  1.8767 -1.9277
  153SAPE  H19S16998   4.360   4.101   8.475  1.4389 -0.3636 -0.5072
  153SAPE  C22016999   4.440   4.291   8.537  0.1197 -0.1385 -0.9158
  153SAPE  H20R17000   4.432   4.398   8.506 -1.5540 -0.0544 -0.2443
  153SAPE  H20S17001   4.544   4.257   8.554 -0.0642 -0.6736 -0.8587
  153SAPE  H20T17002   4.385   4.288   8.633 -2.8396  2.7598 -2.4308
  153SAPE   C3317003   3.625   4.481   7.285 -0.3982 -0.1390 -0.2872
  153SAPE   H3X17004   3.726   4.494   7.240 -0.0812  1.6939  0.8963
  153SAPE   H3Y17005   3.607   4.373   7.306 -2.5648  0.4373  1.0288
  153SAPE   C3417006   3.613   4.570   7.410 -0.5162 -0.0035 -0.2284
  153SAPE   H4X17007   3.512   4.542   7.448 -0.9187  1.9384  0.1729
  153SAPE   H4Y17008   3.613   4.676   7.379  1.2321  0.3374  0.9100
  153SAPE   C3517009   3.729   4.544   7.516  0.8977 -0.1209  0.2391
  153SAPE   H5X17010   3.830   4.557   7.472  0.5546  1.1500 -0.1944
  153SAPE   H5Y17011   3.721   4.436   7.541  0.8638  0.0175  0.8319
  153SAPE   C3617012   3.736   4.624   7.655  0.5950 -0.4870  0.3970
  153SAPE   H6X17013   3.753   4.729   7.622  0.3637  0.4400  3.1397
  153SAPE   H6Y17014   3.828   4.597   7.710  1.4828  3.8481  1.2453
  153SAPE   C3717015   3.613   4.593   7.736  0.3644 -0.9015  0.3708
  153SAPE   H7X17016   3.542   4.558   7.658  1.1105 -1.8217  0.0830
  153SAPE   H7Y17017   3.572   4.686   7.779  2.9029  0.3793  0.1261
  153SAPE   C3817018   3.638   4.500   7.856 -0.1696 -0.7373 -0.3405
  153SAPE   H8X17019   3.704   4.541   7.936 -2.1767  0.1686  0.9090
  153SAPE   H8Y17020   3.694   4.413   7.816  1.6523  1.4132 -2.6708
  153SAPE   C3917021   3.515   4.440   7.921  0.2796 -1.0977  0.9754
  153SAPE   H9X17022   3.451   4.386   7.848  0.3578  1.3466 -0.9849
  153SAPE   H9Y17023   3.458   4.531   7.950 -0.9463 -2.0098  1.4859
  153SAPE  C31017024   3.546   4.338   8.036  0.1265  0.2307  0.4247
  153SAPE  H10X17025   3.566   4.416   8.113  1.3600 -0.3776  0.7261
  153SAPE  H10Y17026   3.635   4.277   8.010 -0.9796 -2.0023  1.7586
  153SAPE  C31117027   3.420   4.258   8.080  0.6416 -0.3220 -0.1387
  153SAPE  H11X17028   3.332   4.325   8.064  0.8936 -0.3085 -1.5871
  153SAPE  H11Y17029   3.431   4.220   8.183 -1.0111  0.1332  0.2309
  153SAPE  C31217030   3.403   4.131   7.984  0.6422 -0.2454  0.5862
  153SAPE  H12X17031   3.452   4.150   7.887 -0.4241  0.6273  0.2037
  153SAPE  H12Y17032   3.294   4.128   7.962  1.2633  1.3836 -2.8756
  153SAPE  C31317033   3.458   4.003   8.042  0.3099  0.1720  0.1011
  153SAPE  H13X17034   3.429   3.981   8.147 -0.8122 -1.3091 -0.5036
  153SAPE  H13Y17035   3.568   4.021   8.033  0.4130 -0.7838 -0.5729
  153SAPE  C31417036   3.426   3.872   7.961  0.4284 -0.1903 -0.2527
  153SAPE  H14X17037   3.322   3.841   7.986  0.3927 -1.5479 -1.9926
  153SAPE  H14Y17038   3.504   3.797   7.985  0.5725 -0.2470 -0.8791
  153SAPE  C31517039   3.426   3.877   7.808 -0.1291  0.7275 -0.2825
  153SAPE  H15X17040   3.525   3.910   7.771  0.2058 -0.9402 -0.9482
  153SAPE  H15Y17041   3.355   3.949   7.762 -0.3231  0.4679 -0.3954
  153SAPE  C31617042   3.398   3.735   7.752  0.2889 -0.2312 -0.1564
  153SAPE  H16X17043   3.298   3.697   7.784  0.7039 -0.5481  0.7903
  153SAPE  H16Y17044   3.476   3.668   7.793  0.4096 -0.0977 -0.1698
  153SAPE  C31717045   3.406   3.723   7.602  0.4970 -0.4473 -0.5559
  153SAPE  H17X17046   3.308   3.755   7.559  1.5277  1.6435 -1.4152
  153SAPE  H17Y17047   3.416   3.614   7.587  1.4552 -0.5007  0.4401
  153SAPE  C31817048   3.516   3.800   7.531 -0.3117  0.0404 -0.1635
  153SAPE  H18X17049   3.513   3.784   7.421  0.2841 -0.3551 -0.1299
  153SAPE  H18Y17050   3.614   3.754   7.557 -0.2935  0.7490  1.0939
  153SAPE  H18Z17051   3.500   3.908   7.552 -1.7304 -0.6927  2.7804
  154SAPE     N17052   2.129   4.019   6.047  0.4399  0.0319 -0.2439
  154SAPE   HN117053   2.139   4.121   6.067 -0.5134  0.0557  0.1221
  154SAPE   HN217054   2.125   3.999   5.945 -1.1895 -2.0799  0.2055
  154SAPE   HN317055   2.049   3.985   6.104  0.4447  0.9576  0.3286
  154SAPE   C1217056   2.242   3.950   6.118 -0.2886  0.9273  0.3119
  154SAPE  H12A17057   2.331   3.970   6.054 -0.8521  0.4636 -0.6381
  154SAPE  H12B17058   2.221   3.843   6.140 -3.2823  1.6398  1.0540
  154SAPE   C1117059   2.266   4.029   6.245 -0.2842  0.6875  0.5120
  154SAPE  H11A17060   2.328   3.961   6.307  0.0829 -0.6434 -1.2768
  154SAPE  H11B17061   2.172   4.052   6.300 -0.4298  1.0004  0.1361
  154SAPE     P17062   2.257   4.290   6.219 -0.0033  0.0836  0.2586
  154SAPE   O1317063   2.362   4.393   6.199 -0.2652  0.3982  0.6010
  154SAPE   O1417064   2.148   4.287   6.121 -0.1410 -0.2851  0.9000
  154SAPE   O1217065   2.336   4.147   6.218  0.0526 -1.0333  0.1815
  154SAPE   O1117066   2.196   4.296   6.365 -0.0591  0.1592  1.1272
  154SAPE    C117067   2.278   4.315   6.483 -0.0359 -0.0522  0.6153
  154SAPE    HA17068   2.385   4.290   6.466 -0.3658 -0.5570 -0.7962
  154SAPE    HB17069   2.261   4.424   6.497  1.2512  0.5466 -2.0982
  154SAPE    C217070   2.227   4.226   6.596  0.3946 -0.1093 -0.3438
  154SAPE    HS17071   2.253   4.264   6.698  0.0745 -0.7597 -0.0169
  154SAPE   O2117072   2.272   4.083   6.591 -0.1244 -0.1322  0.4963
  154SAPE   C2117073   2.403   4.071   6.616  1.1061  0.1211  0.0167
  154SAPE   O2217074   2.478   4.163   6.647  0.9245 -0.2045  0.2718
  154SAPE   C2217075   2.452   3.928   6.624 -0.2947  0.1772 -0.2099
  154SAPE   H2R17076   2.377   3.860   6.577  0.1127 -1.1851  1.0679
  154SAPE   H2S17077   2.544   3.925   6.562  0.2454 -2.7347  0.6438
  154SAPE    C317078   2.065   4.212   6.590 -0.7904  0.0660  0.3940
  154SAPE    HX17079   2.024   4.165   6.497  0.8579 -1.2056  0.2841
  154SAPE    HY17080   2.048   4.321   6.577 -2.4201 -0.3968 -1.7113
  154SAPE   O3117081   2.014   4.163   6.715 -0.4552 -0.4038  0.0249
  154SAPE   C3117082   1.883   4.212   6.735  0.8551 -0.3262 -0.0524
  154SAPE   O3217083   1.842   4.302   6.663  0.2354  0.1250  0.5316
  154SAPE   C3217084   1.826   4.160   6.862  0.2688 -0.0585  0.1268
  154SAPE   H2X17085   1.873   4.213   6.947 -0.3412 -3.0434  2.4126
  154SAPE   H2Y17086   1.854   4.054   6.877  0.4876  0.3530  2.7756
  154SAPE   C2317087   2.500   3.875   6.766  0.6363 -0.5313 -0.0397
  154SAPE   H3R17088   2.562   3.958   6.807 -0.8735  1.5921 -1.9221
  154SAPE   H3S17089   2.565   3.791   6.734 -0.1774 -0.9836 -0.5182
  154SAPE   C2417090   2.376   3.833   6.848 -0.7691  0.0998 -0.3305
  154SAPE   H4R17091   2.410   3.780   6.939  0.5551  1.8410  0.2244
  154SAPE   H4S17092   2.313   3.757   6.798 -1.1856  1.5614 -2.0635
  154SAPE   C2517093   2.300   3.960   6.885  0.5402  0.4998 -0.5729
  154SAPE   H5R17094   2.223   3.980   6.808 -0.1384  0.5251  0.1029
  154SAPE   C2617095   2.301   4.025   7.005 -0.5826  0.3830  0.1308
  154SAPE   H6R17096   2.241   4.117   7.018  0.3406  1.2103 -1.3163
  154SAPE   C2717097   2.385   3.991   7.120  0.4959  0.6624  0.0095
  154SAPE   H7R17098   2.399   4.085   7.177  2.3910 -0.4147  1.3864
  154SAPE   H7S17099   2.488   3.970   7.086 -0.2065 -3.1562 -0.0363
  154SAPE   C2817100   2.335   3.881   7.213 -1.5896 -0.4811  0.8131
  154SAPE   H8R17101   2.287   3.801   7.154  0.4082 -1.1282 -0.0096
  154SAPE   C2917102   2.338   3.879   7.346 -0.9621  0.5719  0.5991
  154SAPE   H9R17103   2.302   3.787   7.393  0.1100 -0.2728 -0.2103
  154SAPE  C21017104   2.402   3.983   7.430  0.1065  0.4446  0.4533
  154SAPE  H10R17105   2.314   4.031   7.478 -1.9623 -0.4876 -2.3068
  154SAPE  H10S17106   2.450   4.063   7.370 -1.0773  1.7460  1.1953
  154SAPE  C21117107   2.488   3.919   7.533  0.3676 -0.7374 -0.0519
  154SAPE  H11R17108   2.587   3.886   7.497  1.4221  2.0528  0.1882
  154SAPE  C21217109   2.463   3.900   7.661 -0.0219 -0.1189 -0.3998
  154SAPE  H12R17110   2.536   3.842   7.720 -1.9352 -1.4018  0.7676
  154SAPE  C21317111   2.335   3.939   7.734  0.2828 -0.5127  0.8022
  154SAPE  H13R17112   2.249   3.941   7.663  2.5215 -2.4623 -2.0734
  154SAPE  H13S17113   2.347   4.041   7.778 -2.1626 -0.8965  2.4623
  154SAPE  C21417114   2.288   3.835   7.839 -0.7681 -1.0370 -0.4332
  154SAPE  H14R17115   2.224   3.755   7.799 -1.2732  1.4338 -4.8813
  154SAPE  C21517116   2.334   3.830   7.968  0.6038 -0.2890  0.1580
  154SAPE  H15R17117   2.297   3.754   8.038 -1.0349  0.3215 -0.0371
  154SAPE  C21617118   2.431   3.925   8.040 -0.1616  0.4066 -0.5196
  154SAPE  H16R17119   2.487   3.960   7.951 -1.7102  0.3415 -1.5364
  154SAPE  H16S17120   2.501   3.858   8.094 -0.8186  1.0793  1.1940
  154SAPE  C21717121   2.362   4.033   8.121  0.6652  0.0596  0.1076
  154SAPE  H17R17122   2.318   3.980   8.208  1.2070 -1.3665 -0.4605
  154SAPE  H17S17123   2.279   4.087   8.072  0.5593 -0.1529  0.0560
  154SAPE  C21817124   2.472   4.136   8.162  0.7062  0.5428 -0.0549
  154SAPE  H18R17125   2.542   4.092   8.237 -0.3401 -0.7313  0.2026
  154SAPE  H18S17126   2.409   4.213   8.211 -1.8506 -1.0033 -0.7948
  154SAPE  C21917127   2.559   4.213   8.053 -0.3196  0.1305 -0.1261
  154SAPE  H19R17128   2.613   4.143   7.986  1.2202  1.5427 -0.4181
  154SAPE  H19S17129   2.633   4.276   8.109 -0.4362 -0.4147  0.6552
  154SAPE  C22017130   2.466   4.286   7.952 -0.0503 -0.2111  0.4572
  154SAPE  H20R17131   2.408   4.371   7.994  1.3117 -0.2461  2.4888
  154SAPE  H20S17132   2.386   4.216   7.922  0.3496  0.0189 -1.1826
  154SAPE  H20T17133   2.516   4.313   7.857 -0.5300 -0.5876  0.0993
  154SAPE   C3317134   1.676   4.168   6.870  0.5132  0.0276 -0.0662
  154SAPE   H3X17135   1.646   4.110   6.780  2.3569  0.5485 -1.0729
  154SAPE   H3Y17136   1.654   4.276   6.854 -0.0413 -0.2981 -1.6801
  154SAPE   C3417137   1.618   4.118   6.991 -0.1489 -0.8501 -0.5545
  154SAPE   H4X17138   1.652   4.015   7.014 -1.5292 -0.9690  1.1280
  154SAPE   H4Y17139   1.507   4.111   6.993 -0.1221 -1.3746 -1.1249
  154SAPE   C3517140   1.648   4.201   7.116  0.5644  0.1485  0.2577
  154SAPE   H5X17141   1.617   4.305   7.094  1.9954  0.1707 -1.8256
  154SAPE   H5Y17142   1.757   4.190   7.134  0.4870 -1.5705 -0.2519
  154SAPE   C3617143   1.580   4.166   7.242  0.4805  0.5752 -0.8263
  154SAPE   H6X17144   1.550   4.060   7.246 -0.3809  0.7914 -1.4445
  154SAPE   H6Y17145   1.491   4.231   7.252  0.4662  0.2933  0.9155
  154SAPE   C3717146   1.665   4.210   7.366 -0.4644 -0.8386  0.7044
  154SAPE   H7X17147   1.687   4.319   7.356 -2.0943 -0.6273 -1.1259
  154SAPE   H7Y17148   1.767   4.167   7.362  1.4320  3.0500  3.7764
  154SAPE   C3817149   1.597   4.192   7.502  0.4974 -0.5314  0.0835
  154SAPE   H8X17150   1.574   4.085   7.517  0.2877 -0.5875 -0.6237
  154SAPE   H8Y17151   1.503   4.249   7.492  1.4309  0.8497 -1.0061
  154SAPE   C3917152   1.674   4.235   7.622 -0.0434 -0.0256  1.6457
  154SAPE   H9X17153   1.651   4.343   7.635 -0.2223  0.1716 -0.1408
  154SAPE   H9Y17154   1.782   4.214   7.607 -0.6632 -1.6466 -0.8838
  154SAPE  C31017155   1.633   4.165   7.759 -0.1468 -0.4582 -0.1907
  154SAPE  H10X17156   1.637   4.055   7.745  0.4889 -0.5560  0.7772
  154SAPE  H10Y17157   1.527   4.187   7.783  0.2616 -0.7151  1.9298
  154SAPE  C31117158   1.722   4.217   7.864  0.1549 -0.2690  0.3006
  154SAPE  H11X17159   1.701   4.326   7.867  1.6203 -0.0182  1.5415
  154SAPE  H11Y17160   1.832   4.208   7.852  0.4738  0.8521  2.2235
  154SAPE  C31217161   1.689   4.147   7.992 -0.1035 -0.1021 -0.2282
  154SAPE  H12X17162   1.710   4.038   7.980  0.6769  0.0350 -0.1784
  154SAPE  H12Y17163   1.581   4.158   8.016 -0.2560 -0.2356 -0.8407
  154SAPE  C31317164   1.779   4.187   8.106  0.1466 -0.4558 -0.9557
  154SAPE  H13X17165   1.749   4.289   8.138 -2.2605 -1.7546  1.0711
  154SAPE  H13Y17166   1.881   4.200   8.064  0.3808 -2.9991 -1.2583
  154SAPE  C31417167   1.766   4.098   8.224 -0.1276  0.1611 -0.5095
  154SAPE  H14X17168   1.815   4.001   8.200  1.7751  1.0939 -0.4413
  154SAPE  H14Y17169   1.657   4.086   8.245  0.0537 -0.2782  0.1914
  154SAPE  C31517170   1.833   4.150   8.352  0.4609  0.0555  0.1811
  154SAPE  H15X17171   1.797   4.082   8.433 -1.0089 -1.5800 -1.7959
  154SAPE  H15Y17172   1.799   4.254   8.370 -1.4522 -0.4889 -0.1100
  154SAPE  C31617173   1.988   4.151   8.348  0.0328  0.4586  0.0715
  154SAPE  H16X17174   2.020   4.222   8.268  0.5728  0.0727 -0.0608
  154SAPE  H16Y17175   2.033   4.050   8.339 -0.3045  0.3119  0.0528
  154SAPE  C31717176   2.056   4.189   8.481  0.2537  0.3892  0.9827
  154SAPE  H17X17177   2.008   4.131   8.562  0.3156  1.0504  1.4961
  154SAPE  H17Y17178   2.033   4.296   8.501  0.3833  0.3432  1.3819
  154SAPE  C31817179   2.205   4.175   8.515  0.4473 -0.5199 -0.3396
  154SAPE  H18X17180   2.234   4.076   8.557 -1.1545 -1.1608 -0.6749
  154SAPE  H18Y17181   2.238   4.252   8.587  1.6493 -0.8451 -0.5418
  154SAPE  H18Z17182   2.270   4.178   8.425  0.3814 -0.0288 -0.3697
  155SAPE     N17183   2.622   4.441   6.203  0.6673  0.0580  0.3399
  155SAPE   HN117184   2.662   4.536   6.188  2.6520 -0.8632 -0.2146
  155SAPE   HN217185   2.665   4.379   6.132 -1.5474  0.7613 -1.6912
  155SAPE   HN317186   2.518   4.435   6.195  0.7448  0.3015 -0.8361
  155SAPE   C1217187   2.659   4.414   6.346  0.1536 -0.7949  0.1786
  155SAPE  H12A17188   2.770   4.423   6.339 -0.0100  2.1333  0.6586
  155SAPE  H12B17189   2.623   4.311   6.368 -0.4242 -0.5489  0.4113
  155SAPE   C1117190   2.606   4.513   6.448 -1.0621 -0.2751 -0.1600
  155SAPE  H11A17191   2.621   4.490   6.555  0.5079  4.8553  0.8383
  155SAPE  H11B17192   2.496   4.522   6.431 -0.8036  0.9477 -1.3056
  155SAPE     P17193   2.583   4.766   6.425  0.0082  0.2468  0.0164
  155SAPE   O1317194   2.662   4.878   6.366  0.9909 -0.8228  0.0027
  155SAPE   O1417195   2.445   4.730   6.370 -0.3878 -0.6028  0.2224
  155SAPE   O1217196   2.674   4.638   6.442  0.5566 -0.3942 -0.1409
  155SAPE   O1117197   2.547   4.786   6.575 -0.2066 -0.1574  0.1254
  155SAPE    C117198   2.619   4.864   6.665 -0.4764  0.1036  0.1402
  155SAPE    HA17199   2.721   4.821   6.666 -0.4466  0.1510 -0.7513
  155SAPE    HB17200   2.615   4.968   6.625  1.0295 -0.6717 -2.0791
  155SAPE    C217201   2.552   4.878   6.807  0.7522  0.1675  0.6257
  155SAPE    HS17202   2.620   4.911   6.888 -0.1415  2.6075  0.4246
  155SAPE   O2117203   2.492   4.756   6.838  0.2390 -0.9595  0.1126
  155SAPE   C2117204   2.575   4.658   6.854 -0.6133 -0.2710 -0.3606
  155SAPE   O2217205   2.695   4.663   6.860 -0.2164 -0.5308 -0.3957
  155SAPE   C2217206   2.488   4.524   6.872  0.1560 -0.1294  0.5830
  155SAPE   H2R17207   2.402   4.548   6.938 -0.2256  0.3791 -0.1016
  155SAPE   H2S17208   2.457   4.480   6.775  1.3284 -1.0594  0.6139
  155SAPE    C317209   2.448   4.983   6.809 -0.0934 -0.6979 -0.4565
  155SAPE    HX17210   2.374   4.958   6.730  0.1568 -0.3472 -0.8050
  155SAPE    HY17211   2.500   5.079   6.786  1.2979 -0.7550  2.1291
  155SAPE   O3117212   2.394   4.992   6.945  0.0425 -0.5247  0.1780
  155SAPE   C3117213   2.264   4.968   6.965  0.2818  0.3223  0.0352
  155SAPE   O3217214   2.186   4.936   6.883  0.2253  0.2080  0.2102
  155SAPE   C3217215   2.223   5.000   7.118 -0.2822  0.1402  0.4889
  155SAPE   H2X17216   2.133   4.939   7.140  1.2039 -1.4028  2.5102
  155SAPE   H2Y17217   2.203   5.109   7.115  0.7170  0.2909 -3.1131
  155SAPE   C2317218   2.567   4.417   6.962 -1.2110 -0.3464  0.5767
  155SAPE   H3R17219   2.652   4.381   6.900 -0.7306 -0.1280  1.1005
  155SAPE   H3S17220   2.501   4.330   6.982 -1.8029  0.4434  2.1729
  155SAPE   C2417221   2.606   4.470   7.105  0.3886  0.3512  0.8161
  155SAPE   H4R17222   2.646   4.572   7.090  0.2452  0.4967  1.4410
  155SAPE   H4S17223   2.696   4.410   7.131 -0.2725 -0.6590  0.7940
  155SAPE   C2517224   2.493   4.473   7.201  0.0948  0.5665 -0.3608
  155SAPE   H5R17225   2.398   4.506   7.156 -0.1989 -1.0544 -0.9444
  155SAPE   C2617226   2.498   4.430   7.330  0.0696  0.3927 -0.2539
  155SAPE   H6R17227   2.406   4.434   7.390  1.4813  0.7646  1.9523
  155SAPE   C2717228   2.619   4.361   7.392  0.3396 -0.3135  0.2355
  155SAPE   H7R17229   2.705   4.431   7.398  0.8088 -0.7409 -1.2662
  155SAPE   H7S17230   2.665   4.288   7.322  1.8050  0.5645  0.2725
  155SAPE   C2817231   2.584   4.301   7.527  0.7608  0.2439 -0.0554
  155SAPE   H8R17232   2.478   4.279   7.548  0.8428  1.0450  1.2198
  155SAPE   C2917233   2.677   4.260   7.620 -0.1463 -0.4785  0.6581
  155SAPE   H9R17234   2.635   4.242   7.720 -0.1524 -1.8186  0.4176
  155SAPE  C21017235   2.828   4.277   7.625 -0.0933  0.0540  0.7698
  155SAPE  H10R17236   2.845   4.348   7.709  0.4602  2.2577 -1.1742
  155SAPE  H10S17237   2.860   4.336   7.538 -1.9158  0.2184  0.1852
  155SAPE  C21117238   2.897   4.144   7.626  0.2143  0.2026 -1.2052
  155SAPE  H11R17239   2.931   4.128   7.522 -0.6788 -0.1045 -1.4568
  155SAPE  C21217240   2.914   4.060   7.727 -0.1467 -0.0198 -0.1215
  155SAPE  H12R17241   2.976   3.972   7.708 -2.6404 -1.8033 -0.1945
  155SAPE  C21317242   2.867   4.064   7.872  0.1982 -1.3756 -0.1549
  155SAPE  H13R17243   2.807   4.157   7.881  1.1374 -0.7373 -0.3275
  155SAPE  H13S17244   2.955   4.097   7.932  0.5919  0.9790 -1.9512
  155SAPE  C21417245   2.780   3.945   7.918 -1.0544 -0.6545  0.4357
  155SAPE  H14R17246   2.700   3.914   7.849  0.3420 -2.7531 -0.2957
  155SAPE  C21517247   2.811   3.876   8.028 -0.1087 -0.4384 -0.7098
  155SAPE  H15R17248   2.738   3.806   8.072  0.5779 -0.0586  1.0783
  155SAPE  C21617249   2.921   3.903   8.129  0.1174 -0.7793 -0.1079
  155SAPE  H16R17250   2.880   3.952   8.220 -2.3053  0.5493 -1.8580
  155SAPE  H16S17251   2.996   3.975   8.091 -0.8953 -0.8535 -2.3251
  155SAPE  C21717252   3.003   3.779   8.169  0.1621 -0.0808 -0.5374
  155SAPE  H17R17253   3.024   3.722   8.076 -1.4080 -1.5488 -0.0191
  155SAPE  H17S17254   2.937   3.719   8.236  1.1429  0.6725  1.1212
  155SAPE  C21817255   3.131   3.815   8.242 -0.8920 -0.3587 -0.6345
  155SAPE  H18R17256   3.104   3.866   8.337 -0.3136 -0.4705 -0.4038
  155SAPE  H18S17257   3.202   3.879   8.186 -1.4971  0.6214 -0.3085
  155SAPE  C21917258   3.200   3.684   8.292 -0.2832 -0.0991 -0.6424
  155SAPE  H19R17259   3.228   3.623   8.204 -1.5734 -0.5266 -0.7717
  155SAPE  H19S17260   3.125   3.628   8.353 -0.6409  1.1332  0.0746
  155SAPE  C22017261   3.324   3.713   8.380 -0.1276 -0.3379 -0.0434
  155SAPE  H20R17262   3.377   3.625   8.425  0.2559 -0.6774 -1.1290
  155SAPE  H20S17263   3.292   3.786   8.456  0.9206 -0.2044  0.2850
  155SAPE  H20T17264   3.399   3.763   8.315 -0.8477  0.5844 -0.1697
  155SAPE   C3317265   2.326   4.953   7.222  0.3094 -0.9507 -0.4477
  155SAPE   H3X17266   2.427   4.997   7.213  0.1273 -0.0723  1.5511
  155SAPE   H3Y17267   2.345   4.844   7.211 -2.8492 -1.3276 -2.8744
  155SAPE   C3417268   2.286   4.983   7.376  0.0573  0.7738 -0.0292
  155SAPE   H4X17269   2.336   4.901   7.431 -3.1386 -3.4896 -3.1397
  155SAPE   H4Y17270   2.176   4.976   7.387  0.1218  0.7524  0.5862
  155SAPE   C3517271   2.326   5.119   7.419 -0.2617 -0.4105 -0.8463
  155SAPE   H5X17272   2.279   5.199   7.358  1.5728  1.7670  0.5132
  155SAPE   H5Y17273   2.434   5.136   7.400  0.0248 -1.4542 -0.2189
  155SAPE   C3617274   2.304   5.143   7.571 -0.3804  0.2341  0.5808
  155SAPE   H6X17275   2.202   5.121   7.610  0.2834 -2.2089  1.0016
  155SAPE   H6Y17276   2.319   5.251   7.591  1.3463  0.6448 -2.6964
  155SAPE   C3717277   2.411   5.082   7.662  0.5925  0.3541 -0.3615
  155SAPE   H7X17278   2.513   5.110   7.629  1.2679  0.4847  1.7831
  155SAPE   H7Y17279   2.402   4.971   7.652 -1.3517  0.4471  0.1699
  155SAPE   C3817280   2.392   5.133   7.808  0.0560  0.1038  0.2232
  155SAPE   H8X17281   2.289   5.108   7.839  0.4233 -3.0682 -0.8368
  155SAPE   H8Y17282   2.392   5.244   7.807 -0.0387  0.1042  0.3006
  155SAPE   C3917283   2.499   5.079   7.896 -0.5105 -0.3318  0.1770
  155SAPE   H9X17284   2.597   5.119   7.862 -0.1316  0.3138  2.0130
  155SAPE   H9Y17285   2.499   4.969   7.880  1.7639 -0.1072 -1.6443
  155SAPE  C31017286   2.468   5.088   8.049  0.3295 -0.2290 -0.2742
  155SAPE  H10X17287   2.555   5.054   8.110  0.8498  1.5921  0.0297
  155SAPE  H10Y17288   2.383   5.027   8.086 -0.3371  0.4232 -0.7204
  155SAPE  C31117289   2.439   5.232   8.093 -0.3146  0.3581 -0.6899
  155SAPE  H11X17290   2.376   5.278   8.014  1.5560 -0.3602 -2.6674
  155SAPE  H11Y17291   2.534   5.288   8.105  0.3469 -0.9757  0.3525
  155SAPE  C31217292   2.355   5.231   8.224  0.7512  0.0249  0.1013
  155SAPE  H12X17293   2.400   5.157   8.293  0.2519  1.1289  1.6428
  155SAPE  H12Y17294   2.250   5.209   8.196  1.3093  0.3954 -2.4062
  155SAPE  C31317295   2.339   5.375   8.296  0.7301 -0.2224  0.5920
  155SAPE  H13X17296   2.284   5.438   8.223 -0.9461 -0.4759  1.5932
  155SAPE  H13Y17297   2.440   5.412   8.322  1.1649 -1.2857  0.4391
  155SAPE  C31417298   2.254   5.370   8.423  0.5009 -0.6736  0.0625
  155SAPE  H14X17299   2.296   5.286   8.482  1.6847  0.5186  0.9579
  155SAPE  H14Y17300   2.151   5.345   8.391  0.7505 -0.1757 -1.1972
  155SAPE  C31517301   2.247   5.503   8.497  0.7174  0.1709  0.5676
  155SAPE  H15X17302   2.345   5.553   8.514 -0.5863  2.6107  1.2147
  155SAPE  H15Y17303   2.219   5.479   8.601 -1.3892 -1.1031 -0.2609
  155SAPE  C31617304   2.163   5.616   8.434  0.8189 -0.5560  0.2230
  155SAPE  H16X17305   2.065   5.568   8.412 -0.8090  2.3571  0.7285
  155SAPE  H16Y17306   2.204   5.667   8.344 -0.4624  0.8840  0.4358
  155SAPE  C31717307   2.126   5.727   8.529  0.5986  0.3007  0.3698
  155SAPE  H17X17308   2.223   5.739   8.583  0.5296 -3.4305  1.4705
  155SAPE  H17Y17309   2.042   5.700   8.596 -0.0087  0.4681 -0.3191
  155SAPE  C31817310   2.095   5.866   8.472 -0.0287 -0.0484 -0.3269
  155SAPE  H18X17311   2.087   5.944   8.551 -1.4735 -0.1743 -0.3425
  155SAPE  H18Y17312   2.000   5.872   8.415 -1.7268 -0.0902  2.4023
  155SAPE  H18Z17313   2.177   5.892   8.401 -1.3595  0.6257 -1.6252
  156SAPE     N17314   6.647   6.154   6.728  0.1222 -0.1168  0.0337
  156SAPE   HN117315   6.738   6.129   6.771  0.0938  3.8909  2.6976
  156SAPE   HN217316   6.583   6.164   6.810 -1.9799  0.6417 -1.6311
  156SAPE   HN317317   6.613   6.072   6.674  0.1176 -0.8901  1.1779
  156SAPE   C1217318   6.680   6.263   6.631 -0.5126  0.2062 -0.3136
  156SAPE  H12A17319   6.674   6.364   6.678 -0.0838 -0.0449  0.2866
  156SAPE  H12B17320   6.603   6.262   6.551 -0.2304  3.2187 -0.6808
  156SAPE   C1117321   6.829   6.235   6.593 -0.4867  0.7963  0.2433
  156SAPE  H11A17322   6.876   6.336   6.595 -1.3621  1.2261 -0.3495
  156SAPE  H11B17323   6.829   6.218   6.483 -0.3207  2.0485  0.0402
  156SAPE     P17324   7.025   6.047   6.599 -0.3406  0.3715 -0.2137
  156SAPE   O1317325   6.969   5.977   6.481  0.5316  0.1314  0.0153
  156SAPE   O1417326   7.137   6.142   6.574 -0.4019 -0.6085 -0.3239
  156SAPE   O1217327   6.901   6.126   6.664 -0.7918  0.0006 -0.4111
  156SAPE   O1117328   7.072   5.943   6.705 -0.1568  0.2775 -0.4560
  156SAPE    C117329   6.995   5.892   6.814 -0.0652  0.0294 -0.7559
  156SAPE    HA17330   6.889   5.923   6.823  0.6858  2.0153  1.7546
  156SAPE    HB17331   7.003   5.782   6.821 -0.9557 -0.0027 -0.1976
  156SAPE    C217332   7.063   5.951   6.953 -0.8460  0.2015 -0.5873
  156SAPE    HS17333   6.998   5.913   7.035 -0.4683 -0.0213 -0.3928
  156SAPE   O2117334   7.062   6.095   6.954 -0.2781  0.3485 -0.9780
  156SAPE   C2117335   6.944   6.153   6.954  0.7544  0.2762  0.8996
  156SAPE   O2217336   6.835   6.101   6.958  0.5312  0.7292  0.0488
  156SAPE   C2217337   6.965   6.306   6.932 -0.3483 -0.2246 -0.8097
  156SAPE   H2R17338   7.061   6.336   6.978 -1.3170 -0.4884  1.4300
  156SAPE   H2S17339   6.970   6.318   6.821  0.6426 -1.0415 -0.8546
  156SAPE    C317340   7.207   5.890   6.969  0.9130  0.1057  0.3912
  156SAPE    HX17341   7.266   5.945   6.892  1.2495  1.1883  1.4044
  156SAPE    HY17342   7.208   5.782   6.943 -1.9647  0.1913 -0.2381
  156SAPE   O3117343   7.253   5.918   7.101 -0.0980  0.5262  0.0474
  156SAPE   C3117344   7.385   5.894   7.116 -0.3276 -0.0603  0.9010
  156SAPE   O3217345   7.467   5.866   7.026 -0.2800 -0.1275 -0.3148
  156SAPE   C3217346   7.419   5.932   7.262 -0.0102  0.3726 -0.4085
  156SAPE   H2X17347   7.434   5.840   7.321  1.0359 -0.1450 -1.4659
  156SAPE   H2Y17348   7.347   6.003   7.309 -1.0371 -0.3362 -0.9132
  156SAPE   C2317349   6.846   6.394   6.974 -0.9759  0.0397  0.0422
  156SAPE   H3R17350   6.750   6.369   6.924  0.6358 -1.2345 -2.4505
  156SAPE   H3S17351   6.865   6.498   6.940  1.4926 -0.9709 -1.7873
  156SAPE   C2417352   6.826   6.410   7.126 -0.9642  0.3025 -0.0940
  156SAPE   H4R17353   6.762   6.497   7.152 -0.3626  1.0703 -1.1512
  156SAPE   H4S17354   6.925   6.436   7.169 -1.4264  0.1573  1.0773
  156SAPE   C2517355   6.779   6.285   7.195 -0.3441 -0.2683 -1.0338
  156SAPE   H5R17356   6.675   6.265   7.165 -0.9778 -0.0536  0.8904
  156SAPE   C2617357   6.842   6.201   7.284  0.2553 -0.3248 -0.0081
  156SAPE   H6R17358   6.780   6.117   7.318  0.5591 -1.9620 -3.3109
  156SAPE   C2717359   6.978   6.210   7.330 -0.0572  0.3619  0.3457
  156SAPE   H7R17360   6.984   6.247   7.434 -0.7030  0.1008  0.4757
  156SAPE   H7S17361   7.030   6.283   7.264 -3.0955  1.0811 -1.3501
  156SAPE   C2817362   7.037   6.076   7.316 -0.0321 -1.0978  0.7102
  156SAPE   H8R17363   7.046   6.031   7.216  4.1346  1.4138 -0.1514
  156SAPE   C2917364   7.096   6.011   7.417 -0.0913  0.3460  0.3403
  156SAPE   H9R17365   7.131   5.909   7.398 -0.5452 -0.4280  3.4729
  156SAPE  C21017366   7.098   6.054   7.566 -0.0093 -0.4597  0.6882
  156SAPE  H10R17367   7.020   5.996   7.619 -0.8237  1.2387  1.3632
  156SAPE  H10S17368   7.085   6.162   7.585 -0.9742 -0.1904 -1.3856
  156SAPE  C21117369   7.223   6.020   7.632  0.2504 -0.3555 -0.2325
  156SAPE  H11R17370   7.286   5.952   7.573 -0.3087 -0.2630 -0.9482
  156SAPE  C21217371   7.255   6.045   7.760  0.3797 -0.2128 -0.4425
  156SAPE  H12R17372   7.356   6.022   7.797  0.3709 -0.8056 -0.7675
  156SAPE  C21317373   7.162   6.126   7.852 -0.3116  1.1247  0.3173
  156SAPE  H13R17374   7.179   6.071   7.947  1.9055 -0.3702 -0.8933
  156SAPE  H13S17375   7.056   6.106   7.826  0.0932 -0.7439  0.0767
  156SAPE  C21417376   7.205   6.269   7.868  0.0947  0.3878 -0.4795
  156SAPE  H14R17377   7.240   6.317   7.775 -0.3251 -0.3896 -1.0471
  156SAPE  C21517378   7.172   6.341   7.979 -0.9742  0.0556  0.4091
  156SAPE  H15R17379   7.224   6.436   8.001 -0.5581 -0.7327  2.9783
  156SAPE  C21617380   7.098   6.286   8.096  0.4842 -0.3141  0.8497
  156SAPE  H16R17381   7.142   6.193   8.137 -0.0664 -1.3345 -0.8340
  156SAPE  H16S17382   6.991   6.264   8.075  0.3872  1.3746 -0.6492
  156SAPE  C21717383   7.112   6.382   8.211 -0.0294  0.8407 -0.8986
  156SAPE  H17R17384   7.068   6.482   8.190  0.0782  1.4779  1.7350
  156SAPE  H17S17385   7.219   6.395   8.239 -0.4947 -0.9133  1.8244
  156SAPE  C21817386   7.048   6.313   8.340 -0.5217  0.0998 -0.4545
  156SAPE  H18R17387   7.110   6.226   8.371 -0.6785  0.6081  1.2949
  156SAPE  H18S17388   6.945   6.281   8.314 -1.3202  1.0101  1.4846
  156SAPE  C21917389   7.051   6.399   8.465 -0.2843  0.1794 -0.0776
  156SAPE  H19R17390   7.156   6.429   8.485 -0.4344  0.5289  0.2035
  156SAPE  H19S17391   7.020   6.343   8.556  1.2295  1.4914  1.2771
  156SAPE  C22017392   6.962   6.523   8.438 -0.3592 -0.0345 -0.5633
  156SAPE  H20R17393   6.858   6.486   8.425 -0.3109 -0.6940  0.8679
  156SAPE  H20S17394   6.999   6.583   8.351  0.9935 -1.6058 -1.0940
  156SAPE  H20T17395   6.968   6.594   8.523  1.4097  0.2099 -0.8637
  156SAPE   C3317396   7.554   6.013   7.267  0.6675  0.1173  0.1923
  156SAPE   H3X17397   7.548   6.104   7.203  0.3121 -1.0820 -1.5047
  156SAPE   H3Y17398   7.635   5.956   7.217 -0.6349 -1.0281 -0.6389
  156SAPE   C3417399   7.599   6.056   7.406  0.2516 -0.9767 -0.1452
  156SAPE   H4X17400   7.517   6.120   7.443  1.1038  0.5466 -0.8489
  156SAPE   H4Y17401   7.691   6.117   7.387  0.6766 -1.0190  1.7000
  156SAPE   C3517402   7.625   5.951   7.512 -0.0599  0.2771 -0.0205
  156SAPE   H5X17403   7.704   5.879   7.483 -2.1373 -1.6755 -1.0256
  156SAPE   H5Y17404   7.534   5.891   7.536 -0.4443 -0.1957 -2.4908
  156SAPE   C3617405   7.685   6.013   7.640  0.7583 -0.2315  0.7101
  156SAPE   H6X17406   7.789   6.045   7.616  0.0784  2.4510  1.1158
  156SAPE   H6Y17407   7.685   5.934   7.718 -3.8405 -1.3454 -0.3034
  156SAPE   C3717408   7.626   6.148   7.681  0.2639  0.4262  0.2956
  156SAPE   H7X17409   7.518   6.134   7.704  0.2050 -0.3258 -0.4026
  156SAPE   H7Y17410   7.638   6.223   7.601  2.0511  0.6813  0.7949
  156SAPE   C3817411   7.705   6.216   7.794  0.1900  0.8073 -0.4235
  156SAPE   H8X17412   7.668   6.320   7.803 -1.3886  0.3045 -0.9785
  156SAPE   H8Y17413   7.812   6.207   7.766  0.8340  0.8312  1.9373
  156SAPE   C3917414   7.687   6.155   7.935  0.4763 -0.2497  0.2044
  156SAPE   H9X17415   7.789   6.131   7.972  0.1048 -0.8193  0.8560
  156SAPE   H9Y17416   7.626   6.063   7.931  0.4314 -0.1682 -1.1570
  156SAPE  C31017417   7.614   6.246   8.029  0.4849 -0.5697 -0.3798
  156SAPE  H10X17418   7.519   6.280   7.983 -0.1627 -2.2436 -0.2868
  156SAPE  H10Y17419   7.670   6.342   8.038  0.7171 -0.6322 -1.0820
  156SAPE  C31117420   7.585   6.174   8.158 -0.1598 -0.4072 -0.7417
  156SAPE  H11X17421   7.685   6.140   8.191 -1.0565 -1.1538  1.2843
  156SAPE  H11Y17422   7.518   6.087   8.139  0.6963 -1.2708  0.1247
  156SAPE  C31217423   7.514   6.266   8.252 -0.4020 -0.7009  0.1489
  156SAPE  H12X17424   7.409   6.277   8.216  0.4070  1.7174 -1.5746
  156SAPE  H12Y17425   7.562   6.366   8.257 -1.0977 -0.3601  0.1475
  156SAPE  C31317426   7.504   6.216   8.400 -0.1762 -0.2574 -0.3529
  156SAPE  H13X17427   7.607   6.209   8.443 -0.2015  0.0282 -0.2494
  156SAPE  H13Y17428   7.456   6.115   8.399  1.4429 -1.0529 -0.1045
  156SAPE  C31417429   7.427   6.310   8.489  0.3263 -0.0584 -0.1887
  156SAPE  H14X17430   7.324   6.308   8.449  0.9372  2.2868 -2.0025
  156SAPE  H14Y17431   7.472   6.411   8.481 -0.3536  0.1380 -1.6275
  156SAPE  C31517432   7.427   6.284   8.640  0.2801 -0.3874  0.8453
  156SAPE  H15X17433   7.377   6.367   8.693  1.0823 -0.2050  1.3252
  156SAPE  H15Y17434   7.534   6.275   8.671  0.7932 -2.8434 -1.4436
  156SAPE  C31617435   7.372   6.143   8.675 -0.8160  0.3653 -0.1454
  156SAPE  H16X17436   7.421   6.137   8.775  3.6336  3.1681 -1.9836
  156SAPE  H16Y17437   7.427   6.063   8.620  1.0969 -0.0639  2.2649
  156SAPE  C31717438   7.226   6.123   8.683  0.0715 -0.0249 -0.6039
  156SAPE  H17X17439   7.207   6.014   8.688 -0.6328  0.0712 -1.1163
  156SAPE  H17Y17440   7.178   6.150   8.587  0.0478 -2.1591 -1.2241
  156SAPE  C31817441   7.164   6.200   8.803 -0.4263  0.4616  0.1047
  156SAPE  H18X17442   7.217   6.205   8.901 -0.0925  0.8331 -0.0945
  156SAPE  H18Y17443   7.057   6.171   8.814  0.2376 -2.8248 -1.4671
  156SAPE  H18Z17444   7.157   6.303   8.764  0.2549 -0.8354 -3.5995
  157SAPE     N17445   4.555   0.063   5.721 -0.3955  0.1866  0.5209
  157SAPE   HN117446   4.605   0.071   5.630  0.0516 -1.3937  0.6045
  157SAPE   HN217447   4.460   0.103   5.705  0.0439 -0.1564 -3.6853
  157SAPE   HN317448   4.613   0.104   5.796  0.7920 -0.7728  0.1457
  157SAPE   C1217449   4.541  -0.087   5.740 -0.2218  0.1272  0.3213
  157SAPE  H12A17450   4.641  -0.134   5.734 -0.4030 -0.2399  0.1361
  157SAPE  H12B17451   4.471  -0.130   5.665 -1.9171  0.2707  1.7888
  157SAPE   C1117452   4.479  -0.114   5.877 -0.1050  0.0768 -0.4193
  157SAPE  H11A17453   4.459  -0.223   5.880 -0.4887  0.1593  0.5010
  157SAPE  H11B17454   4.388  -0.053   5.896  0.4411  0.9624 -0.6331
  157SAPE     P17455   4.646  -0.189   6.061  0.3155 -0.0468 -0.1409
  157SAPE   O1317456   4.548  -0.277   6.135 -0.4051  0.0387  0.4211
  157SAPE   O1417457   4.744  -0.251   5.964 -0.1741 -0.2085  0.0673
  157SAPE   O1217458   4.569  -0.079   5.977  0.1298  0.0270 -0.4516
  157SAPE   O1117459   4.716  -0.095   6.170 -0.9568  0.1090 -0.0241
  157SAPE    C117460   4.636  -0.019   6.265 -0.2972  0.1289  0.2593
  157SAPE    HA17461   4.681   0.082   6.267  0.3405 -0.1416 -0.5963
  157SAPE    HB17462   4.531   0.002   6.234 -0.1432  0.1774 -0.2161
  157SAPE    C217463   4.626  -0.072   6.407  0.1317  0.0449  0.3759
  157SAPE    HS17464   4.576  -0.002   6.477 -1.2226 -0.2182 -0.3259
  157SAPE   O2117465   4.756  -0.101   6.453  0.1634  0.0440 -0.5814
  157SAPE   C2117466   4.831   0.015   6.464  0.5047  0.3129 -0.3616
  157SAPE   O2217467   4.791   0.127   6.483  0.2413 -0.5225 -0.6727
  157SAPE   C2217468   4.976  -0.025   6.468  0.7887 -0.8086 -0.4054
  157SAPE   H2R17469   5.000  -0.117   6.411  2.7332  0.3692 -1.5272
  157SAPE   H2S17470   5.039   0.059   6.434 -0.3935  0.9970  1.6826
  157SAPE    C317471   4.548  -0.207   6.415 -0.7092 -1.0080 -0.0342
  157SAPE    HX17472   4.609  -0.274   6.352  2.4570  1.7331 -0.0010
  157SAPE    HY17473   4.445  -0.195   6.375 -0.0001  2.8205 -0.8832
  157SAPE   O3117474   4.545  -0.262   6.549  0.0528  0.0483  0.8508
  157SAPE   C3117475   4.455  -0.216   6.632 -0.7664 -0.8522  0.0609
  157SAPE   O3217476   4.371  -0.135   6.602 -0.3642 -0.2542  0.2577
  157SAPE   C3217477   4.483  -0.264   6.775 -0.7208 -0.1417 -0.3003
  157SAPE   H2X17478   4.587  -0.238   6.802 -0.9108 -0.8643  1.1906
  157SAPE   H2Y17479   4.478  -0.375   6.776  0.4564 -0.2138 -1.3996
  157SAPE   C2317480   5.009  -0.058   6.612 -0.2337  0.5651  0.2514
  157SAPE   H3R17481   5.091  -0.133   6.607 -0.4934  0.4109 -2.3094
  157SAPE   H3S17482   4.935  -0.127   6.659  3.7524 -2.2440  2.7243
  157SAPE   C2417483   5.054   0.048   6.713  0.0993  0.0978 -0.0824
  157SAPE   H4R17484   5.130   0.119   6.674  0.7929 -1.3589 -1.4115
  157SAPE   H4S17485   5.097   0.000   6.804 -0.0176 -0.7080 -0.4504
  157SAPE   C2517486   4.928   0.120   6.767  0.4254  0.3571  0.3168
  157SAPE   H5R17487   4.897   0.218   6.728  0.8467  0.0943 -0.6752
  157SAPE   C2617488   4.853   0.080   6.870  0.4913  0.0458  0.2962
  157SAPE   H6R17489   4.778   0.153   6.905  1.6709  1.4143 -0.0002
  157SAPE   C2717490   4.851  -0.045   6.956  0.0603  0.6428 -1.4748
  157SAPE   H7R17491   4.871  -0.136   6.896  0.7785 -0.6529  0.7127
  157SAPE   H7S17492   4.747  -0.066   6.986 -0.0521  2.6134 -0.3738
  157SAPE   C2817493   4.949  -0.033   7.079 -0.2991 -0.4035  0.2828
  157SAPE   H8R17494   5.053  -0.004   7.060  0.5155 -2.1765  1.8063
  157SAPE   C2917495   4.920  -0.042   7.216  0.1635 -0.1712 -0.9504
  157SAPE   H9R17496   4.996  -0.019   7.292 -1.3022  0.4984  0.3338
  157SAPE  C21017497   4.784  -0.074   7.269  0.0427 -0.0238  0.9311
  157SAPE  H10R17498   4.725  -0.124   7.189  1.2631 -0.5864  0.3553
  157SAPE  H10S17499   4.725   0.020   7.276 -1.7477 -1.1266  0.9360
  157SAPE  C21117500   4.782  -0.154   7.398  0.0736  0.4279  0.3416
  157SAPE  H11R17501   4.746  -0.253   7.366  0.3434  0.0844  1.0774
  157SAPE  C21217502   4.808  -0.121   7.524  0.2379  0.2519  0.3345
  157SAPE  H12R17503   4.802  -0.197   7.602 -2.4495  0.6020  0.5055
  157SAPE  C21317504   4.841   0.024   7.569 -0.8405 -0.3478  0.2421
  157SAPE  H13R17505   4.824   0.097   7.487  1.7465 -0.9010 -0.8223
  157SAPE  H13S17506   4.941   0.035   7.615 -0.0867 -0.4680 -1.3541
  157SAPE  C21417507   4.743   0.061   7.676 -0.0358  0.7159 -0.2838
  157SAPE  H14R17508   4.647   0.008   7.667  1.2180 -1.5909 -0.6115
  157SAPE  C21517509   4.758   0.151   7.771 -0.3359  0.0984  0.1285
  157SAPE  H15R17510   4.679   0.147   7.847 -1.1187 -0.5878 -0.7091
  157SAPE  C21617511   4.880   0.229   7.801 -0.7436  0.1590 -0.3824
  157SAPE  H16R17512   4.856   0.327   7.847 -0.4301  0.2639 -0.4385
  157SAPE  H16S17513   4.928   0.263   7.707  1.1884 -0.1049  0.4754
  157SAPE  C21717514   4.981   0.162   7.898 -0.4913 -0.5014  0.2449
  157SAPE  H17R17515   5.081   0.210   7.889 -0.7540 -0.3478 -2.2410
  157SAPE  H17S17516   4.986   0.055   7.867  1.1504 -0.6220  0.8975
  157SAPE  C21817517   4.939   0.163   8.045 -0.3463  0.0782 -0.3678
  157SAPE  H18R17518   5.029   0.131   8.101 -0.1701 -1.0981 -1.2974
  157SAPE  H18S17519   4.864   0.082   8.063  0.9711 -1.3979 -1.4025
  157SAPE  C21917520   4.884   0.294   8.106 -0.3964 -0.6157 -0.4849
  157SAPE  H19R17521   4.781   0.302   8.066 -1.0088  0.3610  1.2346
  157SAPE  H19S17522   4.939   0.388   8.082 -0.3861 -0.5741 -0.3056
  157SAPE  C22017523   4.876   0.291   8.252 -0.1724  0.1680 -0.5108
  157SAPE  H20R17524   4.956   0.343   8.309  0.4870 -0.6900 -0.6459
  157SAPE  H20S17525   4.877   0.187   8.289  1.0414  0.6658  0.9442
  157SAPE  H20T17526   4.785   0.346   8.285 -0.2361 -0.3073  0.1254
  157SAPE   C3317527   4.396  -0.215   6.891  0.1462 -0.6174 -0.4058
  157SAPE   H3X17528   4.294  -0.252   6.868 -1.0313  2.9622 -1.3516
  157SAPE   H3Y17529   4.380  -0.105   6.891  2.0467 -0.3190 -0.0996
  157SAPE   C3417530   4.456  -0.268   7.027 -0.0585 -0.3930  0.4033
  157SAPE   H4X17531   4.540  -0.200   7.052 -1.1592  1.9832 -2.1834
  157SAPE   H4Y17532   4.490  -0.374   7.037  0.0617 -0.5149 -1.2239
  157SAPE   C3517533   4.349  -0.259   7.145 -0.6110 -0.4441 -0.1444
  157SAPE   H5X17534   4.291  -0.354   7.140  0.4436 -1.2958  2.7325
  157SAPE   H5Y17535   4.293  -0.163   7.139 -0.6618 -0.4903 -0.4053
  157SAPE   C3617536   4.440  -0.257   7.275 -0.4493  0.2777 -0.5858
  157SAPE   H6X17537   4.526  -0.188   7.261  0.3489  1.3079  7.3221
  157SAPE   H6Y17538   4.483  -0.358   7.290 -2.2354 -0.2107  1.5220
  157SAPE   C3717539   4.360  -0.216   7.398 -0.0671  0.7274 -0.7642
  157SAPE   H7X17540   4.272  -0.282   7.411 -0.0382  0.3606 -2.3824
  157SAPE   H7Y17541   4.339  -0.107   7.389 -1.1572  0.6456  0.6239
  157SAPE   C3817542   4.424  -0.238   7.538  0.3228  0.5487 -0.9847
  157SAPE   H8X17543   4.513  -0.173   7.554  1.5580 -1.5747  1.0635
  157SAPE   H8Y17544   4.451  -0.345   7.540 -0.2942  0.4138  0.5921
  157SAPE   C3917545   4.331  -0.217   7.661  0.2783 -0.5630 -0.3775
  157SAPE   H9X17546   4.240  -0.281   7.659  0.4350 -0.8076  0.3215
  157SAPE   H9Y17547   4.295  -0.112   7.664  0.5291 -0.4852 -0.1398
  157SAPE  C31017548   4.408  -0.256   7.789  0.8106  0.0145 -0.7174
  157SAPE  H10X17549   4.511  -0.214   7.790  0.4138  1.0253 -1.2302
  157SAPE  H10Y17550   4.392  -0.365   7.802 -0.1205  0.2664  0.2490
  157SAPE  C31117551   4.329  -0.196   7.903  0.8715 -0.0952  0.0265
  157SAPE  H11X17552   4.226  -0.237   7.892  1.6483 -1.9515 -0.5569
  157SAPE  H11Y17553   4.300  -0.090   7.890  1.5496  0.0115 -0.6191
  157SAPE  C31217554   4.375  -0.231   8.043  0.3259  0.3552 -0.4699
  157SAPE  H12X17555   4.398  -0.339   8.062 -1.1869  0.3766  1.5809
  157SAPE  H12Y17556   4.302  -0.199   8.120  2.2553 -0.2432  1.6705
  157SAPE  C31317557   4.515  -0.160   8.066 -0.8764  0.0801  0.4908
  157SAPE  H13X17558   4.516  -0.053   8.038  0.3127  0.4027  1.6690
  157SAPE  H13Y17559   4.592  -0.194   7.993  2.2156  0.1672  3.5410
  157SAPE  C31417560   4.570  -0.179   8.209 -0.4259  0.1711  1.1942
  157SAPE  H14X17561   4.590  -0.285   8.236 -0.2448 -0.3187 -0.7874
  157SAPE  H14Y17562   4.498  -0.143   8.285 -0.8543 -0.6134  1.1663
  157SAPE  C31517563   4.708  -0.117   8.221 -0.0263 -0.6819 -0.3878
  157SAPE  H15X17564   4.698  -0.007   8.210 -1.6374 -0.8378 -0.6287
  157SAPE  H15Y17565   4.774  -0.158   8.142  0.0285 -2.9821  0.7871
  157SAPE  C31617566   4.775  -0.146   8.355  0.0382  0.7695  0.3778
  157SAPE  H16X17567   4.882  -0.120   8.344  0.1747 -0.6862 -2.2809
  157SAPE  H16Y17568   4.780  -0.255   8.373  1.0039  1.3078  3.6146
  157SAPE  C31717569   4.707  -0.069   8.460 -0.0138 -0.3067  0.0717
  157SAPE  H17X17570   4.615  -0.116   8.500  0.2133 -0.0894  0.8819
  157SAPE  H17Y17571   4.686   0.036   8.430  1.0979 -0.0098  0.2887
  157SAPE  C31817572   4.807  -0.051   8.575  0.6005 -0.0326  0.4736
  157SAPE  H18X17573   4.839  -0.153   8.605  0.5535 -0.3790 -0.6077
  157SAPE  H18Y17574   4.781   0.016   8.659  1.5358  0.7281  0.1568
  157SAPE  H18Z17575   4.893  -0.004   8.523  1.8608 -0.7287  1.8963
  158SAPE     N17576   0.259   5.147   6.270  0.9199 -0.1791  0.2612
  158SAPE   HN117577   0.349   5.104   6.240  1.3928 -0.7746  2.4240
  158SAPE   HN217578   0.283   5.215   6.344 -2.7220  1.0167  0.4519
  158SAPE   HN317579   0.212   5.069   6.321  0.0160 -0.9618 -1.6886
  158SAPE   C1217580   0.156   5.202   6.173  0.2447 -0.1645  0.1874
  158SAPE  H12A17581   0.133   5.123   6.098 -0.9233  1.5631 -1.3388
  158SAPE  H12B17582   0.206   5.288   6.122  0.7533 -0.3704  0.3327
  158SAPE   C1117583   0.025   5.249   6.248 -0.5080  0.5458  0.1062
  158SAPE  H11A17584  -0.022   5.165   6.303  0.4856  1.6393  2.7375
  158SAPE  H11B17585  -0.048   5.277   6.170  0.0261  1.0542 -0.2167
  158SAPE     P17586  -0.047   5.444   6.414  0.2255 -0.1277 -0.2099
  158SAPE   O1317587   0.031   5.512   6.522  1.0369 -0.6653  0.1919
  158SAPE   O1417588  -0.134   5.531   6.328  0.0542  0.5686 -0.0501
  158SAPE   O1217589   0.055   5.354   6.343 -0.0884 -0.2406 -0.5515
  158SAPE   O1117590  -0.131   5.332   6.484 -0.2305  0.0513 -0.3196
  158SAPE    C117591  -0.086   5.259   6.597 -0.2181 -0.1457 -0.2361
  158SAPE    HA17592  -0.120   5.155   6.579  3.4466 -1.3950 -0.4763
  158SAPE    HB17593   0.025   5.251   6.605 -0.0512  0.1980 -2.1562
  158SAPE    C217594  -0.145   5.308   6.726  0.0794 -0.1261 -0.1896
  158SAPE    HS17595  -0.113   5.414   6.730  1.0372 -0.4534  2.0169
  158SAPE   O2117596  -0.089   5.224   6.837  0.3516  0.1799  0.3102
  158SAPE   C2117597  -0.049   5.291   6.951  0.0919  0.3981 -0.5089
  158SAPE   O2217598  -0.064   5.406   6.970  0.2138  0.1033 -0.4160
  158SAPE   C2217599   0.019   5.203   7.053  0.4356  0.2432  0.5419
  158SAPE   H2R17600  -0.015   5.099   7.033 -0.3898  0.4716  0.7666
  158SAPE   H2S17601   0.128   5.198   7.030  0.2101  1.8074 -0.9035
  158SAPE    C317602  -0.302   5.311   6.727 -0.6572  0.2571 -0.4606
  158SAPE    HX17603  -0.330   5.207   6.754 -2.0642  0.1395 -2.2473
  158SAPE    HY17604  -0.350   5.322   6.628 -2.0786 -2.7868 -0.1643
  158SAPE   O3117605  -0.359   5.401   6.827  0.7933  0.1116  0.3119
  158SAPE   C3117606  -0.349   5.524   6.792  0.1825 -1.0444 -0.2461
  158SAPE   O3217607  -0.308   5.568   6.686 -0.5724  0.1881 -0.0148
  158SAPE   C3217608  -0.415   5.612   6.897  0.2971  0.2061  0.4646
  158SAPE   H2X17609  -0.379   5.573   6.994 -1.7989 -1.5414  0.5661
  158SAPE   H2Y17610  -0.522   5.585   6.895  0.4690 -0.4285 -0.1779
  158SAPE   C2317611   0.008   5.246   7.201  0.1396 -0.4999 -0.0385
  158SAPE   H3R17612   0.026   5.354   7.221  0.5549 -0.5481 -0.1421
  158SAPE   H3S17613   0.096   5.197   7.249 -1.0454 -2.2182  0.4387
  158SAPE   C2417614  -0.124   5.202   7.263  0.2202 -0.1783 -0.9425
  158SAPE   H4R17615  -0.099   5.214   7.371  0.2854 -1.2419 -0.8336
  158SAPE   H4S17616  -0.147   5.096   7.241 -0.4777 -0.2436  0.0484
  158SAPE   C2517617  -0.239   5.294   7.221  0.2979  0.6421 -0.1568
  158SAPE   H5R17618  -0.266   5.289   7.114  0.5476 -0.9853 -0.1604
  158SAPE   C2617619  -0.315   5.358   7.313 -0.8205  0.3631  0.3346
  158SAPE   H6R17620  -0.385   5.431   7.270 -0.2019  3.0174  3.6246
  158SAPE   C2717621  -0.295   5.356   7.459 -0.3073  0.0051 -0.0630
  158SAPE   H7R17622  -0.194   5.385   7.495  0.2760 -0.9823 -0.8649
  158SAPE   H7S17623  -0.302   5.252   7.499 -1.1181 -0.6267 -1.8144
  158SAPE   C2817624  -0.397   5.448   7.524 -0.4611  0.3830  0.5056
  158SAPE   H8R17625  -0.425   5.539   7.469 -2.9906 -0.6111  0.0488
  158SAPE   C2917626  -0.457   5.434   7.649  0.5698 -0.0651 -0.6258
  158SAPE   H9R17627  -0.531   5.510   7.678 -2.0609 -1.9201 -2.3002
  158SAPE  C21017628  -0.446   5.325   7.746 -0.0153  0.4168 -0.0130
  158SAPE  H10R17629  -0.370   5.346   7.824  1.0539  1.4764 -1.3123
  158SAPE  H10S17630  -0.414   5.236   7.687 -0.5878  0.9418 -1.1405
  158SAPE  C21117631  -0.584   5.304   7.813  0.1631  0.2747 -0.6179
  158SAPE  H11R17632  -0.669   5.313   7.743 -0.1607 -2.2153 -0.5916
  158SAPE  C21217633  -0.611   5.283   7.943 -0.2497  0.0660 -0.8770
  158SAPE  H12R17634  -0.715   5.268   7.975 -0.8298 -0.6451 -3.0008
  158SAPE  C21317635  -0.506   5.264   8.053  0.9079 -0.8660 -0.6930
  158SAPE  H13R17636  -0.439   5.351   8.064  0.4614 -0.6494  0.4081
  158SAPE  H13S17637  -0.449   5.173   8.027  2.6604  0.4264 -1.4554
  158SAPE  C21417638  -0.573   5.236   8.187 -0.3066  0.4050 -0.2845
  158SAPE  H14R17639  -0.678   5.259   8.213  0.2211  0.6198  1.6820
  158SAPE  C21517640  -0.495   5.182   8.285 -0.4535  0.3814 -0.3220
  158SAPE  H15R17641  -0.531   5.176   8.389  0.3070 -0.7736 -0.1149
  158SAPE  C21617642  -0.351   5.146   8.266 -0.1241  0.6601 -0.6062
  158SAPE  H16R17643  -0.291   5.239   8.254  0.6662 -0.0209 -2.0131
  158SAPE  H16S17644  -0.327   5.086   8.176 -2.1739  1.1176 -1.4973
  158SAPE  C21717645  -0.293   5.067   8.386  0.2600 -0.2398  0.1227
  158SAPE  H17R17646  -0.302   5.115   8.486 -3.1842  1.0852 -0.7883
  158SAPE  H17S17647  -0.185   5.043   8.377  0.5122  0.4021  1.2609
  158SAPE  C21817648  -0.362   4.927   8.414 -0.3690  0.2181  0.3758
  158SAPE  H18R17649  -0.471   4.929   8.434 -0.3949 -2.3719  0.7077
  158SAPE  H18S17650  -0.305   4.884   8.500  2.1410  3.0657  0.2160
  158SAPE  C21917651  -0.322   4.815   8.313  0.6209 -0.5122 -0.1697
  158SAPE  H19R17652  -0.212   4.797   8.308  0.9694  1.0979  1.2633
  158SAPE  H19S17653  -0.352   4.845   8.210  0.7684 -0.4223 -0.1870
  158SAPE  C22017654  -0.393   4.681   8.354 -0.3050  1.0688 -0.5364
  158SAPE  H20R17655  -0.335   4.642   8.440  1.3003  0.2004 -1.9798
  158SAPE  H20S17656  -0.381   4.605   8.274  0.0353  1.6983 -1.0849
  158SAPE  H20T17657  -0.501   4.699   8.374  0.2328  1.4201  2.2184
  158SAPE   C3317658  -0.387   5.764   6.877  0.5881  0.7063 -0.9798
  158SAPE   H3X17659  -0.431   5.786   6.777  0.7487 -1.1628 -1.4831
  158SAPE   H3Y17660  -0.277   5.779   6.873  0.8678 -1.1953 -0.6757
  158SAPE   C3417661  -0.444   5.852   6.982 -0.2631 -1.0750 -0.1201
  158SAPE   H4X17662  -0.552   5.831   6.992 -0.2596 -0.5741  1.1181
  158SAPE   H4Y17663  -0.443   5.957   6.947 -0.5289 -0.3934  1.8395
  158SAPE   C3517664  -0.375   5.830   7.120 -0.2623  0.2649  0.1046
  158SAPE   H5X17665  -0.376   5.720   7.136  1.1946  0.3174  0.6734
  158SAPE   H5Y17666  -0.434   5.878   7.201 -0.5318  0.9017 -0.4696
  158SAPE   C3617667  -0.231   5.875   7.112 -0.3081  0.1257  0.2389
  158SAPE   H6X17668  -0.226   5.972   7.058 -1.8658 -0.0159 -0.1816
  158SAPE   H6Y17669  -0.173   5.799   7.056 -1.6007 -0.9868  0.4009
  158SAPE   C3717670  -0.159   5.884   7.245 -0.2689  0.6849 -0.2378
  158SAPE   H7X17671  -0.055   5.913   7.219 -0.4235 -0.2242 -1.8925
  158SAPE   H7Y17672  -0.205   5.958   7.314  0.9695  1.0490  0.2157
  158SAPE   C3817673  -0.146   5.746   7.312  0.0929 -0.8836  0.5215
  158SAPE   H8X17674  -0.115   5.669   7.237  2.0194  1.9607 -1.7522
  158SAPE   H8Y17675  -0.246   5.711   7.344 -1.0773  1.1556 -0.7321
  158SAPE   C3917676  -0.049   5.736   7.433  0.3419  0.1909  0.1869
  158SAPE   H9X17677   0.054   5.756   7.397  1.3566 -2.4440  1.5376
  158SAPE   H9Y17678  -0.048   5.633   7.474 -1.1125 -0.0821 -0.4418
  158SAPE  C31017679  -0.074   5.832   7.551  0.3701  0.0919 -0.0206
  158SAPE  H10X17680  -0.184   5.847   7.559  0.5111  0.5006  1.3786
  158SAPE  H10Y17681  -0.035   5.934   7.529 -1.3803  1.3802  2.5344
  158SAPE  C31117682  -0.005   5.780   7.676  0.1823 -0.4837 -0.6611
  158SAPE  H11X17683   0.099   5.753   7.649  0.3045 -1.5072  0.8183
  158SAPE  H11Y17684  -0.054   5.684   7.703 -1.5021 -0.2179 -2.6713
  158SAPE  C31217685  -0.018   5.878   7.791 -1.2659 -0.1364  0.3791
  158SAPE  H12X17686  -0.124   5.910   7.794 -0.9934  1.7286 -4.4742
  158SAPE  H12Y17687   0.036   5.968   7.755  1.3411 -1.2817  1.2789
  158SAPE  C31317688   0.028   5.824   7.926  0.5765  0.2931  0.0189
  158SAPE  H13X17689   0.139   5.821   7.920  0.4724 -0.5952 -1.8190
  158SAPE  H13Y17690  -0.000   5.722   7.956 -0.9851  1.3860  2.3668
  158SAPE  C31417691  -0.008   5.927   8.037  0.1755 -0.1680 -0.1228
  158SAPE  H14X17692  -0.119   5.934   8.032  0.0734 -1.5899 -0.2520
  158SAPE  H14Y17693   0.029   6.029   8.015 -0.4406  1.5369  5.8179
  158SAPE  C31517694   0.038   5.890   8.176  0.6333  0.5400  0.4733
  158SAPE  H15X17695   0.149   5.891   8.172  0.6596  0.7477  1.0888
  158SAPE  H15Y17696   0.008   5.786   8.198 -2.0304  0.8021 -1.7836
  158SAPE  C31617697  -0.021   5.988   8.280 -0.3990  0.0189 -0.9712
  158SAPE  H16X17698  -0.130   5.967   8.291 -0.1105 -0.6313  0.8979
  158SAPE  H16Y17699  -0.002   6.090   8.241  2.6919  0.6386  1.9417
  158SAPE  C31717700   0.046   5.988   8.417 -0.5659  0.4649  0.0600
  158SAPE  H17X17701   0.156   5.974   8.409 -0.6852 -2.5794  2.5100
  158SAPE  H17Y17702   0.024   5.895   8.474  2.3027  1.4568  2.9625
  158SAPE  C31817703   0.013   6.104   8.506 -0.0559  0.1684  0.5344
  158SAPE  H18X17704   0.010   6.199   8.448  1.8119  0.2425  0.5527
  158SAPE  H18Y17705   0.088   6.122   8.586 -0.0954 -1.1191  0.8702
  158SAPE  H18Z17706  -0.089   6.095   8.549 -0.1571 -1.2558  0.0167
  159SAPE     N17707   5.683   2.245   6.110  0.3014  0.3731 -0.2568
  159SAPE   HN117708   5.657   2.343   6.135 -2.7446 -0.3837 -0.3557
  159SAPE   HN217709   5.743   2.203   6.184 -0.6376 -1.2594 -0.4079
  159SAPE   HN317710   5.735   2.243   6.020 -2.3150 -3.9489 -1.8210
  159SAPE   C1217711   5.563   2.173   6.089  0.0342 -0.1877 -0.6352
  159SAPE  H12A17712   5.587   2.083   6.028  2.6085  0.0830 -0.0423
  159SAPE  H12B17713   5.500   2.242   6.028 -0.8007 -0.6799 -0.3344
  159SAPE   C1117714   5.488   2.129   6.221 -0.0492  0.4471 -0.4772
  159SAPE  H11A17715   5.386   2.090   6.203  0.8349 -1.8639 -0.6888
  159SAPE  H11B17716   5.472   2.221   6.281  0.9851  0.1852  0.2073
  159SAPE     P17717   5.557   1.890   6.277 -0.1153  0.5487  0.2526
  159SAPE   O1317718   5.417   1.866   6.233 -0.6010  0.3952  0.0901
  159SAPE   O1417719   5.660   1.838   6.182  0.0668 -0.3904  0.2084
  159SAPE   O1217720   5.576   2.041   6.294  0.4762  0.0895  0.4559
  159SAPE   O1117721   5.588   1.835   6.423 -0.1423 -0.1719  0.3221
  159SAPE    C117722   5.719   1.876   6.484  0.5678  0.0393 -0.2127
  159SAPE    HA17723   5.796   1.899   6.407  0.3960  0.7994 -0.1527
  159SAPE    HB17724   5.703   1.970   6.541 -0.6469 -1.5277  2.1163
  159SAPE    C217725   5.765   1.748   6.567 -0.0388 -0.4670  0.2960
  159SAPE    HS17726   5.752   1.662   6.499  0.6627 -1.7393  1.7406
  159SAPE   O2117727   5.681   1.733   6.682  0.4035  0.0109  0.0976
  159SAPE   C2117728   5.670   1.616   6.735  0.2641  0.2003 -0.7624
  159SAPE   O2217729   5.710   1.512   6.683 -0.1800 -0.5543  0.5146
  159SAPE   C2217730   5.604   1.626   6.868 -0.6945 -0.3860 -0.0285
  159SAPE   H2R17731   5.640   1.707   6.935 -1.3059  0.6072 -0.8695
  159SAPE   H2S17732   5.497   1.641   6.842 -0.4383 -0.4036 -1.1236
  159SAPE    C317733   5.915   1.771   6.605  0.2009  0.1127 -0.4596
  159SAPE    HX17734   5.927   1.866   6.661 -0.3702 -0.7573  1.1583
  159SAPE    HY17735   5.977   1.793   6.515 -0.3923  3.1945 -0.1397
  159SAPE   O3117736   5.976   1.668   6.675 -0.1601  0.2125 -0.3785
  159SAPE   C3117737   6.016   1.560   6.607 -0.1957  0.3687 -0.1833
  159SAPE   O3217738   6.017   1.554   6.485 -0.3803  0.4011  0.7456
  159SAPE   C3217739   6.054   1.445   6.705  0.3574 -0.4880 -0.6404
  159SAPE   H2X17740   6.098   1.364   6.643  1.3469 -0.2266 -0.2814
  159SAPE   H2Y17741   5.958   1.420   6.756  0.9469  0.0282  0.7277
  159SAPE   C2317742   5.605   1.495   6.952  0.0846 -0.5263 -0.5891
  159SAPE   H3R17743   5.533   1.423   6.907 -1.6369  1.0084 -0.3511
  159SAPE   H3S17744   5.559   1.523   7.049  2.8281  1.4332  0.1915
  159SAPE   C2417745   5.741   1.437   6.979 -0.2760 -0.1206  0.2752
  159SAPE   H4R17746   5.776   1.382   6.890 -2.0482  1.8781 -1.7226
  159SAPE   H4S17747   5.727   1.354   7.052  4.2928  0.5221  2.0200
  159SAPE   C2517748   5.843   1.538   7.021  0.2334  0.1798  0.1266
  159SAPE   H5R17749   5.886   1.602   6.943 -0.8657  2.0401  1.0130
  159SAPE   C2617750   5.868   1.564   7.153 -0.1278  0.8664 -0.2019
  159SAPE   H6R17751   5.953   1.630   7.175 -0.1257  0.1715  2.0139
  159SAPE   C2717752   5.805   1.489   7.274  0.3623 -0.6662 -0.0003
  159SAPE   H7R17753   5.839   1.384   7.264 -2.3403 -1.6061  0.2576
  159SAPE   H7S17754   5.696   1.475   7.261  0.7824 -1.6169 -2.7547
  159SAPE   C2817755   5.858   1.537   7.411  0.6775 -0.6062 -0.3305
  159SAPE   H8R17756   5.967   1.552   7.413  0.3381  2.8116 -2.8479
  159SAPE   C2917757   5.785   1.555   7.522  0.1879 -0.2168  0.4195
  159SAPE   H9R17758   5.830   1.590   7.616  1.4471 -0.5359 -0.0565
  159SAPE  C21017759   5.639   1.529   7.514 -1.2000 -0.0438 -0.2058
  159SAPE  H10R17760   5.620   1.420   7.506 -2.3092 -0.0656  2.3065
  159SAPE  H10S17761   5.596   1.571   7.421 -1.0567 -2.9347 -1.6296
  159SAPE  C21117762   5.572   1.597   7.629  0.1363  0.0371  0.0508
  159SAPE  H11R17763   5.518   1.687   7.596  1.0587  0.6382  0.1532
  159SAPE  C21217764   5.564   1.562   7.755  1.0284  0.4409  0.3722
  159SAPE  H12R17765   5.496   1.624   7.815  0.5080  2.2184 -1.9881
  159SAPE  C21317766   5.616   1.440   7.827 -0.1370 -0.2396 -0.6350
  159SAPE  H13R17767   5.705   1.398   7.775 -0.2207  1.1982 -1.9597
  159SAPE  H13S17768   5.540   1.359   7.840 -1.8362  0.9432 -2.7608
  159SAPE  C21417769   5.648   1.487   7.968 -0.6443 -0.9220  0.3144
  159SAPE  H14R17770   5.634   1.595   7.986  2.1374 -0.0219 -2.4086
  159SAPE  C21517771   5.702   1.412   8.057 -0.0021 -0.5960 -0.4974
  159SAPE  H15R17772   5.718   1.444   8.161  1.5915 -0.7023 -0.6909
  159SAPE  C21617773   5.735   1.267   8.054 -0.0298  0.1707  0.1118
  159SAPE  H16R17774   5.804   1.233   7.974 -2.7520 -0.9128 -1.8411
  159SAPE  H16S17775   5.642   1.209   8.035  1.7131 -2.0315 -1.9125
  159SAPE  C21717776   5.789   1.213   8.192 -0.3060  0.1014 -0.0029
  159SAPE  H17R17777   5.707   1.217   8.267 -1.6209  4.1416 -1.5088
  159SAPE  H17S17778   5.866   1.278   8.241 -2.1931  0.7703  2.1692
  159SAPE  C21817779   5.824   1.070   8.186  0.5740 -0.1009 -0.2068
  159SAPE  H18R17780   5.915   1.042   8.128  0.3954  1.1820 -1.1202
  159SAPE  H18S17781   5.738   1.015   8.142 -0.1099  0.4904  0.3830
  159SAPE  C21917782   5.839   1.007   8.330  0.6029 -0.1210 -0.2918
  159SAPE  H19R17783   5.875   0.903   8.326 -1.0002 -0.7318  0.6328
  159SAPE  H19S17784   5.735   1.003   8.370  1.6127 -4.5697  2.2033
  159SAPE  C22017785   5.943   1.089   8.415  0.4661  0.8306 -0.1464
  159SAPE  H20R17786   5.898   1.165   8.483  1.8259  2.5164 -1.1137
  159SAPE  H20S17787   6.025   1.126   8.351 -0.4372 -0.6016 -2.1759
  159SAPE  H20T17788   5.980   1.013   8.487 -1.5536  1.1934  1.3379
  159SAPE   C3317789   6.152   1.504   6.804 -0.9134  0.4434 -0.0651
  159SAPE   H3X17790   6.117   1.601   6.846  0.4639  0.7952  0.2845
  159SAPE   H3Y17791   6.243   1.532   6.748 -0.5608  1.9863  1.2586
  159SAPE   C3417792   6.185   1.397   6.907  0.7644 -0.5660  0.1013
  159SAPE   H4X17793   6.253   1.333   6.847 -0.0129 -1.1922 -0.1173
  159SAPE   H4Y17794   6.108   1.327   6.947 -0.7874  0.4166 -1.1038
  159SAPE   C3517795   6.257   1.444   7.025 -0.1668 -0.6343  0.3404
  159SAPE   H5X17796   6.194   1.499   7.099  2.4701 -0.0775  2.2331
  159SAPE   H5Y17797   6.335   1.517   6.996 -0.8497 -0.1615 -0.3651
  159SAPE   C3617798   6.327   1.326   7.104  0.0665 -0.0284 -0.1993
  159SAPE   H6X17799   6.418   1.298   7.047 -0.0524  0.2949 -0.5532
  159SAPE   H6Y17800   6.252   1.244   7.107 -0.4707  0.5115  2.3821
  159SAPE   C3717801   6.394   1.366   7.234  0.5124 -1.1789 -0.5344
  159SAPE   H7X17802   6.324   1.383   7.319  2.2100  1.2463  0.4302
  159SAPE   H7Y17803   6.434   1.467   7.211  0.8317 -0.3363  3.3810
  159SAPE   C3817804   6.516   1.290   7.289 -0.1411  0.0941  0.5797
  159SAPE   H8X17805   6.589   1.275   7.207  0.8067 -0.3521  1.5041
  159SAPE   H8Y17806   6.484   1.193   7.332  1.4347  0.4716  2.6646
  159SAPE   C3917807   6.595   1.351   7.402  0.1157  0.2649  0.4732
  159SAPE   H9X17808   6.647   1.439   7.359 -3.3019  1.1553 -2.0073
  159SAPE   H9Y17809   6.675   1.278   7.428 -0.9757 -0.8237  0.8890
  159SAPE  C31017810   6.502   1.378   7.518  0.3087  0.3502  0.6800
  159SAPE  H10X17811   6.448   1.286   7.547  1.5442 -0.4802  0.4138
  159SAPE  H10Y17812   6.426   1.452   7.485  0.4977  0.1157 -0.3119
  159SAPE  C31117813   6.572   1.441   7.643  0.7996  0.2457 -0.1595
  159SAPE  H11X17814   6.493   1.449   7.720  0.6884  0.3233 -0.2799
  159SAPE  H11Y17815   6.600   1.545   7.615 -1.0604  0.9719  0.5909
  159SAPE  C31217816   6.681   1.345   7.698 -0.4635 -0.1410 -0.3007
  159SAPE  H12X17817   6.760   1.327   7.623 -0.2777  4.1702 -1.2483
  159SAPE  H12Y17818   6.625   1.250   7.715  0.3788 -0.2084  2.4079
  159SAPE  C31317819   6.732   1.410   7.829 -0.7029  0.1131  0.5313
  159SAPE  H13X17820   6.648   1.451   7.888 -1.9167 -3.6030  1.5123
  159SAPE  H13Y17821   6.798   1.497   7.808 -2.9756  1.7585  0.0209
  159SAPE  C31417822   6.805   1.303   7.921 -0.4510 -0.1862 -0.8926
  159SAPE  H14X17823   6.880   1.243   7.866  2.5661  1.3481  1.3716
  159SAPE  H14Y17824   6.731   1.222   7.937 -0.3259 -0.4441 -1.6285
  159SAPE  C31517825   6.858   1.362   8.053  0.3096 -0.2244  0.2560
  159SAPE  H15X17826   6.817   1.312   8.143 -1.7229 -1.4857 -1.3305
  159SAPE  H15Y17827   6.826   1.467   8.072 -0.2952 -0.2010 -0.7977
  159SAPE  C31617828   7.013   1.346   8.077 -0.0181 -0.9051 -0.3178
  159SAPE  H16X17829   7.057   1.368   7.978 -1.0992 -0.3953 -0.6904
  159SAPE  H16Y17830   7.037   1.243   8.111 -2.3492 -1.3427  0.0601
  159SAPE  C31717831   7.066   1.448   8.182  0.2978  0.1926  0.5905
  159SAPE  H17X17832   7.045   1.554   8.156  0.9738  0.2045  0.0729
  159SAPE  H17Y17833   7.175   1.427   8.170 -0.2479 -1.5260 -1.8748
  159SAPE  C31817834   7.013   1.426   8.327 -1.2165 -0.1838  0.1042
  159SAPE  H18X17835   7.060   1.489   8.406 -1.6017 -2.7136  2.4164
  159SAPE  H18Y17836   7.025   1.322   8.362  0.3149  0.3131  1.0985
  159SAPE  H18Z17837   6.905   1.448   8.326 -0.9831  1.0391  0.6489
  160SAPE     N17838   6.427   6.433   5.979  0.4126  0.5629  0.4423
  160SAPE   HN117839   6.363   6.475   5.909 -1.2240 -2.3813  0.1027
  160SAPE   HN217840   6.473   6.519   6.016  1.4649 -0.0102  0.4875
  160SAPE   HN317841   6.500   6.373   5.936 -2.4232 -1.2289 -2.0512
  160SAPE   C1217842   6.363   6.341   6.085 -0.1887 -0.8137  0.6710
  160SAPE  H12A17843   6.435   6.260   6.109 -1.6488 -2.2563  0.3102
  160SAPE  H12B17844   6.272   6.290   6.046 -0.6434  0.7017 -0.2664
  160SAPE   C1117845   6.318   6.432   6.211  0.2892 -0.4900  0.3647
  160SAPE  H11A17846   6.270   6.371   6.291 -1.9280 -0.3071 -0.7990
  160SAPE  H11B17847   6.224   6.482   6.181  1.3322  0.8240 -0.7409
  160SAPE     P17848   6.522   6.472   6.369 -0.4259  0.4449  0.1387
  160SAPE   O1317849   6.611   6.366   6.318 -0.0891 -0.1348 -0.8665
  160SAPE   O1417850   6.593   6.581   6.429  0.1149 -0.3103 -0.5972
  160SAPE   O1217851   6.425   6.520   6.255  0.1454 -0.0079 -0.3742
  160SAPE   O1117852   6.416   6.413   6.473  0.6281 -0.1117 -0.2045
  160SAPE    C117853   6.319   6.495   6.530 -0.4660  0.7100  0.0466
  160SAPE    HA17854   6.343   6.604   6.534  1.4753  0.3080 -0.3166
  160SAPE    HB17855   6.227   6.478   6.471  0.8366  1.1251 -2.1468
  160SAPE    C217856   6.295   6.440   6.672 -0.6270  0.1485 -0.4029
  160SAPE    HS17857   6.197   6.473   6.713  0.0738  0.1068  1.3249
  160SAPE   O2117858   6.400   6.494   6.753  0.4335  0.0838 -0.4209
  160SAPE   C2117859   6.383   6.622   6.779  0.7375  0.3497  1.1077
  160SAPE   O2217860   6.282   6.686   6.742 -0.2617  0.4103 -0.4240
  160SAPE   C2217861   6.506   6.689   6.843  0.3709 -0.4598 -0.6952
  160SAPE   H2R17862   6.566   6.604   6.882 -1.7061 -2.6799 -2.2300
  160SAPE   H2S17863   6.561   6.748   6.767  0.8639  0.6145  0.4773
  160SAPE    C317864   6.302   6.284   6.692  0.5987  0.4167  0.7009
  160SAPE    HX17865   6.399   6.242   6.660  0.0759  0.8837 -1.6108
  160SAPE    HY17866   6.228   6.243   6.619  1.5205 -2.6330  1.4310
  160SAPE   O3117867   6.260   6.234   6.822  0.4003 -0.0808 -0.5379
  160SAPE   C3117868   6.348   6.227   6.918 -0.5144  0.8214 -0.2644
  160SAPE   O3217869   6.466   6.247   6.907  0.2179 -0.1311 -0.2752
  160SAPE   C3217870   6.275   6.205   7.047 -0.5690  0.7510 -0.0385
  160SAPE   H2X17871   6.217   6.109   7.042 -1.1990  1.1119  0.2558
  160SAPE   H2Y17872   6.208   6.293   7.057  0.0233  1.0441  1.3379
  160SAPE   C2317873   6.449   6.792   6.954  0.0440 -0.0688 -0.6714
  160SAPE   H3R17874   6.386   6.871   6.908  2.0488  1.2893 -1.1514
  160SAPE   H3S17875   6.534   6.840   7.006 -0.9648 -0.4267  1.3466
  160SAPE   C2417876   6.354   6.737   7.064 -0.3327 -0.2313 -0.2342
  160SAPE   H4R17877   6.256   6.722   7.014 -0.7461  1.0226  0.1768
  160SAPE   H4S17878   6.335   6.819   7.136 -1.5069 -0.8036  0.1191
  160SAPE   C2517879   6.413   6.607   7.124 -0.1853 -0.4817 -0.0053
  160SAPE   H5R17880   6.418   6.516   7.063  1.2587 -0.6937  0.4152
  160SAPE   C2617881   6.440   6.590   7.255  0.3464  0.2749  0.1289
  160SAPE   H6R17882   6.504   6.504   7.282  0.1657 -0.5892 -2.1037
  160SAPE   C2717883   6.424   6.692   7.365  0.0879  0.4193  0.6549
  160SAPE   H7R17884   6.372   6.782   7.327 -1.5259 -0.8544 -0.2490
  160SAPE   H7S17885   6.528   6.724   7.389  0.1284  2.2620 -1.7504
  160SAPE   C2817886   6.353   6.642   7.485 -0.3487  0.5326  0.1901
  160SAPE   H8R17887   6.255   6.598   7.464 -0.1459  0.6926 -1.1275
  160SAPE   C2917888   6.404   6.634   7.609 -0.8915 -0.0463 -0.0090
  160SAPE   H9R17889   6.331   6.611   7.689 -0.2778  0.9032  0.8403
  160SAPE  C21017890   6.540   6.681   7.654  0.2461  0.0453 -0.2126
  160SAPE  H10R17891   6.624   6.655   7.585  1.7600  0.5140  1.4069
  160SAPE  H10S17892   6.580   6.620   7.737 -2.2104 -1.0399  0.2006
  160SAPE  C21117893   6.538   6.825   7.682  0.8781  0.0352 -0.1973
  160SAPE  H11R17894   6.529   6.890   7.594  0.1252 -3.7161 -2.9940
  160SAPE  C21217895   6.574   6.877   7.797 -0.1535 -0.1046  0.0429
  160SAPE  H12R17896   6.581   6.986   7.813 -0.3525 -0.2920  1.5601
  160SAPE  C21317897   6.605   6.819   7.926 -1.4146 -0.3372 -0.9912
  160SAPE  H13R17898   6.715   6.804   7.929 -1.3173  0.6714  0.8095
  160SAPE  H13S17899   6.576   6.712   7.934  0.2066 -0.6626  0.9387
  160SAPE  C21417900   6.550   6.894   8.048  0.0481  0.3550 -0.1620
  160SAPE  H14R17901   6.463   6.956   8.023  0.0959  1.6026  2.5675
  160SAPE  C21517902   6.582   6.863   8.179 -0.2218  0.6196  0.0506
  160SAPE  H15R17903   6.535   6.923   8.258 -1.5983 -0.3260 -0.0265
  160SAPE  C21617904   6.683   6.768   8.217  0.3743  0.5367 -0.5595
  160SAPE  H16R17905   6.723   6.723   8.124 -2.1548  0.1057 -1.4594
  160SAPE  H16S17906   6.642   6.682   8.273  0.2911  2.0417  1.7983
  160SAPE  C21717907   6.802   6.828   8.299 -0.3203 -0.1931  0.1977
  160SAPE  H17R17908   6.870   6.741   8.314  0.9714  0.6965 -0.3604
  160SAPE  H17S17909   6.760   6.861   8.396 -0.4823  2.4989 -0.7551
  160SAPE  C21817910   6.884   6.940   8.243 -0.1296 -0.1070 -0.7394
  160SAPE  H18R17911   6.824   7.033   8.235  0.9018  0.7650  1.3364
  160SAPE  H18S17912   6.919   6.904   8.144 -2.5111  0.8012 -1.9471
  160SAPE  C21917913   7.007   6.974   8.321 -0.2947  0.2426  0.0137
  160SAPE  H19R17914   7.063   7.057   8.273  0.9766  0.8145  2.4035
  160SAPE  H19S17915   7.070   6.882   8.316  1.3056  1.3895 -1.2253
  160SAPE  C22017916   6.988   7.006   8.468  0.7954 -0.1276  0.6049
  160SAPE  H20R17917   7.026   7.102   8.507  0.3534  0.3430 -0.1087
  160SAPE  H20S17918   7.027   6.920   8.526  1.4016 -0.5255 -0.3641
  160SAPE  H20T17919   6.880   7.027   8.484  0.8239 -0.4978  1.2838
  160SAPE   C3317920   6.364   6.206   7.175 -0.0572 -0.3619 -0.2884
  160SAPE   H3X17921   6.453   6.270   7.159  0.4352 -0.6976  1.0376
  160SAPE   H3Y17922   6.392   6.101   7.197  0.2730 -0.1185  0.4571
  160SAPE   C3417923   6.271   6.252   7.294 -0.2042  0.7730 -0.2593
  160SAPE   H4X17924   6.198   6.169   7.300 -0.6346  1.1206 -0.6225
  160SAPE   H4Y17925   6.218   6.349   7.283 -1.6779  0.1946  1.5616
  160SAPE   C3517926   6.351   6.259   7.426  0.6285  0.4920  0.4587
  160SAPE   H5X17927   6.293   6.315   7.503 -0.1526 -2.5831  2.2283
  160SAPE   H5Y17928   6.443   6.316   7.404 -0.3968  1.7533 -0.6321
  160SAPE   C3617929   6.376   6.119   7.483  0.7149  0.1403  0.1221
  160SAPE   H6X17930   6.428   6.130   7.580  0.1191  0.8324  0.3628
  160SAPE   H6Y17931   6.448   6.055   7.427  1.4660  0.9167  0.1992
  160SAPE   C3717932   6.256   6.028   7.519 -0.2726 -0.4066  0.7995
  160SAPE   H7X17933   6.195   6.003   7.430  1.9458  1.6602 -1.3513
  160SAPE   H7Y17934   6.187   6.079   7.590 -0.0473  0.6792  0.2396
  160SAPE   C3817935   6.298   5.898   7.581 -0.7155  0.3738 -0.4752
  160SAPE   H8X17936   6.369   5.844   7.516 -1.7927  0.3292 -1.6445
  160SAPE   H8Y17937   6.222   5.817   7.572  0.4735 -0.8907  0.6838
  160SAPE   C3917938   6.336   5.918   7.730 -0.5499  0.2572  0.1064
  160SAPE   H9X17939   6.247   5.944   7.790 -2.8234 -0.7547 -2.7141
  160SAPE   H9Y17940   6.400   6.008   7.740  0.0718  0.0850 -2.1031
  160SAPE  C31017941   6.411   5.788   7.782  0.1085 -0.2895  0.6652
  160SAPE  H10X17942   6.506   5.784   7.725  0.2688 -0.3987  0.9363
  160SAPE  H10Y17943   6.351   5.700   7.753 -2.3023  1.9356 -1.3726
  160SAPE  C31117944   6.439   5.781   7.933 -0.4084 -0.2257  0.6800
  160SAPE  H11X17945   6.452   5.881   7.978 -1.5984  0.6187 -0.7861
  160SAPE  H11Y17946   6.538   5.742   7.963 -0.8538 -0.3825  1.9483
  160SAPE  C31217947   6.334   5.712   8.014  0.1714  0.5400  0.0345
  160SAPE  H12X17948   6.351   5.603   8.003  0.6644  0.4979  1.1793
  160SAPE  H12Y17949   6.236   5.741   7.969  0.1764  1.3998  0.5777
  160SAPE  C31317950   6.327   5.745   8.162 -0.0566 -0.0192  0.1757
  160SAPE  H13X17951   6.225   5.723   8.199  0.3455 -0.0625  1.2852
  160SAPE  H13Y17952   6.336   5.856   8.160  0.3439 -0.0265  1.2205
  160SAPE  C31417953   6.428   5.672   8.245 -0.3173 -0.0135  0.0214
  160SAPE  H14X17954   6.526   5.718   8.217  0.8972 -1.2498  2.0615
  160SAPE  H14Y17955   6.428   5.563   8.223  1.9097 -0.5234  2.2637
  160SAPE  C31517956   6.414   5.702   8.390  0.0093 -0.1126 -0.2577
  160SAPE  H15X17957   6.394   5.810   8.403  1.7667  0.1583  0.4159
  160SAPE  H15Y17958   6.511   5.686   8.442 -1.4268  0.3765  2.7199
  160SAPE  C31617959   6.311   5.631   8.470  0.3707  0.1989  0.3215
  160SAPE  H16X17960   6.322   5.521   8.455 -2.3865 -0.2406  1.1793
  160SAPE  H16Y17961   6.215   5.668   8.428  0.5438 -0.6423 -0.8489
  160SAPE  C31717962   6.297   5.656   8.621 -1.0131  0.2511  0.1049
  160SAPE  H17X17963   6.380   5.599   8.669 -1.2389 -0.3008 -0.1575
  160SAPE  H17Y17964   6.199   5.612   8.648  0.0721 -1.9223  0.6288
  160SAPE  C31817965   6.312   5.798   8.672 -0.7213 -0.1824  0.1445
  160SAPE  H18X17966   6.337   5.812   8.780 -0.1517  1.0486 -0.1323
  160SAPE  H18Y17967   6.236   5.874   8.644 -0.1735  0.6920  1.0024
  160SAPE  H18Z17968   6.406   5.831   8.622 -1.4205  0.5263 -0.7065
  161SOPE     N17969   5.025   0.927  10.860 -0.6241 -0.0067  0.4716
  161SOPE   HN117970   4.926   0.898  10.871 -1.1760  1.8845  0.5927
  161SOPE   HN217971   5.053   0.886  10.769  1.6205 -0.3974  1.3017
  161SOPE   HN317972   5.072   0.900  10.949 -2.0066  0.5968  1.3908
  161SOPE   C1217973   5.025   1.076  10.848  0.1226 -0.2285 -0.2283
  161SOPE  H12A17974   5.129   1.112  10.861 -0.3467  0.8325  0.7034
  161SOPE  H12B17975   4.973   1.117  10.937 -1.9097 -1.9080 -0.6017
  161SOPE   C1117976   4.950   1.140  10.730  0.3764 -0.1130  0.0927
  161SOPE  H11A17977   4.997   1.110  10.633  0.5225  2.2282 -0.5745
  161SOPE  H11B17978   4.953   1.249  10.747 -3.8788  0.0167  0.5593
  161SOPE     P17979   4.695   1.154  10.771 -0.2291 -0.2258 -0.1355
  161SOPE   O1317980   4.714   1.221  10.903  0.0139 -0.0492  0.4993
  161SOPE   O1417981   4.573   1.066  10.752 -0.0258 -0.0065  0.3772
  161SOPE   O1217982   4.823   1.080  10.735 -0.0949  0.6879  0.7169
  161SOPE   O1117983   4.679   1.265  10.659 -0.2308 -0.0892  0.2430
  161SOPE    C117984   4.720   1.234  10.524 -0.2511 -0.6971 -0.3125
  161SOPE    HA17985   4.737   1.128  10.496 -0.3205 -0.6437 -0.5574
  161SOPE    HB17986   4.815   1.291  10.517 -0.6992  0.4035  2.0510
  161SOPE    C217987   4.621   1.288  10.404 -0.1430 -0.1708  0.2659
  161SOPE    HS17988   4.610   1.398  10.420 -0.9996  0.5007 -4.3655
  161SOPE   O2117989   4.492   1.225  10.422  0.5122 -0.2224  0.2049
  161SOPE   C2117990   4.389   1.256  10.343  0.0528  0.3298  0.6535
  161SOPE   O2217991   4.384   1.357  10.275  0.1775  0.3992  0.0238
  161SOPE   C2217992   4.273   1.157  10.359 -0.8311  0.1323 -0.2573
  161SOPE   H2R17993   4.181   1.218  10.370  0.0716  1.7229 -1.3397
  161SOPE   H2S17994   4.286   1.106  10.457 -1.8900  0.3012 -0.0245
  161SOPE    C317995   4.673   1.265  10.255 -0.7721 -0.4996 -0.4196
  161SOPE    HX17996   4.755   1.336  10.231 -0.0506 -0.9237  0.7404
  161SOPE    HY17997   4.587   1.291  10.191 -0.8571 -0.1968 -0.1826
  161SOPE   O3117998   4.709   1.131  10.240  0.4371 -0.0172  0.1100
  161SOPE   C3117999   4.841   1.096  10.241  0.9290  0.6615  0.2500
  161SOPE   O3218000   4.934   1.169  10.266 -0.2511 -0.4092 -0.3328
  161SOPE   C3218001   4.854   0.944  10.215 -0.0500 -0.0922  0.2542
  161SOPE   H2X18002   4.763   0.914  10.159  0.1561 -0.3425  0.0522
  161SOPE   H2Y18003   4.865   0.894  10.313 -0.8450 -2.5788 -0.8931
  161SOPE   C2318004   4.260   1.063  10.237 -0.2130 -0.2610 -0.4946
  161SOPE   H3R18005   4.215   0.964  10.258 -2.8896  0.5565 -2.0238
  161SOPE   H3S18006   4.365   1.037  10.212  0.3088  1.7314 -0.4581
  161SOPE   C2418007   4.195   1.134  10.121  0.1485 -0.0488 -0.2115
  161SOPE   H4R18008   4.095   1.166  10.156  0.5313  0.4420  0.4472
  161SOPE   H4S18009   4.256   1.215  10.074 -2.1866  1.2839 -1.0556
  161SOPE   C2518010   4.175   1.030  10.003 -0.0347  0.5564 -0.4253
  161SOPE   H5R18011   4.105   0.960  10.053 -0.3458  0.5592 -0.8582
  161SOPE   H5S18012   4.125   1.086   9.921 -0.0131  0.9912 -0.1460
  161SOPE   C2618013   4.308   0.961   9.958 -0.1016  0.5308  0.5022
  161SOPE   H6R18014   4.396   1.027   9.939  1.5635 -1.0888  2.3255
  161SOPE   H6S18015   4.337   0.884  10.032  1.0061 -0.2565 -0.7150
  161SOPE   C2718016   4.276   0.873   9.836 -0.7959  0.2625  1.0796
  161SOPE   H7R18017   4.364   0.807   9.821 -1.5874 -0.5963  0.1532
  161SOPE   H7S18018   4.199   0.799   9.865  1.2499 -2.2451  0.2748
  161SOPE   C2818019   4.236   0.947   9.701  0.0964  0.1172  0.7536
  161SOPE   H8R18020   4.200   0.872   9.627  0.0444  1.6630 -0.8351
  161SOPE   H8S18021   4.147   1.011   9.722  0.0283  0.5205 -0.6896
  161SOPE   C2918022   4.348   1.036   9.643  0.5791  0.7020  0.1721
  161SOPE   H9118023   4.416   1.083   9.716  1.7363  1.5893 -1.4512
  161SOPE  C21018024   4.378   1.052   9.515  0.3199  0.2928  0.0356
  161SOPE  H10118025   4.470   1.103   9.482  0.1720 -0.1941 -1.1564
  161SOPE  C21118026   4.314   0.996   9.392 -0.1004 -0.4404  0.2084
  161SOPE  H11R18027   4.224   0.933   9.410  1.5578 -3.4549 -1.4816
  161SOPE  H11S18028   4.383   0.927   9.339  0.2820 -1.6330  2.1778
  161SOPE  C21218029   4.278   1.120   9.310  0.1617  0.6005 -0.1600
  161SOPE  H12R18030   4.366   1.183   9.285  1.0505 -0.9936 -1.1796
  161SOPE  H12S18031   4.210   1.191   9.362 -0.6032 -0.6554  0.5720
  161SOPE  C21318032   4.203   1.082   9.182  0.4128 -0.6030 -0.2329
  161SOPE  H13R18033   4.139   1.169   9.156  0.8094  0.5987  2.5560
  161SOPE  H13S18034   4.144   0.989   9.198 -1.8919  0.3669 -2.6944
  161SOPE  C21418035   4.297   1.062   9.068 -0.2170  0.3066  0.0365
  161SOPE  H14R18036   4.229   1.020   8.991 -0.6730 -1.5367  1.4005
  161SOPE  H14S18037   4.378   0.986   9.074 -0.8643 -0.4111 -0.2622
  161SOPE  C21518038   4.358   1.197   9.023  0.5228 -0.2249  0.5010
  161SOPE  H15R18039   4.435   1.215   9.100  1.7213 -0.3671 -0.6541
  161SOPE  H15S18040   4.277   1.273   9.034 -2.6777 -3.4167  0.0920
  161SOPE  C21618041   4.420   1.198   8.884 -0.1654 -0.2320 -0.1448
  161SOPE  H16R18042   4.347   1.157   8.812  0.2348  2.4017 -2.1513
  161SOPE  H16S18043   4.511   1.135   8.873 -1.5353 -2.3062  0.2187
  161SOPE  C21718044   4.459   1.343   8.850 -0.6439 -0.0214 -0.1150
  161SOPE  H17R18045   4.510   1.342   8.751  0.4569  2.3654  0.3975
  161SOPE  H17S18046   4.524   1.390   8.927 -0.8857 -0.1409  0.1652
  161SOPE  C21818047   4.341   1.442   8.831  0.7721 -0.3331 -0.1567
  161SOPE  H18R18048   4.284   1.445   8.926  1.1822 -2.5798  0.1739
  161SOPE  H18S18049   4.270   1.418   8.750 -0.8057 -1.0998  1.4309
  161SOPE  H18T18050   4.387   1.544   8.827  1.6870 -0.6557  1.6947
  161SOPE   C3318051   4.973   0.905  10.121  0.2737 -0.2574 -0.6656
  161SOPE   H3X18052   5.000   0.804  10.157  1.3381 -0.3262 -1.6114
  161SOPE   H3Y18053   5.057   0.978  10.131 -0.8766  0.9878  0.0275
  161SOPE   C3418054   4.950   0.894   9.967  0.2776  0.1944  0.0981
  161SOPE   H4X18055   5.042   0.847   9.926 -0.1557 -0.8982  0.3595
  161SOPE   H4Y18056   4.942   0.997   9.926 -1.1849 -0.0085 -0.1214
  161SOPE   C3518057   4.835   0.811   9.919  0.5534  0.4223  0.7871
  161SOPE   H5X18058   4.738   0.846   9.961 -1.1489 -2.0806 -0.9115
  161SOPE   H5Y18059   4.845   0.707   9.955  0.0104  0.8865  2.2870
  161SOPE   C3618060   4.824   0.808   9.768  0.4145 -0.7949 -0.0699
  161SOPE   H6X18061   4.918   0.780   9.715 -1.0035 -1.8919 -2.0877
  161SOPE   H6Y18062   4.789   0.910   9.742  1.3161 -0.2389  0.8299
  161SOPE   C3718063   4.713   0.704   9.724 -0.2956  0.7289 -0.0311
  161SOPE   H7X18064   4.635   0.710   9.803 -0.6203  0.6262 -0.3423
  161SOPE   H7Y18065   4.753   0.602   9.740  0.5775  1.3802  2.1345
  161SOPE   C3818066   4.654   0.731   9.583 -0.1818  0.1699 -0.3120
  161SOPE   H8X18067   4.745   0.756   9.524 -1.4380  0.0839 -2.3248
  161SOPE   H8Y18068   4.581   0.814   9.590 -0.6922 -0.4048  1.2524
  161SOPE   C3918069   4.583   0.612   9.527 -0.1104  0.3249  0.2748
  161SOPE   H9X18070   4.491   0.591   9.587 -0.6914 -1.4245 -1.1798
  161SOPE   H9Y18071   4.653   0.526   9.526  1.5315  1.6399 -1.5156
  161SOPE  C31018072   4.541   0.624   9.381  0.1651  0.2516 -0.2530
  161SOPE  H10X18073   4.622   0.668   9.320  1.3009 -1.5564 -0.0923
  161SOPE  H10Y18074   4.442   0.673   9.369 -0.9172 -0.6316  4.0525
  161SOPE  C31118075   4.519   0.482   9.318  0.1890 -0.7241 -0.5420
  161SOPE  H11X18076   4.447   0.430   9.385 -0.0958 -1.0757 -1.1154
  161SOPE  H11Y18077   4.615   0.427   9.329  0.1042 -0.9686 -1.0033
  161SOPE  C31218078   4.482   0.472   9.168 -0.9099 -0.4141 -0.4798
  161SOPE  H12X18079   4.460   0.365   9.145 -0.4019 -0.6404  0.0890
  161SOPE  H12Y18080   4.568   0.489   9.100 -1.0003  3.1732  0.2057
  161SOPE  C31318081   4.354   0.548   9.120  0.6142 -0.7044  0.6116
  161SOPE  H13X18082   4.377   0.652   9.090  0.7624 -0.3858  1.7986
  161SOPE  H13Y18083   4.292   0.555   9.211  0.5057  0.0696  0.4768
  161SOPE  C31418084   4.289   0.474   9.010 -0.1529 -0.0019 -0.3195
  161SOPE  H14X18085   4.201   0.530   8.971 -1.8945 -1.4709  1.3753
  161SOPE  H14Y18086   4.236   0.387   9.054 -1.3372 -0.0571 -1.7819
  161SOPE  C31518087   4.382   0.444   8.887 -0.4567  0.6311  0.3468
  161SOPE  H15X18088   4.440   0.354   8.916  0.4920  1.1146 -0.0069
  161SOPE  H15Y18089   4.453   0.526   8.863  0.6167 -0.7931 -1.4695
  161SOPE  C31618090   4.310   0.410   8.759 -0.4237 -1.1368 -0.4403
  161SOPE  H16X18091   4.242   0.491   8.725  2.5101  1.4865 -0.2410
  161SOPE  H16Y18092   4.244   0.323   8.777  0.4822 -2.5479 -3.5835
  161SOPE  C31718093   4.388   0.377   8.639 -0.0035 -0.3044  0.2858
  161SOPE  H17X18094   4.438   0.469   8.602  0.8346 -1.3069 -1.1761
  161SOPE  H17Y18095   4.321   0.345   8.557 -0.9806  1.6199  0.3250
  161SOPE  C31818096   4.501   0.275   8.659  0.4949 -0.1661 -0.5215
  161SOPE  H18X18097   4.593   0.321   8.700  0.9004 -1.4839  0.0521
  161SOPE  H18Y18098   4.530   0.236   8.559  1.1034  0.1683 -0.4784
  161SOPE  H18Z18099   4.470   0.190   8.722 -1.2995  0.9281  0.0919
  162SOPE     N18100   3.250   1.334  11.164 -0.0429 -0.3223 -0.3030
  162SOPE   HN118101   3.157   1.297  11.134  0.0935  0.7054 -2.0897
  162SOPE   HN218102   3.282   1.299  11.256 -1.4090 -0.4576  0.1197
  162SOPE   HN318103   3.238   1.436  11.176  1.4173  0.0903 -2.0198
  162SOPE   C1218104   3.345   1.311  11.047  0.7555  0.0568 -0.4251
  162SOPE  H12A18105   3.426   1.243  11.080 -0.5707 -0.7825  1.1961
  162SOPE  H12B18106   3.400   1.406  11.031  0.1645  0.6746  1.1464
  162SOPE   C1118107   3.259   1.268  10.926 -0.5681 -0.8843 -0.0938
  162SOPE  H11A18108   3.330   1.249  10.842  1.5119  1.4378  1.0524
  162SOPE  H11B18109   3.182   1.341  10.894 -0.5600 -1.6723 -1.9604
  162SOPE     P18110   3.036   1.130  10.937  0.2106 -0.1633 -0.2523
  162SOPE   O1318111   2.963   1.228  11.019 -0.2128 -0.1418  0.8037
  162SOPE   O1418112   2.997   0.989  10.944 -0.3811  0.2812  0.0311
  162SOPE   O1218113   3.192   1.149  10.971 -0.4485 -0.1093 -0.0889
  162SOPE   O1118114   3.026   1.166  10.784 -0.6400  0.0257  0.4909
  162SOPE    C118115   3.092   1.078  10.698  0.2485  0.1415 -0.2939
  162SOPE    HA18116   3.075   0.971  10.725 -1.0396  0.3702 -0.1644
  162SOPE    HB18117   3.200   1.106  10.704  0.3917 -0.3790 -0.3623
  162SOPE    C218118   3.036   1.090  10.556 -0.0046  0.0407  0.3467
  162SOPE    HS18119   3.085   1.017  10.489 -1.3582 -1.6642  1.1908
  162SOPE   O2118120   3.050   1.220  10.496 -1.1203  0.3018 -0.0778
  162SOPE   C2118121   3.173   1.258  10.466  0.1151  1.0359  0.0335
  162SOPE   O2218122   3.268   1.187  10.445  0.2216  0.0500 -0.2455
  162SOPE   C2218123   3.170   1.410  10.442  0.6447 -0.3229 -0.5362
  162SOPE   H2R18124   3.173   1.459  10.542 -2.2363 -3.9061  1.4497
  162SOPE   H2S18125   3.068   1.433  10.404  0.4555  0.4748  0.4174
  162SOPE    C318126   2.891   1.038  10.555  0.1596  0.0295  0.7382
  162SOPE    HX18127   2.839   1.111  10.621  1.7094  3.0493 -1.2592
  162SOPE    HY18128   2.893   0.935  10.598  1.5401 -0.2671  0.0145
  162SOPE   O3118129   2.835   1.044  10.420 -0.2197  0.2793  0.2397
  162SOPE   C3118130   2.877   0.939  10.342 -0.3220  0.5692  1.0688
  162SOPE   O3218131   2.948   0.849  10.382 -0.1915  0.4804 -0.6960
  162SOPE   C3218132   2.837   0.963  10.196  1.1159  0.8987 -0.1764
  162SOPE   H2X18133   2.928   1.012  10.155  1.1020 -0.9133 -2.5022
  162SOPE   H2Y18134   2.760   1.043  10.190 -0.0579 -0.3926 -3.5226
  162SOPE   C2318135   3.283   1.463  10.359 -0.1242  0.4514 -0.4637
  162SOPE   H3R18136   3.383   1.428  10.393  0.4568  0.5839 -2.0116
  162SOPE   H3S18137   3.268   1.571  10.380 -0.9125  0.5609 -1.5653
  162SOPE   C2418138   3.264   1.431  10.209  0.2603 -0.0390 -0.2804
  162SOPE   H4R18139   3.289   1.325  10.187  1.7810  0.2108  0.1869
  162SOPE   H4S18140   3.161   1.456  10.175 -0.7269 -0.1006  2.5086
  162SOPE   C2518141   3.350   1.511  10.121  0.4610 -0.9958  0.1830
  162SOPE   H5R18142   3.364   1.613  10.163  0.4777 -0.7808 -0.3327
  162SOPE   H5S18143   3.450   1.463  10.112  0.3135 -1.2130 -0.3362
  162SOPE   C2618144   3.300   1.528   9.976 -0.3059  0.2382  0.1176
  162SOPE   H6R18145   3.285   1.431   9.924 -0.1413  0.0589  0.4044
  162SOPE   H6S18146   3.198   1.573   9.978  0.0247  0.9685  1.2224
  162SOPE   C2718147   3.397   1.614   9.887  0.0720  0.1308  0.4128
  162SOPE   H7R18148   3.410   1.707   9.947  0.5465  1.1661 -1.2626
  162SOPE   H7S18149   3.500   1.572   9.877  0.0174  0.5332 -2.3692
  162SOPE   C2818150   3.348   1.651   9.751  0.3848  0.0048 -0.9160
  162SOPE   H8R18151   3.263   1.721   9.747  0.8733  0.6581  0.1206
  162SOPE   H8S18152   3.426   1.708   9.695  0.1100  2.3050  0.9866
  162SOPE   C2918153   3.323   1.518   9.677  0.4011 -0.4539 -0.9753
  162SOPE   H9118154   3.416   1.464   9.653  0.3409 -0.2275 -1.7468
  162SOPE  C21018155   3.199   1.461   9.655  0.2974  0.5276  0.2241
  162SOPE  H10118156   3.191   1.363   9.606 -1.2363  1.1984 -0.9149
  162SOPE  C21118157   3.074   1.531   9.693 -0.2566  0.2391 -0.3585
  162SOPE  H11R18158   3.094   1.616   9.760 -0.1082 -0.5026  0.5474
  162SOPE  H11S18159   3.004   1.466   9.750 -0.0083 -1.9769 -2.4737
  162SOPE  C21218160   2.987   1.587   9.569 -0.5688 -0.1761 -0.4259
  162SOPE  H12R18161   2.942   1.686   9.589 -1.9043 -0.9041  0.2406
  162SOPE  H12S18162   2.900   1.519   9.551 -0.0573 -1.5565  2.0460
  162SOPE  C21318163   3.050   1.580   9.425 -0.5860  0.1206 -0.4128
  162SOPE  H13R18164   3.099   1.481   9.415  0.1165  0.5095 -0.8673
  162SOPE  H13S18165   3.124   1.661   9.409 -2.4108  2.0108  0.4355
  162SOPE  C21418166   2.945   1.593   9.313  0.2257 -0.3455  0.9593
  162SOPE  H14R18167   2.856   1.535   9.347  0.2038 -0.0430  1.4254
  162SOPE  H14S18168   2.978   1.537   9.222  1.8036 -0.6693  1.7209
  162SOPE  C21518169   2.898   1.730   9.267  0.7080 -0.5027 -0.0027
  162SOPE  H15R18170   2.988   1.778   9.223  0.3729  0.8637  0.7709
  162SOPE  H15S18171   2.868   1.805   9.343  0.0655 -0.8158  0.0557
  162SOPE  C21618172   2.791   1.698   9.165 -0.1024  0.3104  0.1172
  162SOPE  H16R18173   2.701   1.647   9.205  1.1277 -2.5282 -0.6039
  162SOPE  H16S18174   2.839   1.629   9.092 -3.1339 -0.5133 -1.1801
  162SOPE  C21718175   2.758   1.829   9.095 -0.4030 -0.3015  0.3140
  162SOPE  H17R18176   2.754   1.903   9.178 -0.4549 -1.4038  1.3048
  162SOPE  H17S18177   2.656   1.818   9.051 -0.3931  1.4708 -0.2106
  162SOPE  C21818178   2.860   1.875   8.992 -0.1056  0.1056  0.3845
  162SOPE  H18R18179   2.958   1.837   9.029 -0.3557 -2.1409 -1.1056
  162SOPE  H18S18180   2.853   1.985   8.985 -1.3240 -0.1071 -2.4410
  162SOPE  H18T18181   2.860   1.821   8.895 -0.1950 -2.1134  1.5737
  162SOPE   C3318182   2.799   0.832  10.118  0.0301  0.4407 -0.5663
  162SOPE   H3X18183   2.694   0.797  10.135  0.4447 -1.3256 -1.4788
  162SOPE   H3Y18184   2.867   0.747  10.141  0.3989  0.4394 -1.6263
  162SOPE   C3418185   2.804   0.873   9.969 -1.0071  0.6771  0.2970
  162SOPE   H4X18186   2.866   0.961   9.945  1.0329 -0.6642  0.5263
  162SOPE   H4Y18187   2.699   0.888   9.935 -1.5946 -0.7681  1.4347
  162SOPE   C3518188   2.855   0.756   9.888  0.2520  0.4967  0.0348
  162SOPE   H5X18189   2.807   0.660   9.916  3.2420 -1.7884 -2.3873
  162SOPE   H5Y18190   2.965   0.748   9.901  0.2182 -1.3192 -0.5886
  162SOPE   C3618191   2.836   0.773   9.739  0.0813 -0.4346  0.1815
  162SOPE   H6X18192   2.912   0.850   9.711  0.8948 -0.8936  1.1322
  162SOPE   H6Y18193   2.733   0.807   9.717  0.0754 -0.3858  0.2849
  162SOPE   C3718194   2.861   0.649   9.655 -0.1391 -1.0090 -0.1479
  162SOPE   H7X18195   2.778   0.579   9.675 -0.1391 -0.6037  1.3266
  162SOPE   H7Y18196   2.954   0.596   9.686  0.7343 -0.2241 -1.3838
  162SOPE   C3818197   2.874   0.675   9.499  0.2629  0.9464 -0.4365
  162SOPE   H8X18198   2.970   0.730   9.484  1.4335 -0.3541  2.0806
  162SOPE   H8Y18199   2.794   0.740   9.459  0.3685  0.7605 -0.9579
  162SOPE   C3918200   2.890   0.540   9.419  0.0652  0.4050  0.2019
  162SOPE   H9X18201   2.816   0.461   9.446 -0.5393  0.1522 -2.0416
  162SOPE   H9Y18202   2.987   0.497   9.452  1.1650  1.2326 -1.8439
  162SOPE  C31018203   2.887   0.576   9.276 -0.2925  0.3806 -0.1059
  162SOPE  H10X18204   2.986   0.619   9.250  1.4962 -1.9203  2.5920
  162SOPE  H10Y18205   2.807   0.646   9.243 -0.4733 -0.5842 -1.7921
  162SOPE  C31118206   2.876   0.452   9.176 -0.0109  0.3251  0.6229
  162SOPE  H11X18207   2.792   0.394   9.219  0.7613 -0.6818  0.7978
  162SOPE  H11Y18208   2.976   0.404   9.187 -0.7531 -1.4347 -0.0819
  162SOPE  C31218209   2.854   0.500   9.025 -0.0552  0.2378 -0.3796
  162SOPE  H12X18210   2.750   0.537   9.013 -0.0446  0.5721  0.4996
  162SOPE  H12Y18211   2.871   0.408   8.965  1.0937  1.7582 -2.4837
  162SOPE  C31318212   2.946   0.609   8.972 -0.4453  0.0745  0.0868
  162SOPE  H13X18213   3.051   0.574   8.962  0.7752  2.9286  2.3543
  162SOPE  H13Y18214   2.950   0.683   9.055 -0.2462  0.2210 -0.0527
  162SOPE  C31418215   2.905   0.679   8.843  0.4254 -0.1034  0.1051
  162SOPE  H14X18216   2.872   0.599   8.773 -0.5117  0.5552 -0.2173
  162SOPE  H14Y18217   2.991   0.732   8.796 -0.8439  0.6316 -1.4447
  162SOPE  C31518218   2.786   0.775   8.848  0.4262  0.2922 -0.4031
  162SOPE  H15X18219   2.795   0.835   8.941 -1.0618 -0.8614  0.5058
  162SOPE  H15Y18220   2.692   0.716   8.854  1.1201 -0.8742 -0.8519
  162SOPE  C31618221   2.773   0.868   8.728  0.1148  0.2745 -0.2920
  162SOPE  H16X18222   2.771   0.817   8.629 -1.4140  0.8292 -0.5630
  162SOPE  H16Y18223   2.857   0.941   8.735  0.4242 -0.2383  1.5761
  162SOPE  C31718224   2.662   0.968   8.740  0.2944  0.9103  0.7909
  162SOPE  H17X18225   2.677   1.031   8.831 -2.2431  2.0976  0.4351
  162SOPE  H17Y18226   2.563   0.919   8.749  0.8259 -0.8321 -2.2752
  162SOPE  C31818227   2.663   1.068   8.623  1.2857 -0.3140  0.8979
  162SOPE  H18X18228   2.685   1.006   8.533 -2.0158  1.4443 -1.2109
  162SOPE  H18Y18229   2.746   1.141   8.634  1.5497 -0.5257  0.3724
  162SOPE  H18Z18230   2.564   1.116   8.609  2.2694  1.6618  0.6370
  163SOPE     N18231   3.119   5.173  11.076  0.1322 -0.0258 -0.0649
  163SOPE   HN118232   3.043   5.183  11.146 -1.6136  0.4198 -1.9622
  163SOPE   HN218233   3.119   5.082  11.026 -1.9594  0.3781 -0.8558
  163SOPE   HN318234   3.210   5.184  11.124 -0.8450 -0.3604  1.9410
  163SOPE   C1218235   3.106   5.286  10.971 -0.0131  0.2353  0.4030
  163SOPE  H12A18236   3.146   5.377  11.019  0.5612 -0.0354  0.4489
  163SOPE  H12B18237   2.999   5.307  10.952  0.1735  0.3459 -0.5642
  163SOPE   C1118238   3.180   5.259  10.846  1.0015  1.4538  0.3373
  163SOPE  H11A18239   3.157   5.341  10.774  0.2533  1.4980  0.6271
  163SOPE  H11B18240   3.158   5.167  10.787 -1.6553  2.1790  0.1600
  163SOPE     P18241   3.406   5.390  10.877 -0.2976  0.2412 -0.1966
  163SOPE   O1318242   3.528   5.355  10.958  0.0112  0.2453  0.0774
  163SOPE   O1418243   3.319   5.508  10.910 -0.2180  0.2075 -0.6452
  163SOPE   O1218244   3.319   5.253  10.863 -0.5603 -0.4720  0.4894
  163SOPE   O1118245   3.450   5.410  10.724  0.4892  0.3456 -0.1521
  163SOPE    C118246   3.498   5.293  10.653  0.2174 -0.2594  0.9266
  163SOPE    HA18247   3.526   5.199  10.707  2.3695  0.6883  1.5436
  163SOPE    HB18248   3.592   5.327  10.603 -0.9349  0.8708 -0.5015
  163SOPE    C218249   3.396   5.264  10.540 -0.4202 -0.0443  0.9039
  163SOPE    HS18250   3.302   5.228  10.588 -0.5511 -0.1891  0.5363
  163SOPE   O2118251   3.448   5.178  10.443  0.3257 -0.1007  0.0006
  163SOPE   C2118252   3.464   5.051  10.482 -0.1500  0.6946  0.1991
  163SOPE   O2218253   3.445   4.996  10.590  0.9231 -0.1987 -0.7185
  163SOPE   C2218254   3.491   4.966  10.361 -0.5068 -0.4555  0.2867
  163SOPE   H2R18255   3.389   4.933  10.331 -0.4166 -0.6926  0.2447
  163SOPE   H2S18256   3.556   4.885  10.398 -0.7227 -0.8916 -0.2776
  163SOPE    C318257   3.349   5.395  10.465 -0.3436  0.1649 -0.9365
  163SOPE    HX18258   3.435   5.431  10.404  1.2770  2.4300  2.4767
  163SOPE    HY18259   3.321   5.478  10.534 -1.4562 -0.4320 -0.6652
  163SOPE   O3118260   3.238   5.368  10.379  0.5863  0.4215  0.5524
  163SOPE   C3118261   3.191   5.482  10.323 -0.3032  0.4271  0.2524
  163SOPE   O3218262   3.238   5.593  10.328  0.0252 -0.2789  0.2064
  163SOPE   C3218263   3.067   5.449  10.247 -0.4272 -0.6155  0.5964
  163SOPE   H2X18264   2.986   5.412  10.313 -1.8211 -0.4184 -0.9477
  163SOPE   H2Y18265   3.100   5.363  10.185 -0.9572  0.5526 -1.3640
  163SOPE   C2318266   3.564   5.037  10.238 -0.4271  0.7032 -0.2963
  163SOPE   H3R18267   3.662   5.080  10.269  0.5253 -0.1143 -2.0771
  163SOPE   H3S18268   3.500   5.115  10.193  0.2008 -0.2952 -3.0420
  163SOPE   C2418269   3.595   4.928  10.137  0.8578  0.4723 -0.7833
  163SOPE   H4R18270   3.677   4.862  10.175 -0.6315 -0.5018  0.8104
  163SOPE   H4S18271   3.508   4.860  10.124  2.6445 -2.0185 -0.2439
  163SOPE   C2518272   3.627   4.986  10.001  0.2623 -0.1626 -0.2919
  163SOPE   H5R18273   3.562   5.074   9.985 -0.3600 -0.3782  1.0088
  163SOPE   H5S18274   3.734   5.015   9.995  0.5080 -0.6641  1.3664
  163SOPE   C2618275   3.592   4.888   9.890 -0.5578  0.2380 -0.4194
  163SOPE   H6R18276   3.643   4.791   9.908 -0.2977  0.4564  0.0566
  163SOPE   H6S18277   3.485   4.861   9.900 -1.3701  3.7278  1.3245
  163SOPE   C2718278   3.640   4.950   9.763 -0.1869  0.1631 -1.2263
  163SOPE   H7R18279   3.574   5.037   9.746 -0.3598  0.0504 -1.1333
  163SOPE   H7S18280   3.739   5.000   9.776  0.0464 -0.6706  0.3138
  163SOPE   C2818281   3.640   4.861   9.636 -0.4991 -0.5224 -0.3110
  163SOPE   H8R18282   3.547   4.799   9.633  0.2053 -1.5767 -0.7311
  163SOPE   H8S18283   3.647   4.917   9.541 -0.0547  0.9032  0.5473
  163SOPE   C2918284   3.759   4.772   9.647 -0.7857  0.1148 -0.0280
  163SOPE   H9118285   3.770   4.738   9.751  0.7074  0.6042 -0.0045
  163SOPE  C21018286   3.854   4.752   9.554 -0.1190  0.2091 -0.6691
  163SOPE  H10118287   3.929   4.673   9.569  1.6199  1.7189 -1.2715
  163SOPE  C21118288   3.854   4.802   9.413  0.4017 -0.1705  0.4428
  163SOPE  H11R18289   3.893   4.906   9.407 -0.3239  0.0619 -0.4139
  163SOPE  H11S18290   3.754   4.811   9.364 -0.4059 -1.5320  1.8101
  163SOPE  C21218291   3.927   4.709   9.313 -0.2618  0.7311 -0.2085
  163SOPE  H12R18292   3.881   4.609   9.297 -0.6942  0.9811 -0.5344
  163SOPE  H12S18293   4.033   4.694   9.342 -0.8906 -3.5686  0.2141
  163SOPE  C21318294   3.938   4.774   9.169 -0.2630  0.0848  0.5290
  163SOPE  H13R18295   4.009   4.859   9.180 -2.3847  2.0650 -0.7395
  163SOPE  H13S18296   3.837   4.805   9.134 -0.5572  0.5765  1.7825
  163SOPE  C21418297   3.990   4.663   9.071  0.3067 -0.0758 -0.5500
  163SOPE  H14R18298   3.920   4.577   9.068  0.3521 -0.1037 -0.7923
  163SOPE  H14S18299   4.088   4.626   9.109  1.0331 -2.8095 -4.7481
  163SOPE  C21518300   4.007   4.716   8.923  0.1890  0.5215 -0.2403
  163SOPE  H15R18301   4.043   4.821   8.929 -0.2127  0.5931  1.1107
  163SOPE  H15S18302   3.906   4.713   8.877  1.2014  0.0337 -2.5219
  163SOPE  C21618303   4.100   4.627   8.830 -0.4638 -0.6746 -0.2757
  163SOPE  H16R18304   4.200   4.613   8.877 -0.7970 -0.7787  0.4158
  163SOPE  H16S18305   4.122   4.690   8.742 -0.8427  1.7787  1.3474
  163SOPE  C21718306   4.037   4.486   8.807  0.3787 -1.0266  0.3919
  163SOPE  H17R18307   4.033   4.435   8.906 -1.6265 -1.9258 -0.1258
  163SOPE  H17S18308   4.106   4.432   8.738 -1.5267  0.6428 -2.9151
  163SOPE  C21818309   3.898   4.493   8.743 -0.1722  0.2162  0.1286
  163SOPE  H18R18310   3.872   4.386   8.726  0.4470  0.0752  0.0610
  163SOPE  H18S18311   3.889   4.556   8.652  1.6700 -0.5516 -0.6002
  163SOPE  H18T18312   3.817   4.524   8.812 -1.3366 -2.5027  0.0695
  163SOPE   C3318313   3.014   5.559  10.146 -0.4014 -0.1472  0.2333
  163SOPE   H3X18314   3.098   5.608  10.093  0.6725  0.4001  2.3816
  163SOPE   H3Y18315   2.955   5.630  10.209 -0.2766  0.1907 -0.0285
  163SOPE   C3418316   2.911   5.508  10.046 -0.0555  0.0013 -1.0458
  163SOPE   H4X18317   2.863   5.600  10.006 -0.9386  0.0189  0.0410
  163SOPE   H4Y18318   2.828   5.447  10.087  0.3053  0.1490 -0.0750
  163SOPE   C3518319   2.970   5.426   9.932 -0.0150  0.2691 -0.0507
  163SOPE   H5X18320   3.017   5.329   9.960  2.7935  1.5812 -0.0681
  163SOPE   H5Y18321   3.048   5.492   9.889  2.2935 -0.7733  2.3901
  163SOPE   C3618322   2.861   5.405   9.824  0.6183 -0.0107 -0.4167
  163SOPE   H6X18323   2.839   5.511   9.798  2.0631  0.0828 -1.2992
  163SOPE   H6Y18324   2.770   5.367   9.875 -0.8698  0.6924 -2.4870
  163SOPE   C3718325   2.899   5.339   9.689  0.2317  0.5442 -0.3411
  163SOPE   H7X18326   2.877   5.230   9.688  0.5443  0.4748  0.2003
  163SOPE   H7Y18327   3.008   5.350   9.666 -0.0066 -0.1428 -1.8999
  163SOPE   C3818328   2.833   5.404   9.564  0.1776 -0.4782  0.1296
  163SOPE   H8X18329   2.866   5.509   9.555 -1.5790  0.0639 -0.2239
  163SOPE   H8Y18330   2.722   5.409   9.563  0.1351 -1.1675  0.8967
  163SOPE   C3918331   2.883   5.347   9.430  0.3529  0.0848  0.6573
  163SOPE   H9X18332   2.872   5.236   9.438 -0.2664  0.1616  0.8872
  163SOPE   H9Y18333   2.986   5.370   9.396 -0.1008  1.6480  0.3062
  163SOPE  C31018334   2.800   5.411   9.320 -0.0077 -0.5405 -0.3174
  163SOPE  H10X18335   2.802   5.522   9.322 -1.8953 -0.4688 -1.3133
  163SOPE  H10Y18336   2.694   5.381   9.336  0.2165 -2.1433 -1.7226
  163SOPE  C31118337   2.836   5.363   9.179 -0.0331 -0.2580  0.1565
  163SOPE  H11X18338   2.850   5.256   9.153  0.0894 -0.4078  0.8480
  163SOPE  H11Y18339   2.938   5.396   9.149  0.9939 -3.0077  0.4775
  163SOPE  C31218340   2.738   5.432   9.076 -0.1622 -0.2281  0.4305
  163SOPE  H12X18341   2.771   5.538   9.068  0.6083 -0.4303  0.8519
  163SOPE  H12Y18342   2.635   5.431   9.118 -0.5000  1.0738 -0.3474
  163SOPE  C31318343   2.743   5.361   8.937  0.4528 -0.2426 -0.0371
  163SOPE  H13X18344   2.726   5.253   8.955 -1.7532  0.0713 -0.1640
  163SOPE  H13Y18345   2.844   5.378   8.895  0.1256  1.6421 -0.0785
  163SOPE  C31418346   2.632   5.415   8.838 -0.5913  0.0031 -0.3227
  163SOPE  H14X18347   2.634   5.525   8.852 -0.9240 -0.2956  2.2983
  163SOPE  H14Y18348   2.529   5.382   8.861 -1.0773  0.3724 -1.8710
  163SOPE  C31518349   2.647   5.407   8.687 -0.2349  0.5699 -0.7010
  163SOPE  H15X18350   2.734   5.471   8.662  2.3040 -2.4308  0.1462
  163SOPE  H15Y18351   2.556   5.453   8.642 -1.2690 -2.1338 -1.4700
  163SOPE  C31618352   2.655   5.265   8.633 -0.0132  0.0513  0.4034
  163SOPE  H16X18353   2.553   5.223   8.646 -0.2646  0.4267 -0.3830
  163SOPE  H16Y18354   2.716   5.210   8.709  0.3820 -0.6250 -0.3962
  163SOPE  C31718355   2.697   5.251   8.491 -0.3323 -0.1224 -0.5393
  163SOPE  H17X18356   2.779   5.325   8.480 -0.4579  0.0124 -0.5756
  163SOPE  H17Y18357   2.621   5.285   8.417  0.6255  0.9981 -1.0227
  163SOPE  C31818358   2.745   5.112   8.447 -0.1192 -1.5252  0.3745
  163SOPE  H18X18359   2.801   5.117   8.352  2.0180  0.5998  1.6795
  163SOPE  H18Y18360   2.656   5.045   8.451  0.0653 -1.8245 -0.4756
  163SOPE  H18Z18361   2.819   5.080   8.524 -0.0943 -0.2932  0.8819
  164SOPE     N18362   6.675   2.986  10.795 -0.3166  0.7728  0.1265
  164SOPE   HN118363   6.664   3.042  10.707  0.3757  0.5792 -0.0922
  164SOPE   HN218364   6.774   2.972  10.826  0.2127 -2.2799 -2.5613
  164SOPE   HN318365   6.629   2.894  10.780  1.9910 -0.3034 -0.6039
  164SOPE   C1218366   6.611   3.061  10.899  0.2600  0.3854 -0.4124
  164SOPE  H12A18367   6.681   3.142  10.929  0.5664 -0.4759  1.2222
  164SOPE  H12B18368   6.594   2.995  10.986  1.6095  2.3711  1.4120
  164SOPE   C1118369   6.482   3.124  10.845  0.4207 -0.1037 -0.3718
  164SOPE  H11A18370   6.441   3.184  10.929  1.3472  0.9803 -0.6808
  164SOPE  H11B18371   6.404   3.046  10.828 -0.5352  1.1852 -2.1522
  164SOPE     P18372   6.513   3.356  10.712 -0.3410  0.1773 -0.3628
  164SOPE   O1318373   6.654   3.396  10.700  0.0933 -0.0292 -0.2110
  164SOPE   O1418374   6.432   3.423  10.819 -0.6141 -0.2363 -0.3558
  164SOPE   O1218375   6.509   3.200  10.727  0.6746 -0.4023 -0.3549
  164SOPE   O1118376   6.435   3.387  10.578 -0.3854  0.3850  0.3379
  164SOPE    C118377   6.340   3.303  10.522 -0.6582 -0.3779  1.0825
  164SOPE    HA18378   6.239   3.321  10.564  0.0307 -1.8983  3.5246
  164SOPE    HB18379   6.363   3.195  10.538 -1.0533 -1.0335 -2.3445
  164SOPE    C218380   6.327   3.315  10.365  0.2056  0.3545 -0.3641
  164SOPE    HS18381   6.224   3.285  10.336  0.4445 -1.5999  0.7127
  164SOPE   O2118382   6.424   3.233  10.301 -0.3992  0.0023 -0.5068
  164SOPE   C2118383   6.382   3.119  10.238 -0.2871 -0.2861 -0.7403
  164SOPE   O2218384   6.269   3.102  10.200  0.2074 -0.2161 -0.1098
  164SOPE   C2218385   6.501   3.023  10.218  0.3091 -0.6060  0.1250
  164SOPE   H2R18386   6.457   2.922  10.204  1.0680 -0.7116 -1.7203
  164SOPE   H2S18387   6.541   3.027  10.321 -0.5243 -0.0229  0.4314
  164SOPE    C318388   6.355   3.462  10.316  0.0218  0.5357  0.1317
  164SOPE    HX18389   6.454   3.495  10.356  0.3863 -0.5526  0.1405
  164SOPE    HY18390   6.283   3.529  10.368 -0.1893 -0.3737  0.9976
  164SOPE   O3118391   6.345   3.467  10.174 -0.0672 -0.2015 -0.0783
  164SOPE   C3118392   6.445   3.529  10.110  0.2599 -0.1696 -0.0451
  164SOPE   O3218393   6.541   3.584  10.162  0.7809  0.1099  0.4121
  164SOPE   C3218394   6.406   3.519   9.960  0.3913 -0.1861  0.2733
  164SOPE   H2X18395   6.314   3.579   9.942  0.1285 -0.2044  1.5599
  164SOPE   H2Y18396   6.391   3.414   9.926 -1.7121 -0.8180  3.0244
  164SOPE   C2318397   6.602   3.078  10.115 -0.5337 -0.6043 -0.1594
  164SOPE   H3R18398   6.698   3.024  10.127  0.6586  1.8987  2.0269
  164SOPE   H3S18399   6.624   3.183  10.144  1.0146 -0.5142 -1.6242
  164SOPE   C2418400   6.549   3.074   9.965  0.5511 -0.3517 -0.5852
  164SOPE   H4R18401   6.524   2.967   9.948  2.6970 -0.7370 -1.4254
  164SOPE   H4S18402   6.455   3.134   9.958  0.1024 -0.5177  2.7733
  164SOPE   C2518403   6.657   3.118   9.867  0.3844 -0.5820  0.3710
  164SOPE   H5R18404   6.692   3.218   9.900  2.6214 -1.3032  0.2607
  164SOPE   H5S18405   6.749   3.061   9.894  0.4077 -1.3355 -1.2541
  164SOPE   C2618406   6.603   3.146   9.730 -0.2282  0.4289 -0.4960
  164SOPE   H6R18407   6.508   3.204   9.735 -1.3874 -1.5372  1.1230
  164SOPE   H6S18408   6.679   3.200   9.670 -0.4227  1.3228  0.0550
  164SOPE   C2718409   6.564   3.032   9.640  0.5608 -0.1196  0.7644
  164SOPE   H7R18410   6.649   2.960   9.636  0.7925  0.1019  1.6700
  164SOPE   H7S18411   6.475   2.977   9.679  1.2199 -2.4736 -0.9113
  164SOPE   C2818412   6.545   3.084   9.498 -0.1948 -0.0501  0.2639
  164SOPE   H8R18413   6.471   3.165   9.490 -0.3370 -0.3716 -1.8778
  164SOPE   H8S18414   6.637   3.137   9.464 -2.0206  2.8016 -0.3208
  164SOPE   C2918415   6.516   2.979   9.396 -0.1731  0.3352 -0.8313
  164SOPE   H9118416   6.417   2.935   9.414  0.0480 -0.1437 -0.7722
  164SOPE  C21018417   6.589   2.928   9.294  0.1239 -0.0179 -0.1777
  164SOPE  H10118418   6.549   2.854   9.222 -2.2262 -0.1126  1.1708
  164SOPE  C21118419   6.724   2.976   9.250  0.1402  0.1500  0.3499
  164SOPE  H11R18420   6.775   2.900   9.187 -0.8290 -0.0226 -0.2407
  164SOPE  H11S18421   6.792   2.994   9.336  0.9376 -0.2514 -0.1839
  164SOPE  C21218422   6.714   3.109   9.172  0.2661  0.5977  1.0700
  164SOPE  H12R18423   6.667   3.189   9.232 -0.7545  2.5521 -2.2192
  164SOPE  H12S18424   6.644   3.103   9.086 -0.2733  0.8367  1.4869
  164SOPE  C21318425   6.845   3.166   9.111  0.2251 -0.7981 -0.5534
  164SOPE  H13R18426   6.919   3.191   9.191 -0.0582  0.0407 -0.5513
  164SOPE  H13S18427   6.830   3.267   9.066  3.3265  0.2141  0.5298
  164SOPE  C21418428   6.920   3.066   9.020 -0.2210 -0.2627 -0.2026
  164SOPE  H14R18429   6.846   2.997   8.974 -0.1335  0.2961 -1.2137
  164SOPE  H14S18430   6.990   3.003   9.079 -0.4518 -1.2473 -0.9648
  164SOPE  C21518431   6.991   3.137   8.906 -0.1242  0.6751  0.1692
  164SOPE  H15R18432   7.058   3.064   8.856  0.0794  1.3246 -0.4966
  164SOPE  H15S18433   7.069   3.212   8.931  2.5177 -1.4291 -1.4692
  164SOPE  C21618434   6.893   3.201   8.802 -0.5496 -0.4341  0.1805
  164SOPE  H16R18435   6.835   3.289   8.838  0.2090 -1.0564  3.1231
  164SOPE  H16S18436   6.813   3.128   8.774  0.5568 -1.9652  0.9277
  164SOPE  C21718437   6.948   3.240   8.666  0.4094 -0.4899 -0.8460
  164SOPE  H17R18438   7.015   3.327   8.684  1.8589 -1.8773  0.6256
  164SOPE  H17S18439   6.861   3.267   8.603  1.1797 -0.8696 -2.1016
  164SOPE  C21818440   7.029   3.132   8.610 -0.3601  0.1640  0.1509
  164SOPE  H18R18441   6.978   3.034   8.607 -1.9469  0.9333  1.4841
  164SOPE  H18S18442   7.126   3.119   8.662 -1.1854  0.5246  1.8024
  164SOPE  H18T18443   7.052   3.169   8.507  0.5593 -0.7049  0.0393
  164SOPE   C3318444   6.519   3.585   9.873  0.0070 -0.7950  0.9682
  164SOPE   H3X18445   6.619   3.544   9.900  0.5578  2.1005  3.5122
  164SOPE   H3Y18446   6.533   3.694   9.883  0.7292 -0.9031  1.1278
  164SOPE   C3418447   6.499   3.563   9.721 -0.1089 -0.4887 -0.3911
  164SOPE   H4X18448   6.400   3.602   9.688  0.8786 -0.5220 -3.6092
  164SOPE   H4Y18449   6.482   3.456   9.694 -1.3242 -0.0070 -1.6056
  164SOPE   C3518450   6.594   3.642   9.638 -0.0489 -0.4687 -0.1198
  164SOPE   H5X18451   6.697   3.627   9.678  0.4871  0.6636 -1.0551
  164SOPE   H5Y18452   6.560   3.747   9.640 -0.0420 -0.4653 -0.1697
  164SOPE   C3618453   6.603   3.609   9.492 -0.2372 -0.0594  0.9884
  164SOPE   H6X18454   6.651   3.509   9.482 -1.7238 -0.6893  0.0904
  164SOPE   H6Y18455   6.651   3.691   9.435  2.2818 -0.5773  2.2668
  164SOPE   C3718456   6.469   3.591   9.422  0.6632 -0.4448  0.3680
  164SOPE   H7X18457   6.433   3.693   9.397  1.9204  0.2241  1.2243
  164SOPE   H7Y18458   6.384   3.562   9.487 -0.1714 -1.4068 -1.1223
  164SOPE   C3818459   6.459   3.492   9.300  0.1100 -0.5034 -0.7806
  164SOPE   H8X18460   6.350   3.475   9.304 -0.5526  3.3440  0.5093
  164SOPE   H8Y18461   6.500   3.397   9.341 -0.4671 -0.0423  0.9152
  164SOPE   C3918462   6.522   3.549   9.174 -0.0219 -0.6008  0.0031
  164SOPE   H9X18463   6.629   3.569   9.191 -0.4466  1.0228  0.7606
  164SOPE   H9Y18464   6.473   3.648   9.160 -0.4211 -0.9498 -1.2070
  164SOPE  C31018465   6.492   3.457   9.059  0.3801  0.2425  0.2126
  164SOPE  H10X18466   6.385   3.456   9.029  0.0465  1.7412  1.3244
  164SOPE  H10Y18467   6.520   3.355   9.095  0.2791 -0.0275 -0.4644
  164SOPE  C31118468   6.562   3.490   8.931  0.1036  0.5525  0.0105
  164SOPE  H11X18469   6.672   3.481   8.945 -0.2166  0.1081  2.4628
  164SOPE  H11Y18470   6.548   3.593   8.891  2.7877  0.5315 -1.0956
  164SOPE  C31218471   6.528   3.396   8.814 -0.1798 -0.7825 -0.9321
  164SOPE  H12X18472   6.418   3.386   8.797  0.0853 -3.3710 -1.3736
  164SOPE  H12Y18473   6.577   3.298   8.832 -2.9134 -2.0734 -0.2017
  164SOPE  C31318474   6.579   3.440   8.674 -0.0702  0.1243  0.6144
  164SOPE  H13X18475   6.690   3.442   8.669 -0.1439  2.0155 -0.9991
  164SOPE  H13Y18476   6.541   3.541   8.648  1.7751  0.6971  0.0026
  164SOPE  C31418477   6.537   3.351   8.557  0.3679 -0.0567 -0.1908
  164SOPE  H14X18478   6.555   3.247   8.589 -0.1978 -0.5145 -1.3262
  164SOPE  H14Y18479   6.596   3.369   8.464  1.3384  2.8570  0.9163
  164SOPE  C31518480   6.389   3.374   8.510 -0.4254 -0.5061  1.1368
  164SOPE  H15X18481   6.320   3.379   8.597 -0.6744 -0.8253  0.9555
  164SOPE  H15Y18482   6.367   3.289   8.443 -0.0213  1.3097 -1.3437
  164SOPE  C31618483   6.366   3.502   8.427 -0.0643  0.5865 -0.2667
  164SOPE  H16X18484   6.465   3.526   8.384 -0.5773 -1.0046 -2.4292
  164SOPE  H16Y18485   6.338   3.583   8.498 -3.3578  0.6551 -1.5702
  164SOPE  C31718486   6.248   3.472   8.335  0.6184  0.4708  0.5454
  164SOPE  H17X18487   6.151   3.460   8.387  0.4451 -0.5891 -0.0159
  164SOPE  H17Y18488   6.268   3.380   8.276  1.1685  1.3690 -0.6845
  164SOPE  C31818489   6.232   3.579   8.221  0.4651  0.0844  0.4405
  164SOPE  H18X18490   6.144   3.559   8.156  0.7630 -0.6065  0.2456
  164SOPE  H18Y18491   6.320   3.576   8.153  0.8379 -0.3218  0.9462
  164SOPE  H18Z18492   6.230   3.684   8.256  2.8176  1.0039 -1.9555
  165SOPE     N18493   4.693   3.933  11.180  0.1494  0.2191 -0.5589
  165SOPE   HN118494   4.614   3.955  11.243 -0.9424 -0.7368 -1.5785
  165SOPE   HN218495   4.652   3.923  11.085  1.1190 -0.6816 -0.8933
  165SOPE   HN318496   4.739   3.843  11.204  1.0830  0.9586  0.4930
  165SOPE   C1218497   4.796   4.037  11.180  0.0945  0.1115  0.5497
  165SOPE  H12A18498   4.887   3.974  11.193 -1.7205 -2.2757  1.9864
  165SOPE  H12B18499   4.786   4.109  11.264  0.4192 -0.9923  1.5502
  165SOPE   C1118500   4.801   4.109  11.034  0.1709  0.0438 -0.3046
  165SOPE  H11A18501   4.910   4.131  11.028  1.1204 -3.4197  2.3152
  165SOPE  H11B18502   4.747   4.206  11.031  1.0866  0.5884  0.6135
  165SOPE     P18503   4.813   4.029  10.783 -0.1032 -0.3610  0.1220
  165SOPE   O1318504   4.769   4.147  10.705 -0.6225 -0.1100 -0.2432
  165SOPE   O1418505   4.787   3.895  10.729 -0.0172  0.1856 -0.3849
  165SOPE   O1218506   4.746   4.038  10.926  0.2033  0.5404  0.0303
  165SOPE   O1118507   4.970   4.040  10.823 -0.5501 -0.0369 -0.0839
  165SOPE    C118508   5.062   4.095  10.731 -1.1044  0.3644  0.0518
  165SOPE    HA18509   5.161   4.107  10.780 -0.4446  0.1212 -1.1931
  165SOPE    HB18510   5.028   4.198  10.705  2.6577  0.6960 -4.2583
  165SOPE    C218511   5.096   4.018  10.605  0.0864  0.3415  0.8087
  165SOPE    HS18512   5.188   4.059  10.559 -0.9114  1.9345  0.1918
  165SOPE   O2118513   4.991   4.034  10.507 -0.3327  0.2190  0.0491
  165SOPE   C2118514   4.974   4.151  10.447 -1.0550 -0.1203  0.4812
  165SOPE   O2218515   5.051   4.244  10.456 -0.2259  0.0243  0.3600
  165SOPE   C2218516   4.840   4.161  10.374  0.0156 -0.1286 -0.3186
  165SOPE   H2R18517   4.773   4.223  10.438  0.7997  0.7868 -0.3681
  165SOPE   H2S18518   4.789   4.063  10.380 -2.5072  0.9660 -2.7824
  165SOPE    C318519   5.125   3.866  10.635  0.6127  0.6303 -0.8882
  165SOPE    HX18520   5.055   3.830  10.713  1.1465 -0.2129 -0.7935
  165SOPE    HY18521   5.225   3.869  10.684  0.3340 -1.0244 -0.1782
  165SOPE   O3118522   5.099   3.784  10.519  0.3630  0.2365  0.0167
  165SOPE   C3118523   5.196   3.761  10.442  0.8223 -0.5092  0.0737
  165SOPE   O3218524   5.312   3.800  10.448 -0.2779 -0.6795  0.6303
  165SOPE   C3218525   5.144   3.661  10.334  0.2100 -0.0237  0.1771
  165SOPE   H2X18526   5.047   3.702  10.298 -0.6969 -2.6572 -0.5176
  165SOPE   H2Y18527   5.124   3.567  10.390 -1.2781  0.1994  0.0315
  165SOPE   C2318528   4.844   4.222  10.232 -0.0539  0.2476  0.0626
  165SOPE   H3R18529   4.910   4.311  10.227  2.2826 -1.5299 -2.0316
  165SOPE   H3S18530   4.741   4.246  10.199 -0.2407 -1.1029 -0.3725
  165SOPE   C2418531   4.893   4.121  10.140  0.1512 -0.1486 -0.3052
  165SOPE   H4R18532   5.003   4.115  10.154  0.1100 -0.0496  0.0456
  165SOPE   H4S18533   4.859   4.016  10.146  0.0971 -0.0228  1.8219
  165SOPE   C2518534   4.859   4.152   9.983  0.0747  0.1888 -0.4123
  165SOPE   H5R18535   4.878   4.058   9.928  0.9627 -0.0936  0.3537
  165SOPE   H5S18536   4.754   4.176   9.957  0.3405  0.0843 -1.6293
  165SOPE   C2618537   4.948   4.273   9.941 -0.7138 -0.0616  0.6035
  165SOPE   H6R18538   4.901   4.321   9.853 -1.8165 -0.5425  0.9220
  165SOPE   H6S18539   4.950   4.343  10.028 -0.2802 -0.5868  1.0152
  165SOPE   C2718540   5.100   4.255   9.916 -0.2682 -0.5038 -0.1908
  165SOPE   H7R18541   5.141   4.341   9.858 -0.2087  1.0548  2.1008
  165SOPE   H7S18542   5.162   4.256  10.008 -0.0937  0.1219 -0.3127
  165SOPE   C2818543   5.126   4.135   9.828 -0.2047  0.5411 -0.8427
  165SOPE   H8R18544   5.237   4.127   9.822 -0.1623  0.9304 -0.6162
  165SOPE   H8S18545   5.093   4.046   9.885  1.1263  1.4800  1.4660
  165SOPE   C2918546   5.063   4.122   9.694 -0.0316  0.4981 -0.1718
  165SOPE   H9118547   4.990   4.042   9.677  0.3238  0.6532 -2.7377
  165SOPE  C21018548   5.087   4.196   9.582 -0.8281  0.0403  0.5057
  165SOPE  H10118549   5.034   4.160   9.492  0.2018 -0.3076  0.0374
  165SOPE  C21118550   5.187   4.306   9.555  0.0028 -0.5707 -0.1895
  165SOPE  H11R18551   5.247   4.327   9.647 -1.0228 -0.7678  0.5425
  165SOPE  H11S18552   5.135   4.400   9.527 -0.3697 -0.5468  0.5676
  165SOPE  C21218553   5.288   4.282   9.439 -0.1458 -0.4468  0.1109
  165SOPE  H12R18554   5.326   4.177   9.438 -1.8725 -1.0670 -0.9366
  165SOPE  H12S18555   5.381   4.342   9.448  0.2553 -1.1794  0.9099
  165SOPE  C21318556   5.235   4.295   9.297  0.5763  0.0908 -0.5784
  165SOPE  H13R18557   5.188   4.395   9.289 -1.4557 -0.8434 -0.7375
  165SOPE  H13S18558   5.163   4.213   9.276 -0.8321  0.5595  2.2293
  165SOPE  C21418559   5.334   4.270   9.189 -0.2447  0.1464 -0.2635
  165SOPE  H14R18560   5.370   4.166   9.204 -2.2168 -0.5807 -0.4160
  165SOPE  H14S18561   5.430   4.320   9.216 -0.0930  0.9509 -2.2052
  165SOPE  C21518562   5.276   4.284   9.048  0.2117 -0.0392  0.4228
  165SOPE  H15R18563   5.284   4.393   9.026  0.7653  0.1351  1.4519
  165SOPE  H15S18564   5.170   4.248   9.050 -0.2593  1.2680 -0.0976
  165SOPE  C21618565   5.352   4.206   8.943  0.0287  0.0272  0.2521
  165SOPE  H16R18566   5.304   4.226   8.845  0.6092  1.4638  0.2461
  165SOPE  H16S18567   5.349   4.098   8.970 -1.1785 -0.0945 -0.3607
  165SOPE  C21718568   5.499   4.250   8.921 -0.2576  0.3879 -0.3522
  165SOPE  H17R18569   5.566   4.163   8.906 -0.6313  0.1395 -0.5853
  165SOPE  H17S18570   5.516   4.284   9.026 -0.4360 -0.3974 -0.0649
  165SOPE  C21818571   5.521   4.362   8.813 -0.0190  0.7993 -1.0860
  165SOPE  H18R18572   5.496   4.324   8.711  1.6755 -1.0521 -0.8598
  165SOPE  H18S18573   5.629   4.391   8.810  0.4334 -0.8867 -2.6429
  165SOPE  H18T18574   5.454   4.445   8.844 -0.9824 -0.8160  1.2763
  165SOPE   C3318575   5.241   3.619  10.224  0.0045 -0.0466 -0.1882
  165SOPE   H3X18576   5.231   3.510  10.207 -0.5431 -0.1329  0.6677
  165SOPE   H3Y18577   5.348   3.640  10.246  0.2873  0.3841 -1.8780
  165SOPE   C3418578   5.187   3.694  10.095  0.0368 -0.3423 -0.4832
  165SOPE   H4X18579   5.174   3.802  10.117 -1.5259 -0.7843  0.8728
  165SOPE   H4Y18580   5.084   3.655  10.078 -0.5082 -0.1760  2.1885
  165SOPE   C3518581   5.266   3.654   9.966 -0.2812 -0.1136 -0.0641
  165SOPE   H5X18582   5.243   3.549   9.936 -1.6789  0.5063 -1.2045
  165SOPE   H5Y18583   5.376   3.654   9.983  0.3099 -1.8004 -3.4506
  165SOPE   C3618584   5.224   3.738   9.845 -0.2287  0.6040 -0.0163
  165SOPE   H6X18585   5.243   3.846   9.862 -0.1812  0.6088 -0.1025
  165SOPE   H6Y18586   5.117   3.713   9.827  0.3810 -0.6628 -2.0490
  165SOPE   C3718587   5.301   3.689   9.721 -0.3688 -0.7015  0.1690
  165SOPE   H7X18588   5.273   3.582   9.710 -2.2211 -0.3975  1.6333
  165SOPE   H7Y18589   5.406   3.715   9.747 -1.2036  1.9734  1.0120
  165SOPE   C3818590   5.247   3.762   9.590 -0.1134 -0.8987 -0.0186
  165SOPE   H8X18591   5.259   3.872   9.599 -0.2747 -0.9208  0.4912
  165SOPE   H8Y18592   5.137   3.751   9.580 -0.5217 -0.2913  3.1235
  165SOPE   C3918593   5.323   3.702   9.466 -0.1994 -0.7590 -0.2010
  165SOPE   H9X18594   5.365   3.604   9.497  2.0566 -0.0853 -1.0031
  165SOPE   H9Y18595   5.409   3.770   9.446  0.5354 -1.6699 -0.1749
  165SOPE  C31018596   5.234   3.691   9.339 -0.2990  0.0712 -0.1033
  165SOPE  H10X18597   5.142   3.636   9.369  0.4849  0.0766  2.4268
  165SOPE  H10Y18598   5.281   3.633   9.256 -0.5783  1.8738 -1.5577
  165SOPE  C31118599   5.198   3.832   9.283 -0.2039 -0.5343 -0.7842
  165SOPE  H11X18600   5.283   3.904   9.290 -0.8310  0.2084 -0.6798
  165SOPE  H11Y18601   5.112   3.869   9.343 -0.2900  0.8624 -1.7315
  165SOPE  C31218602   5.146   3.838   9.135 -0.2681  0.3408 -0.3352
  165SOPE  H12X18603   5.124   3.946   9.122  1.2336  0.6469 -0.3684
  165SOPE  H12Y18604   5.048   3.786   9.123 -0.8379  1.3696 -0.1771
  165SOPE  C31318605   5.241   3.783   9.018 -0.2985  0.1859 -0.3079
  165SOPE  H13X18606   5.250   3.673   9.030 -0.3530  0.5226  3.3673
  165SOPE  H13Y18607   5.339   3.826   9.048 -1.1395  1.9982 -0.1005
  165SOPE  C31418608   5.209   3.818   8.874 -0.1240  0.0956 -0.3495
  165SOPE  H14X18609   5.291   3.773   8.813  0.2839 -1.2071  1.1501
  165SOPE  H14Y18610   5.211   3.928   8.854  2.4705  0.2480  0.5803
  165SOPE  C31518611   5.078   3.759   8.827  0.1963 -0.3663 -0.2627
  165SOPE  H15X18612   5.010   3.742   8.913  0.4294 -0.9720 -0.1947
  165SOPE  H15Y18613   5.107   3.655   8.803 -2.0202 -0.8007 -1.2033
  165SOPE  C31618614   5.019   3.824   8.702 -0.5672 -0.3032 -0.1125
  165SOPE  H16X18615   5.075   3.916   8.673  0.5131  0.0055  2.8086
  165SOPE  H16Y18616   4.915   3.862   8.717 -0.4906 -0.3829  0.6038
  165SOPE  C31718617   5.009   3.725   8.580  0.6130 -0.2113 -0.4678
  165SOPE  H17X18618   4.944   3.637   8.600 -0.5689  0.6679 -0.3820
  165SOPE  H17Y18619   5.105   3.679   8.549  0.5926 -0.6576  0.1225
  165SOPE  C31818620   4.971   3.793   8.446 -0.7466  0.0975  0.2140
  165SOPE  H18X18621   4.877   3.849   8.464 -1.5748 -1.2878  0.2647
  165SOPE  H18Y18622   4.959   3.719   8.364 -0.3376 -0.2674  0.4844
  165SOPE  H18Z18623   5.041   3.871   8.408 -0.0559 -0.3538  0.5546
  166SOPE     N18624   1.517   3.561  10.762 -0.2292  0.1098  0.5809
  166SOPE   HN118625   1.491   3.564  10.661  0.5743  1.3151  0.3977
  166SOPE   HN218626   1.539   3.461  10.776  1.7552 -0.0815 -3.1944
  166SOPE   HN318627   1.430   3.571  10.818  0.7563 -3.9311  3.0136
  166SOPE   C1218628   1.616   3.668  10.813  0.3958  0.0755  0.6931
  166SOPE  H12A18629   1.704   3.674  10.745  1.0116 -2.0635  1.2705
  166SOPE  H12B18630   1.647   3.649  10.918  0.9595  0.4335  0.5914
  166SOPE   C1118631   1.537   3.800  10.818 -0.4462  0.6646 -0.7078
  166SOPE  H11A18632   1.499   3.824  10.716 -0.4316  2.3071 -0.3413
  166SOPE  H11B18633   1.609   3.878  10.849  0.0570 -0.1243  0.1314
  166SOPE     P18634   1.401   3.876  11.025  0.4289 -0.2733 -0.2350
  166SOPE   O1318635   1.493   3.837  11.135  0.0339  0.4740 -0.0957
  166SOPE   O1418636   1.255   3.890  11.054  0.9988  0.3173  0.2051
  166SOPE   O1218637   1.418   3.777  10.904 -0.0198 -0.1417 -0.1387
  166SOPE   O1118638   1.447   4.017  10.965  0.0772  0.1809 -0.2093
  166SOPE    C118639   1.372   4.083  10.859 -0.7887 -0.3219 -0.0117
  166SOPE    HA18640   1.281   4.137  10.893 -0.6040  0.7902 -1.2694
  166SOPE    HB18641   1.345   4.006  10.783 -0.5552 -0.4643  0.0520
  166SOPE    C218642   1.451   4.196  10.801 -1.0154  1.0879  0.3011
  166SOPE    HS18643   1.387   4.239  10.721 -0.5970 -0.1085 -0.6931
  166SOPE   O2118644   1.580   4.151  10.749  0.4297  0.1475  0.2045
  166SOPE   C2118645   1.586   4.121  10.619  0.4336 -0.3864 -0.3343
  166SOPE   O2218646   1.496   4.134  10.535 -0.1358  0.1577 -0.6129
  166SOPE   C2218647   1.724   4.062  10.597  0.6328  0.2605  0.1760
  166SOPE   H2R18648   1.750   4.000  10.685 -0.1204  0.6914  0.7041
  166SOPE   H2S18649   1.793   4.148  10.583  0.3889  0.5576  0.8065
  166SOPE    C318650   1.485   4.304  10.912  0.8402  0.1492  0.1358
  166SOPE    HX18651   1.564   4.265  10.979  0.6314 -0.1037  0.2295
  166SOPE    HY18652   1.393   4.308  10.973  0.3858  1.4556 -0.6037
  166SOPE   O3118653   1.515   4.435  10.849  0.3413 -0.7220 -0.3483
  166SOPE   C3118654   1.409   4.510  10.822  0.8678  0.0916 -0.0112
  166SOPE   O3218655   1.293   4.477  10.846 -0.0149  0.0259 -0.4481
  166SOPE   C3218656   1.446   4.643  10.750  0.2417  0.3739 -0.0332
  166SOPE   H2X18657   1.523   4.687  10.818 -0.0622 -1.5618  1.6016
  166SOPE   H2Y18658   1.350   4.697  10.744  0.2965  0.2559 -2.3967
  166SOPE   C2318659   1.721   3.979  10.470  0.1875 -0.3767  0.9180
  166SOPE   H3R18660   1.619   3.953  10.434 -0.0371  1.9650 -0.2632
  166SOPE   H3S18661   1.791   3.894  10.484 -0.6476 -1.5279 -1.5343
  166SOPE   C2418662   1.792   4.054  10.351  0.2355 -0.0709  0.6486
  166SOPE   H4R18663   1.729   4.135  10.310  1.2595  0.1559 -0.5155
  166SOPE   H4S18664   1.896   4.080  10.380  1.4496 -0.3766 -3.1732
  166SOPE   C2518665   1.817   3.968  10.226 -0.1950  0.1873  0.6293
  166SOPE   H5R18666   1.902   3.900  10.249  0.8240  0.8404 -1.0436
  166SOPE   H5S18667   1.725   3.920  10.187  1.0239 -2.3162  0.6869
  166SOPE   C2618668   1.888   4.047  10.113 -0.2319  0.4396  0.1808
  166SOPE   H6R18669   1.825   4.132  10.080  0.0420  0.0190 -1.4991
  166SOPE   H6S18670   1.985   4.090  10.146 -0.9686  0.3256  2.5992
  166SOPE   C2718671   1.926   3.967   9.987  0.5380 -0.0324 -0.7108
  166SOPE   H7R18672   1.992   4.015   9.911  0.6744 -1.5423 -1.5481
  166SOPE   H7S18673   1.986   3.879  10.019 -1.4314 -0.7054  1.2589
  166SOPE   C2818674   1.802   3.934   9.908  0.2242  0.3111  0.6658
  166SOPE   H8R18675   1.836   3.872   9.823 -0.1523 -0.5714  1.1539
  166SOPE   H8S18676   1.738   3.866   9.969  1.0071 -1.5031 -0.5010
  166SOPE   C2918677   1.715   4.060   9.868 -0.5560 -0.8731 -0.3221
  166SOPE   H9118678   1.646   4.094   9.947 -0.1992 -1.1198  0.0958
  166SOPE  C21018679   1.734   4.134   9.762 -0.5041 -0.2461 -0.2458
  166SOPE  H10118680   1.680   4.229   9.764 -0.3410 -0.0973 -1.9328
  166SOPE  C21118681   1.830   4.111   9.655 -0.7107  0.2573  0.2151
  166SOPE  H11R18682   1.914   4.048   9.695 -0.3268  0.2515 -0.5928
  166SOPE  H11S18683   1.876   4.210   9.634  1.4427 -0.9127 -0.8061
  166SOPE  C21218684   1.779   4.064   9.515  0.0733  0.9726  0.5880
  166SOPE  H12R18685   1.864   4.057   9.444  0.3816  2.2994  0.8095
  166SOPE  H12S18686   1.723   4.151   9.473 -0.9417 -1.1675 -2.7091
  166SOPE  C21318687   1.690   3.941   9.504  0.3574  0.1541 -0.8359
  166SOPE  H13R18688   1.626   3.936   9.595  0.2920  1.2961 -0.8074
  166SOPE  H13S18689   1.752   3.851   9.520 -0.9291 -0.4964  0.6723
  166SOPE  C21418690   1.617   3.912   9.371 -0.1509 -0.2812 -0.3780
  166SOPE  H14R18691   1.576   4.003   9.324  0.9135  0.9996  1.1257
  166SOPE  H14S18692   1.540   3.835   9.393  0.2235 -0.7611 -0.7394
  166SOPE  C21518693   1.716   3.848   9.274 -0.7779 -0.3686  0.4228
  166SOPE  H15R18694   1.760   3.755   9.315  0.0665  0.6917  1.9839
  166SOPE  H15S18695   1.798   3.923   9.265 -1.1748  0.2348  1.7377
  166SOPE  C21618696   1.650   3.818   9.136  0.2747 -0.5589 -0.0420
  166SOPE  H16R18697   1.726   3.808   9.055  0.8684 -2.3093  0.6877
  166SOPE  H16S18698   1.566   3.885   9.107 -0.9829 -2.3634 -0.7085
  166SOPE  C21718699   1.582   3.678   9.153 -0.6835 -0.0826  0.1102
  166SOPE  H17R18700   1.504   3.687   9.231 -1.1092  4.1358 -0.6862
  166SOPE  H17S18701   1.662   3.610   9.190 -0.6685 -0.1928 -0.1236
  166SOPE  C21818702   1.531   3.619   9.014  0.0669  0.2169 -0.4185
  166SOPE  H18R18703   1.614   3.592   8.946 -0.1692 -0.8588 -0.2917
  166SOPE  H18S18704   1.454   3.689   8.974 -1.8029 -1.9053 -0.6420
  166SOPE  H18T18705   1.484   3.521   9.035  1.6966 -0.2398  1.1789
  166SOPE   C3318706   1.502   4.637  10.605 -0.5131  0.0605  0.6166
  166SOPE   H3X18707   1.608   4.603  10.602 -0.1550  1.0169  1.8713
  166SOPE   H3Y18708   1.512   4.741  10.566  0.8707 -0.6923 -1.1580
  166SOPE   C3418709   1.413   4.558  10.508  0.5415  0.3625  0.7768
  166SOPE   H4X18710   1.311   4.601  10.517  0.0866 -0.2777 -1.0513
  166SOPE   H4Y18711   1.401   4.451  10.537 -0.2770  0.3435  0.3667
  166SOPE   C3518712   1.448   4.574  10.359 -0.4769 -0.4626 -0.0578
  166SOPE   H5X18713   1.548   4.538  10.324 -0.0621 -0.0437  0.6828
  166SOPE   H5Y18714   1.449   4.682  10.337 -0.6737  0.0353  2.2740
  166SOPE   C3618715   1.330   4.524  10.274  0.0210  0.1002  0.0445
  166SOPE   H6X18716   1.240   4.585  10.294  0.4530  0.8759 -0.3455
  166SOPE   H6Y18717   1.320   4.414  10.277  2.7822 -0.1733  0.6097
  166SOPE   C3718718   1.374   4.550  10.126  0.3448 -0.2734  0.0362
  166SOPE   H7X18719   1.396   4.659  10.119  0.1854 -0.2836 -0.6362
  166SOPE   H7Y18720   1.279   4.523  10.076  1.1120 -2.2748 -0.3727
  166SOPE   C3818721   1.486   4.473  10.068  0.0980  0.0645 -0.1388
  166SOPE   H8X18722   1.478   4.366  10.097  3.5807  0.2883  2.0470
  166SOPE   H8Y18723   1.584   4.515  10.101 -0.8645  0.9847  1.5437
  166SOPE   C3918724   1.495   4.487   9.911 -0.0022  0.0710  0.0391
  166SOPE   H9X18725   1.570   4.416   9.871 -1.2846 -0.5910 -1.2097
  166SOPE   H9Y18726   1.538   4.588   9.895  1.1012 -0.8613 -3.2275
  166SOPE  C31018727   1.377   4.464   9.815  0.2328 -0.3280 -0.6397
  166SOPE  H10X18728   1.282   4.510   9.849  2.1744  3.7551 -0.4796
  166SOPE  H10Y18729   1.356   4.355   9.826  1.7084 -0.4345  1.5393
  166SOPE  C31118730   1.414   4.501   9.668  0.5278  0.4217 -1.0085
  166SOPE  H11X18731   1.518   4.474   9.639  0.5125 -0.2317 -0.4542
  166SOPE  H11Y18732   1.409   4.612   9.662 -2.8920  0.3441 -0.4350
  166SOPE  C31218733   1.316   4.437   9.574 -0.5818 -0.3238 -0.3417
  166SOPE  H12X18734   1.307   4.326   9.583  0.8971 -0.3478  1.0613
  166SOPE  H12Y18735   1.345   4.458   9.469 -0.1927 -0.5616 -0.2812
  166SOPE  C31318736   1.170   4.506   9.572 -0.3798  0.4307 -0.1576
  166SOPE  H13X18737   1.186   4.613   9.544 -0.0031 -0.1813 -2.3598
  166SOPE  H13Y18738   1.138   4.513   9.678 -1.4560  0.3814 -0.4791
  166SOPE  C31418739   1.059   4.463   9.483 -0.2515 -0.3544 -0.1299
  166SOPE  H14X18740   0.967   4.500   9.534 -0.2857 -0.7047  0.0663
  166SOPE  H14Y18741   1.068   4.352   9.483  0.9719 -0.2640  0.4510
  166SOPE  C31518742   1.084   4.523   9.347 -0.0805  0.1425 -0.3170
  166SOPE  H15X18743   1.183   4.486   9.311  1.0407  2.6202  0.0901
  166SOPE  H15Y18744   1.088   4.633   9.361  2.3667  0.2314 -1.3336
  166SOPE  C31618745   0.965   4.488   9.257 -0.4536  0.3215 -0.2050
  166SOPE  H16X18746   0.878   4.529   9.312  0.1960 -0.1110  1.1787
  166SOPE  H16Y18747   0.944   4.379   9.250 -0.9013  0.3028  1.2868
  166SOPE  C31718748   0.986   4.540   9.114  0.4674  0.2008 -0.4883
  166SOPE  H17X18749   1.085   4.505   9.078  0.4291 -0.2111 -0.1919
  166SOPE  H17Y18750   0.995   4.651   9.119  0.4230  0.2134 -0.6758
  166SOPE  C31818751   0.872   4.501   9.020  0.6444 -0.2847  0.4002
  166SOPE  H18X18752   0.884   4.551   8.921  3.1696 -0.0932  0.7653
  166SOPE  H18Y18753   0.777   4.543   9.059  0.3937 -0.4266 -0.0550
  166SOPE  H18Z18754   0.867   4.391   9.007  0.7687  0.1353 -4.0562
  167SOPE     N18755   3.045   3.180   6.351  0.2728 -0.0572 -0.3509
  167SOPE   HN118756   3.113   3.174   6.272  0.8460  0.0869  0.1268
  167SOPE   HN218757   3.015   3.086   6.385  0.0004  0.1379 -0.0580
  167SOPE   HN318758   2.955   3.218   6.316  0.2171 -0.8173 -1.0610
  167SOPE   C1218759   3.106   3.272   6.455  0.3607 -0.2826 -0.1912
  167SOPE  H12A18760   3.192   3.227   6.510 -0.3673 -0.2292  1.0102
  167SOPE  H12B18761   3.027   3.297   6.529 -1.5897 -2.0691 -1.6446
  167SOPE   C1118762   3.154   3.404   6.400 -0.0395  0.2360  0.4343
  167SOPE  H11A18763   3.210   3.470   6.470 -1.1492  1.1592  0.4661
  167SOPE  H11B18764   3.068   3.455   6.351 -0.0047 -0.0171  0.1117
  167SOPE     P18765   3.401   3.364   6.303  0.5910  0.3384 -0.0977
  167SOPE   O1318766   3.435   3.502   6.317  0.4866 -0.0994 -0.4236
  167SOPE   O1418767   3.453   3.291   6.188 -0.1087  0.0829  0.7022
  167SOPE   O1218768   3.241   3.363   6.298 -0.5944  0.1531  0.4441
  167SOPE   O1118769   3.438   3.278   6.435 -0.0888  0.3409 -0.1522
  167SOPE    C118770   3.547   3.187   6.432  0.5836 -0.3542 -0.2921
  167SOPE    HA18771   3.609   3.193   6.523 -0.5964  2.9987  0.3500
  167SOPE    HB18772   3.626   3.221   6.361  0.8770  0.8383  0.6093
  167SOPE    C218773   3.498   3.042   6.413  0.0938 -0.3213  0.5272
  167SOPE    HS18774   3.404   3.046   6.354 -0.6122  2.2558  1.7415
  167SOPE   O2118775   3.486   2.997   6.555  0.7963 -0.4110 -0.0626
  167SOPE   C2118776   3.410   2.892   6.571  0.7719 -0.1883 -0.1558
  167SOPE   O2218777   3.365   2.817   6.489  0.3728 -0.3409 -0.8867
  167SOPE   C2218778   3.410   2.860   6.717 -0.3781 -0.4264 -0.7591
  167SOPE   H2R18779   3.366   2.949   6.767 -0.4126 -0.8739  0.0118
  167SOPE   H2S18780   3.515   2.845   6.752 -0.9384  0.5589  1.3912
  167SOPE    C318781   3.603   2.954   6.333  0.6185 -0.3767 -0.2976
  167SOPE    HX18782   3.597   3.002   6.233 -0.7038 -0.3114 -0.1946
  167SOPE    HY18783   3.561   2.852   6.316 -0.2370 -0.4265  2.0129
  167SOPE   O3118784   3.734   2.951   6.390 -0.0259 -0.3347  0.1251
  167SOPE   C3118785   3.753   2.859   6.478  0.4072  0.0062  0.0341
  167SOPE   O3218786   3.675   2.765   6.509 -0.1166 -0.2590 -0.4444
  167SOPE   C3218787   3.891   2.875   6.542 -0.7381 -0.6516 -0.1098
  167SOPE   H2X18788   3.926   2.977   6.567 -2.8253 -0.3235  1.6125
  167SOPE   H2Y18789   3.958   2.822   6.470  0.1023  0.4669 -0.1708
  167SOPE   C2318790   3.323   2.744   6.763 -0.3159  0.0714 -0.2554
  167SOPE   H3R18791   3.339   2.647   6.711  0.2032  1.4880 -2.8004
  167SOPE   H3S18792   3.217   2.771   6.742 -0.8596 -1.4092  0.5292
  167SOPE   C2418793   3.339   2.730   6.916  0.0241  0.2400 -0.3999
  167SOPE   H4R18794   3.393   2.816   6.962 -0.5979 -0.3173  1.4443
  167SOPE   H4S18795   3.240   2.733   6.967 -0.9811 -2.3186 -2.1029
  167SOPE   C2518796   3.408   2.603   6.959  0.1886 -0.2883 -0.0033
  167SOPE   H5R18797   3.350   2.526   6.903 -0.3311  0.9848 -1.2290
  167SOPE   H5S18798   3.506   2.614   6.909  0.7583  1.2153  1.4022
  167SOPE   C2618799   3.425   2.587   7.115  0.0170 -0.7222  0.8788
  167SOPE   H6R18800   3.330   2.612   7.167  0.0639  0.4076  0.4223
  167SOPE   H6S18801   3.438   2.478   7.134  1.1257 -0.6447  0.6164
  167SOPE   C2718802   3.544   2.673   7.173  0.0873  0.0421 -0.0284
  167SOPE   H7R18803   3.622   2.636   7.102 -1.4819 -3.1000 -0.1828
  167SOPE   H7S18804   3.518   2.775   7.139  0.6405  0.1631 -0.1059
  167SOPE   C2818805   3.585   2.658   7.318  0.0568  0.6137 -0.2623
  167SOPE   H8R18806   3.602   2.552   7.347 -1.5239 -0.6831 -3.7602
  167SOPE   H8S18807   3.675   2.718   7.341  0.0531  0.5903 -0.1831
  167SOPE   C2918808   3.467   2.711   7.400 -0.5837 -1.1556 -0.0338
  167SOPE   H9118809   3.434   2.812   7.372 -0.0964 -1.6022 -2.3477
  167SOPE  C21018810   3.420   2.658   7.516 -0.4637 -0.6055 -0.0611
  167SOPE  H10118811   3.344   2.710   7.576 -1.8902 -1.3257 -1.2155
  167SOPE  C21118812   3.480   2.535   7.569  0.1789 -0.3619  0.0451
  167SOPE  H11R18813   3.514   2.458   7.496  1.3316 -0.5255  0.7384
  167SOPE  H11S18814   3.403   2.497   7.640  1.7538 -1.5227  1.1794
  167SOPE  C21218815   3.598   2.565   7.653 -0.0384 -1.1447 -0.4681
  167SOPE  H12R18816   3.667   2.630   7.596 -1.6920  0.6932 -0.4120
  167SOPE  H12S18817   3.661   2.475   7.668  0.0790 -1.4430 -2.5598
  167SOPE  C21318818   3.559   2.644   7.772 -0.0831 -0.5500 -0.0031
  167SOPE  H13R18819   3.481   2.589   7.827  1.8381 -1.5734  1.7810
  167SOPE  H13S18820   3.509   2.736   7.736 -1.2808 -1.2134 -0.0410
  167SOPE  C21418821   3.666   2.683   7.874 -0.0563 -0.3105  0.1435
  167SOPE  H14R18822   3.610   2.725   7.960  1.2648 -0.3850  1.0678
  167SOPE  H14S18823   3.740   2.757   7.838  2.7951 -2.3623  1.5601
  167SOPE  C21518824   3.749   2.568   7.927  0.4594  0.5979 -0.1958
  167SOPE  H15R18825   3.830   2.608   7.991 -0.9760  2.6131  0.3904
  167SOPE  H15S18826   3.809   2.514   7.850  2.3636 -2.3503  3.2155
  167SOPE  C21618827   3.670   2.458   8.000 -0.1420 -0.5662 -0.5446
  167SOPE  H16R18828   3.736   2.371   8.022  1.4487  0.4294 -1.2703
  167SOPE  H16S18829   3.589   2.428   7.931  0.5859  0.3201 -1.8014
  167SOPE  C21718830   3.598   2.519   8.130 -0.2604  0.0439  0.0157
  167SOPE  H17R18831   3.555   2.621   8.123  3.1955  1.5023 -1.3772
  167SOPE  H17S18832   3.676   2.513   8.209 -1.2674 -2.2377  0.8673
  167SOPE  C21818833   3.486   2.423   8.172 -0.0102 -0.2083  0.1120
  167SOPE  H18R18834   3.536   2.324   8.169  0.3774 -0.0834  1.6849
  167SOPE  H18S18835   3.402   2.418   8.100 -0.2654 -1.4817  0.4708
  167SOPE  H18T18836   3.452   2.445   8.276  1.6762  0.0875  0.6061
  167SOPE   C3318837   3.887   2.787   6.667  0.5016 -0.2581  0.4977
  167SOPE   H3X18838   3.846   2.689   6.632  0.2322  0.2549 -0.6539
  167SOPE   H3Y18839   3.816   2.823   6.744  3.2489  2.2784  1.9020
  167SOPE   C3418840   4.025   2.767   6.710  0.1878 -0.4090 -0.1112
  167SOPE   H4X18841   4.070   2.868   6.723 -0.9949  0.2244 -0.9314
  167SOPE   H4Y18842   4.085   2.726   6.626  0.6377  0.7812 -0.3855
  167SOPE   C3518843   4.049   2.685   6.836 -0.2300  0.0509 -0.1903
  167SOPE   H5X18844   4.149   2.644   6.859  0.1753  0.9166 -0.3927
  167SOPE   H5Y18845   3.998   2.588   6.817  0.3115 -0.2772  0.0141
  167SOPE   C3618846   3.970   2.740   6.956 -0.7395  0.0415  0.3604
  167SOPE   H6X18847   3.863   2.708   6.959  0.1700 -3.1649 -0.2737
  167SOPE   H6Y18848   3.975   2.851   6.955 -0.6252  0.0324 -0.0754
  167SOPE   C3718849   4.028   2.698   7.088 -0.2476  0.6515  0.2121
  167SOPE   H7X18850   4.121   2.755   7.112  0.5035 -0.2350 -0.5543
  167SOPE   H7Y18851   4.050   2.589   7.087  0.7753  0.8695 -1.3301
  167SOPE   C3818852   3.948   2.715   7.215  0.3362 -0.0242  0.4274
  167SOPE   H8X18853   3.856   2.653   7.214 -1.0765  2.0236 -2.3307
  167SOPE   H8Y18854   3.910   2.818   7.223  0.6668  0.2145 -0.9302
  167SOPE   C3918855   4.037   2.673   7.332  0.3323 -0.6124  0.5205
  167SOPE   H9X18856   4.129   2.735   7.328 -1.4663  1.9941 -1.9214
  167SOPE   H9Y18857   4.068   2.566   7.329 -1.4239 -1.1000 -1.0007
  167SOPE  C31018858   3.974   2.700   7.466 -0.0454  0.1941 -0.1457
  167SOPE  H10X18859   3.883   2.637   7.461  0.7240 -0.9274  0.0243
  167SOPE  H10Y18860   3.953   2.808   7.482 -0.7373 -0.0636  0.7027
  167SOPE  C31118861   4.050   2.653   7.592  0.4206 -0.1082  1.1007
  167SOPE  H11X18862   4.148   2.615   7.557  0.2433  1.7082 -1.4720
  167SOPE  H11Y18863   3.980   2.583   7.644 -2.7283 -0.8491 -3.7879
  167SOPE  C31218864   4.099   2.770   7.685 -0.7747 -0.0911 -0.2911
  167SOPE  H12X18865   4.014   2.826   7.730 -0.9751 -0.8738  0.3197
  167SOPE  H12Y18866   4.159   2.846   7.630  0.0598  1.2324  2.3671
  167SOPE  C31318867   4.186   2.727   7.809  0.3161 -1.3320 -0.0032
  167SOPE  H13X18868   4.223   2.819   7.859  1.2991 -1.8144  0.1768
  167SOPE  H13Y18869   4.274   2.684   7.757 -0.2369 -1.2381 -1.0225
  167SOPE  C31418870   4.111   2.642   7.918 -0.5263 -0.3668  0.4673
  167SOPE  H14X18871   4.074   2.548   7.872 -1.1451 -0.0193  0.2584
  167SOPE  H14Y18872   4.029   2.713   7.943 -2.0064 -1.4228 -1.2521
  167SOPE  C31518873   4.184   2.616   8.054  0.1692 -0.3696 -0.4025
  167SOPE  H15X18874   4.233   2.709   8.090 -1.8287 -0.0094  1.5244
  167SOPE  H15Y18875   4.259   2.539   8.025 -0.8640 -0.7965 -2.0106
  167SOPE  C31618876   4.104   2.571   8.179 -0.0954  1.0253 -0.5318
  167SOPE  H16X18877   4.172   2.536   8.259 -0.0138  2.0576 -0.1390
  167SOPE  H16Y18878   4.040   2.492   8.132  0.9967  0.3988 -0.9927
  167SOPE  C31718879   4.017   2.679   8.237  0.3290  0.0671  0.3720
  167SOPE  H17X18880   3.934   2.709   8.170 -0.5918  0.5640  1.7059
  167SOPE  H17Y18881   4.080   2.771   8.232  1.5724 -0.7705  0.4193
  167SOPE  C31818882   3.957   2.647   8.374 -0.3457 -0.0278  0.1897
  167SOPE  H18X18883   3.873   2.578   8.355  0.1132 -0.4129 -0.4903
  167SOPE  H18Y18884   3.924   2.739   8.426  1.0380  1.1039 -0.8701
  167SOPE  H18Z18885   4.042   2.603   8.430 -0.5599 -0.0653  0.4850
  168SOPE     N18886   4.044   5.477   6.336  0.0848  0.5485 -0.3378
  168SOPE   HN118887   3.990   5.516   6.256  0.8777  0.5115 -0.8950
  168SOPE   HN218888   4.143   5.466   6.306 -0.1787  0.6240 -1.2446
  168SOPE   HN318889   4.014   5.379   6.350  1.3893  0.0731 -0.7681
  168SOPE   C1218890   4.025   5.549   6.466 -0.5419  0.3587 -0.2552
  168SOPE  H12A18891   4.093   5.509   6.544 -1.4887  0.9853  0.9072
  168SOPE  H12B18892   3.925   5.516   6.503  1.2310 -3.1792  1.6467
  168SOPE   C1118893   4.044   5.699   6.454 -0.2702  0.1757  0.7051
  168SOPE  H11A18894   4.148   5.727   6.426 -1.0748 -0.1291 -2.8785
  168SOPE  H11B18895   4.030   5.746   6.554  0.6755 -0.6207  1.2138
  168SOPE     P18896   3.816   5.822   6.384 -0.0503  0.0732 -0.4883
  168SOPE   O1318897   3.717   5.717   6.415  0.6427 -0.0617  0.4749
  168SOPE   O1418898   3.787   5.917   6.279 -0.5405 -0.1142  0.4823
  168SOPE   O1218899   3.952   5.751   6.359  0.2178  0.1013  0.5530
  168SOPE   O1118900   3.850   5.899   6.513  0.6872  0.0569 -0.1142
  168SOPE    C118901   3.938   6.016   6.487 -0.4620  0.0310 -0.1727
  168SOPE    HA18902   3.890   6.098   6.429 -0.4757 -0.6279 -1.1082
  168SOPE    HB18903   4.024   5.987   6.422 -0.1486  0.6920 -0.0533
  168SOPE    C218904   3.993   6.073   6.613  0.2834 -0.4993  0.7900
  168SOPE    HS18905   4.051   5.999   6.671  3.5949  1.0114 -0.4463
  168SOPE   O2118906   3.886   6.124   6.681 -0.3144 -0.1084  0.0426
  168SOPE   C2118907   3.912   6.185   6.793  0.1364  0.4327 -0.0270
  168SOPE   O2218908   4.017   6.170   6.855  0.3778  0.6260 -0.5141
  168SOPE   C2218909   3.793   6.265   6.838 -0.3676  0.6298 -0.6981
  168SOPE   H2R18910   3.704   6.199   6.826  1.6661 -2.3463  0.0301
  168SOPE   H2S18911   3.795   6.348   6.765 -1.6899  0.2052 -1.2378
  168SOPE    C318912   4.103   6.182   6.579  0.1140 -0.3665 -0.3041
  168SOPE    HX18913   4.192   6.139   6.530  0.7210  0.9317 -0.3540
  168SOPE    HY18914   4.154   6.227   6.667 -0.0330 -0.8211  0.0169
  168SOPE   O3118915   4.044   6.290   6.501 -1.0175 -0.2258  0.3701
  168SOPE   C3118916   4.141   6.375   6.454 -0.2230 -1.0247  0.1976
  168SOPE   O3218917   4.257   6.368   6.476  0.0071  0.3009 -0.4134
  168SOPE   C3218918   4.078   6.483   6.371  0.3942  0.1594 -0.1367
  168SOPE   H2X18919   4.010   6.430   6.301 -0.4549  1.2945 -0.1802
  168SOPE   H2Y18920   4.155   6.546   6.321 -0.0729  0.5123 -0.4136
  168SOPE   C2318921   3.804   6.314   6.988 -0.0168 -0.3795  0.3856
  168SOPE   H3R18922   3.715   6.380   6.995 -0.0526 -0.4786  0.8924
  168SOPE   H3S18923   3.892   6.380   6.996 -0.8689  0.9238 -0.7203
  168SOPE   C2418924   3.767   6.207   7.091 -0.2343  0.2969  0.1270
  168SOPE   H4R18925   3.658   6.190   7.077  0.0799 -0.8032 -1.0166
  168SOPE   H4S18926   3.820   6.116   7.057  1.9670  1.3440  0.6003
  168SOPE   C2518927   3.803   6.244   7.235 -0.1504  0.5696  0.4128
  168SOPE   H5R18928   3.764   6.343   7.266  0.0899  1.2894 -1.5274
  168SOPE   H5S18929   3.755   6.168   7.301 -1.1294  1.1014  0.3134
  168SOPE   C2618930   3.951   6.238   7.261 -0.1375  0.2382 -0.1648
  168SOPE   H6R18931   3.989   6.137   7.285 -0.3892  0.2118  0.1334
  168SOPE   H6S18932   4.001   6.273   7.169 -1.2193 -1.8449 -1.5703
  168SOPE   C2718933   4.005   6.326   7.381  0.0875 -0.0529 -0.5769
  168SOPE   H7R18934   4.113   6.310   7.400  0.8722  1.8558 -3.2713
  168SOPE   H7S18935   3.980   6.429   7.349  2.2933  1.1137  1.2758
  168SOPE   C2818936   3.930   6.284   7.508 -0.6246 -0.1108  0.1662
  168SOPE   H8R18937   3.821   6.279   7.486 -0.3365 -0.7203 -1.1438
  168SOPE   H8S18938   3.968   6.185   7.542  1.1734  0.1802 -0.9244
  168SOPE   C2918939   3.956   6.386   7.618  0.0726 -0.6404  0.4402
  168SOPE   H9118940   3.937   6.493   7.601  2.4439 -0.0824  1.1500
  168SOPE  C21018941   4.026   6.370   7.733 -0.0682 -0.8014 -0.5344
  168SOPE  H10118942   4.025   6.449   7.810 -0.7800  0.1940 -1.5472
  168SOPE  C21118943   4.089   6.237   7.782 -0.2591 -0.5650 -0.1404
  168SOPE  H11R18944   4.193   6.248   7.819 -0.4885  3.1004 -0.4153
  168SOPE  H11S18945   4.087   6.158   7.704  1.8041  0.6519 -1.4439
  168SOPE  C21218946   4.005   6.187   7.902  0.3143 -0.3012 -0.2871
  168SOPE  H12R18947   3.987   6.078   7.890 -1.4514 -0.0424 -0.1404
  168SOPE  H12S18948   3.899   6.220   7.913 -0.2276 -0.6649 -3.8212
  168SOPE  C21318949   4.072   6.203   8.038  0.2845 -0.8340 -0.2727
  168SOPE  H13R18950   4.180   6.211   8.014  0.6111  0.4951  1.4726
  168SOPE  H13S18951   4.055   6.113   8.101 -1.7765 -0.5419 -0.3682
  168SOPE  C21418952   4.040   6.332   8.114 -0.8820  1.2013  0.4639
  168SOPE  H14R18953   3.930   6.346   8.122 -1.0247  0.7437 -0.5754
  168SOPE  H14S18954   4.086   6.420   8.065 -1.1157 -0.2219 -2.4321
  168SOPE  C21518955   4.102   6.306   8.254  0.5483 -0.5180  0.6119
  168SOPE  H15R18956   4.209   6.275   8.251  0.2005 -1.6122 -1.0750
  168SOPE  H15S18957   4.045   6.217   8.290  0.8365 -0.8157  0.3463
  168SOPE  C21618958   4.084   6.415   8.347  0.0210 -0.0649 -0.2463
  168SOPE  H16R18959   3.979   6.430   8.381  0.0023  0.4890 -0.5310
  168SOPE  H16S18960   4.112   6.510   8.296  1.7099 -0.7209 -0.5726
  168SOPE  C21718961   4.163   6.397   8.483 -0.0921  0.3892 -0.3191
  168SOPE  H17R18962   4.144   6.296   8.525 -1.0809  0.4263 -0.6677
  168SOPE  H17S18963   4.109   6.473   8.544 -0.6653  0.1750 -0.5622
  168SOPE  C21818964   4.303   6.435   8.468  0.1536  0.1794  0.2068
  168SOPE  H18R18965   4.321   6.537   8.427  1.1108 -0.3756 -0.7676
  168SOPE  H18S18966   4.351   6.366   8.396  0.3563  0.8502 -0.3153
  168SOPE  H18T18967   4.358   6.426   8.564  0.4488  4.5196  0.5838
  168SOPE   C3318968   3.978   6.572   6.456 -0.0086  0.2678 -0.5506
  168SOPE   H3X18969   3.895   6.507   6.489  0.0130  0.1346 -0.7635
  168SOPE   H3Y18970   3.938   6.647   6.384  0.5553 -0.4941 -1.6750
  168SOPE   C3418971   4.046   6.637   6.582 -0.3419  0.0360 -0.2330
  168SOPE   H4X18972   4.093   6.731   6.547  2.0484 -0.7985  0.6204
  168SOPE   H4Y18973   4.122   6.569   6.628  1.4734  1.6677 -0.7998
  168SOPE   C3518974   3.949   6.657   6.701  0.3915 -0.0986  0.5952
  168SOPE   H5X18975   3.866   6.583   6.700 -0.3850  0.7596 -1.0285
  168SOPE   H5Y18976   3.895   6.751   6.680 -0.5717 -0.3800  1.7755
  168SOPE   C3618977   4.022   6.657   6.827 -0.1484 -0.3187 -0.2008
  168SOPE   H6X18978   4.110   6.724   6.822 -0.0240 -0.2667  2.3381
  168SOPE   H6Y18979   4.076   6.561   6.842  0.3145 -0.2939 -1.6458
  168SOPE   C3718980   3.945   6.707   6.952  0.7558  0.0422  0.1770
  168SOPE   H7X18981   3.861   6.639   6.978 -0.4246  1.4667  0.2024
  168SOPE   H7Y18982   3.888   6.801   6.931 -1.9589 -1.3908  0.9611
  168SOPE   C3818983   4.031   6.721   7.079 -0.4405  0.2731 -0.4859
  168SOPE   H8X18984   4.105   6.802   7.060 -0.1715  0.4331  1.1490
  168SOPE   H8Y18985   4.089   6.627   7.095 -2.5502 -0.8487  0.8220
  168SOPE   C3918986   3.947   6.756   7.194 -0.3518 -0.1487 -0.4744
  168SOPE   H9X18987   3.885   6.667   7.219  1.7210 -1.6079 -0.4005
  168SOPE   H9Y18988   3.883   6.842   7.166 -0.4818  0.4659  1.6388
  168SOPE  C31018989   4.031   6.789   7.313 -0.4234  0.7587 -0.4889
  168SOPE  H10X18990   4.098   6.875   7.292  0.0867  1.1926  2.7457
  168SOPE  H10Y18991   4.108   6.709   7.310 -0.6077  0.5869 -0.6314
  168SOPE  C31118992   3.961   6.806   7.444 -0.0107  0.2285  0.6366
  168SOPE  H11X18993   3.909   6.713   7.477 -0.9064  0.7141  0.5951
  168SOPE  H11Y18994   3.895   6.894   7.429 -0.2722 -0.0540  0.0926
  168SOPE  C31218995   4.053   6.821   7.572  0.7386 -0.1487 -0.0631
  168SOPE  H12X18996   4.144   6.876   7.540  0.2321 -0.5333 -2.2943
  168SOPE  H12Y18997   4.089   6.717   7.587  0.4326 -0.2897 -0.2833
  168SOPE  C31318998   3.988   6.880   7.697  0.4443  0.0621  0.8468
  168SOPE  H13X18999   3.884   6.844   7.715  0.3456 -1.5438 -2.5307
  168SOPE  H13Y19000   3.973   6.986   7.668 -1.9044 -0.5515 -0.3393
  168SOPE  C31419001   4.077   6.858   7.828  0.3342 -0.5042 -0.1571
  168SOPE  H14X19002   4.176   6.895   7.793  0.4509 -0.7457 -0.0811
  168SOPE  H14Y19003   4.087   6.747   7.833 -0.0443 -0.6145 -1.5109
  168SOPE  C31519004   4.028   6.923   7.955  0.2931  0.3735 -0.2165
  168SOPE  H15X19005   3.921   6.894   7.966  0.5261 -1.5702 -2.4299
  168SOPE  H15Y19006   4.024   7.032   7.936 -3.6213 -0.1855 -3.1966
  168SOPE  C31619007   4.124   6.911   8.073 -0.1820 -0.2770  0.4011
  168SOPE  H16X19008   4.219   6.947   8.028  0.2251 -0.1415  1.3665
  168SOPE  H16Y19009   4.132   6.807   8.111 -2.3176 -0.6158  0.0321
  168SOPE  C31719010   4.080   6.997   8.179  0.4485 -0.2380 -0.4023
  168SOPE  H17X19011   3.990   6.949   8.222  1.4611 -3.6262 -1.9587
  168SOPE  H17Y19012   4.057   7.106   8.173 -1.7281 -0.5118  2.0125
  168SOPE  C31819013   4.191   6.977   8.289 -0.5964  1.3051  0.5322
  168SOPE  H18X19014   4.289   7.020   8.257 -0.0515 -0.1921  0.1559
  168SOPE  H18Y19015   4.202   6.871   8.319  1.7076  1.6410  1.0505
  168SOPE  H18Z19016   4.170   7.037   8.380  0.1139  1.8307  0.3581
  169SOPE     N19017   6.153   2.532   6.355 -0.0372 -0.0782  0.1435
  169SOPE   HN119018   6.147   2.508   6.456  1.4457 -0.2818  0.1821
  169SOPE   HN219019   6.208   2.619   6.349 -0.7654  0.2287 -2.6328
  169SOPE   HN319020   6.057   2.544   6.316  1.0470  0.5717 -2.4106
  169SOPE   C1219021   6.225   2.430   6.263 -0.0594 -0.1478  0.4896
  169SOPE  H12A19022   6.309   2.386   6.321 -0.8244 -1.9284  0.2846
  169SOPE  H12B19023   6.274   2.481   6.178  0.1930  0.3357  0.9171
  169SOPE   C1119024   6.120   2.326   6.230  0.7580 -0.5982  0.2484
  169SOPE  H11A19025   6.162   2.241   6.173  1.7693  0.5746 -0.7858
  169SOPE  H11B19026   6.037   2.373   6.174  0.2345 -0.6624  0.9613
  169SOPE     P19027   5.978   2.149   6.367 -0.6503  0.0944  0.4462
  169SOPE   O1319028   6.073   2.036   6.338 -0.1478  0.0987  0.2271
  169SOPE   O1419029   5.864   2.162   6.277 -0.3382 -0.7362  0.4892
  169SOPE   O1219030   6.063   2.281   6.358 -0.3825  0.5621  0.5101
  169SOPE   O1119031   5.919   2.137   6.518 -0.0532 -0.1523 -0.1712
  169SOPE    C119032   5.983   2.225   6.617  0.1942  0.1073  0.4554
  169SOPE    HA19033   5.962   2.332   6.597  2.6266  0.4486 -0.4216
  169SOPE    HB19034   6.093   2.227   6.605 -0.1177  0.4437 -2.7366
  169SOPE    C219035   5.944   2.194   6.767 -0.3036 -0.5592  0.1214
  169SOPE    HS19036   5.994   2.273   6.827  0.3795  0.2927 -1.5223
  169SOPE   O2119037   5.998   2.065   6.805 -0.0906  0.1010  0.1578
  169SOPE   C2119038   6.134   2.054   6.809  0.1599 -0.5243  0.2820
  169SOPE   O2219039   6.212   2.149   6.806 -0.2360  0.0809  0.1180
  169SOPE   C2219040   6.175   1.902   6.814 -0.3004 -0.9832 -0.3443
  169SOPE   H2R19041   6.179   1.873   6.706 -0.3526  2.1932 -1.2411
  169SOPE   H2S19042   6.086   1.849   6.855  0.1451 -0.9374  0.6765
  169SOPE    C319043   5.791   2.203   6.804  0.8679 -0.5241  0.4003
  169SOPE    HX19044   5.750   2.111   6.756 -0.1250 -0.3997  0.9903
  169SOPE    HY19045   5.738   2.286   6.752  0.8365 -1.0704 -0.4471
  169SOPE   O3119046   5.749   2.209   6.942 -0.7348  0.0110 -0.5385
  169SOPE   C3119047   5.736   2.089   7.007  0.1074 -0.7840 -0.0688
  169SOPE   O3219048   5.740   1.980   6.956 -0.0564 -0.1491  0.0424
  169SOPE   C3219049   5.683   2.108   7.146 -0.5490 -0.0842 -0.4279
  169SOPE   H2X19050   5.577   2.074   7.148 -1.3876  2.4829  0.9601
  169SOPE   H2Y19051   5.679   2.216   7.171 -2.4198 -0.3386  0.4469
  169SOPE   C2319052   6.312   1.867   6.875  0.1088 -0.0387  0.9665
  169SOPE   H3R19053   6.396   1.903   6.813  0.9608 -0.6436  1.7490
  169SOPE   H3S19054   6.309   1.756   6.870  0.7058 -0.0581  0.9930
  169SOPE   C2419055   6.332   1.915   7.018  0.0556 -0.3159 -0.0408
  169SOPE   H4R19056   6.424   1.862   7.051  0.4767  0.7179  0.4312
  169SOPE   H4S19057   6.353   2.024   7.023 -2.0553  0.2207 -1.9767
  169SOPE   C2519058   6.209   1.893   7.105 -0.0152  0.4092 -0.0263
  169SOPE   H5R19059   6.121   1.953   7.075 -1.6515 -0.4970  2.6762
  169SOPE   H5S19060   6.160   1.793   7.098 -2.0230  1.4903 -1.8899
  169SOPE   C2619061   6.248   1.918   7.248 -0.5259  0.3582 -0.0216
  169SOPE   H6R19062   6.337   1.854   7.267 -1.5429 -0.6525  1.5245
  169SOPE   H6S19063   6.293   2.018   7.265  1.3726 -0.6306  0.9887
  169SOPE   C2719064   6.134   1.890   7.348 -0.3662  0.0546 -0.4128
  169SOPE   H7R19065   6.084   1.989   7.358 -1.1306 -0.2030 -1.5586
  169SOPE   H7S19066   6.066   1.811   7.310  1.0201 -0.9097 -0.9195
  169SOPE   C2819067   6.181   1.848   7.489 -0.5686  0.9710 -0.3625
  169SOPE   H8R19068   6.271   1.906   7.517 -0.7877 -1.1477  5.3384
  169SOPE   H8S19069   6.095   1.867   7.556  0.3525  2.0450  0.5297
  169SOPE   C2919070   6.219   1.700   7.484  0.0853 -0.9845 -0.6831
  169SOPE   H9119071   6.262   1.664   7.389 -0.3903 -0.8864 -0.9378
  169SOPE  C21019072   6.189   1.613   7.581  0.0509  0.4366 -0.0811
  169SOPE  H10119073   6.238   1.515   7.583  1.8619  1.3258  3.0147
  169SOPE  C21119074   6.120   1.636   7.710  0.4900 -0.1472  0.5913
  169SOPE  H11R19075   6.021   1.586   7.719  0.4374 -0.0321  0.6576
  169SOPE  H11S19076   6.109   1.745   7.727  2.0488  0.4877 -2.0883
  169SOPE  C21219077   6.196   1.580   7.832  0.1440 -0.0624 -0.0949
  169SOPE  H12R19078   6.226   1.474   7.825 -0.7931 -0.3759  0.5779
  169SOPE  H12S19079   6.121   1.587   7.913 -0.5245  1.1601 -0.7900
  169SOPE  C21319080   6.316   1.667   7.868  0.0440 -0.5225 -0.1923
  169SOPE  H13R19081   6.285   1.769   7.900 -0.8563 -1.1481  0.9699
  169SOPE  H13S19082   6.399   1.672   7.795  1.1637 -0.7133  1.0503
  169SOPE  C21419083   6.370   1.618   8.005 -0.5549 -0.5507 -0.0493
  169SOPE  H14R19084   6.416   1.517   8.003  2.0991  0.5934  0.8503
  169SOPE  H14S19085   6.282   1.618   8.074  0.5298 -1.1057  1.3633
  169SOPE  C21519086   6.483   1.705   8.059 -0.5166  0.2038  0.2725
  169SOPE  H15R19087   6.464   1.814   8.068 -0.9146  0.2650 -1.3246
  169SOPE  H15S19088   6.569   1.698   7.989 -0.2874 -3.2068  0.8170
  169SOPE  C21619089   6.540   1.651   8.187 -0.4859  0.3638 -0.0909
  169SOPE  H16R19090   6.609   1.568   8.161 -3.4793 -1.8968 -1.1828
  169SOPE  H16S19091   6.462   1.615   8.258 -2.5605  1.9908 -1.4710
  169SOPE  C21719092   6.613   1.759   8.260  0.6580 -0.2394  0.0988
  169SOPE  H17R19093   6.660   1.730   8.356  1.3055 -1.3913 -0.5473
  169SOPE  H17S19094   6.547   1.845   8.283  0.4439 -0.9778  2.3371
  169SOPE  C21819095   6.741   1.809   8.183  0.3154 -0.3144 -0.1035
  169SOPE  H18R19096   6.821   1.731   8.181  2.6690  2.0708 -2.5841
  169SOPE  H18S19097   6.786   1.901   8.226  0.4512 -0.2050 -0.4775
  169SOPE  H18T19098   6.727   1.835   8.076  0.2151 -0.7833 -0.2051
  169SOPE   C3319099   5.766   2.031   7.243 -0.5027 -0.0381  1.0652
  169SOPE   H3X19100   5.875   2.050   7.229 -0.6177  1.8541  2.5565
  169SOPE   H3Y19101   5.754   1.922   7.227 -0.0943 -0.1796  1.7242
  169SOPE   C3419102   5.746   2.074   7.387  0.6626 -0.9960 -0.7626
  169SOPE   H4X19103   5.638   2.097   7.399  0.5950  0.3210 -3.5432
  169SOPE   H4Y19104   5.811   2.162   7.407  1.1223 -1.1348 -1.6034
  169SOPE   C3519105   5.783   1.966   7.493  0.3460  0.5778 -0.5402
  169SOPE   H5X19106   5.875   1.922   7.450  0.4222  0.0948  0.1327
  169SOPE   H5Y19107   5.700   1.892   7.491 -0.8176  1.8260  0.1476
  169SOPE   C3619108   5.801   2.009   7.633  0.2314 -0.7728  0.0992
  169SOPE   H6X19109   5.719   2.072   7.675 -0.8302 -2.3807  0.4840
  169SOPE   H6Y19110   5.892   2.072   7.624 -0.6420  0.3427 -1.0232
  169SOPE   C3719111   5.819   1.886   7.729 -0.4714  0.1335  0.4451
  169SOPE   H7X19112   5.883   1.804   7.689 -0.1906 -0.3495  1.8584
  169SOPE   H7Y19113   5.716   1.845   7.742 -0.6893  0.2375 -0.8851
  169SOPE   C3819114   5.870   1.917   7.866  0.9344 -0.3616  0.3053
  169SOPE   H8X19115   5.972   1.962   7.860  0.9593 -0.3535  0.7794
  169SOPE   H8Y19116   5.797   1.989   7.908  0.9688 -1.6996  2.7703
  169SOPE   C3919117   5.881   1.787   7.949 -0.2907 -0.3852  0.5976
  169SOPE   H9X19118   5.988   1.761   7.931 -0.2280  1.2123 -1.4384
  169SOPE   H9Y19119   5.807   1.712   7.913 -0.2692  0.0770 -0.4121
  169SOPE  C31019120   5.862   1.821   8.107  0.7068  0.4366 -0.5793
  169SOPE  H10X19121   5.869   1.735   8.177 -1.2062  1.9658  1.5663
  169SOPE  H10Y19122   5.759   1.858   8.126  0.0885 -0.0716 -2.8050
  169SOPE  C31119123   5.957   1.920   8.164 -0.4569  0.6700  0.8075
  169SOPE  H11X19124   5.908   1.954   8.258 -1.0209  0.6324  0.5275
  169SOPE  H11Y19125   5.970   2.013   8.106  1.6584  1.2087  2.0815
  169SOPE  C31219126   6.099   1.864   8.207  0.0521  0.2605  0.2398
  169SOPE  H12X19127   6.134   1.803   8.121 -0.4117 -1.2960  1.1508
  169SOPE  H12Y19128   6.080   1.792   8.289 -0.1452 -0.0189 -0.0509
  169SOPE  C31319129   6.211   1.959   8.226  0.0171  0.4326  0.3265
  169SOPE  H13X19130   6.252   2.000   8.131 -1.5996 -1.8567 -1.4139
  169SOPE  H13Y19131   6.289   1.896   8.274  1.3129  1.3797 -0.4920
  169SOPE  C31419132   6.176   2.071   8.322  0.3730  0.5273  0.7736
  169SOPE  H14X19133   6.133   2.022   8.412  2.9549 -1.9931  0.7407
  169SOPE  H14Y19134   6.111   2.150   8.279  0.5792  0.8770  1.0935
  169SOPE  C31519135   6.304   2.136   8.374  0.2383  0.6196  0.1197
  169SOPE  H15X19136   6.279   2.234   8.420  0.2391  0.5692  0.2282
  169SOPE  H15Y19137   6.373   2.161   8.291 -0.7742 -0.5960 -1.0976
  169SOPE  C31619138   6.368   2.042   8.476 -0.5528 -0.0840 -0.7395
  169SOPE  H16X19139   6.381   1.941   8.431 -1.3981 -1.3521  1.7832
  169SOPE  H16Y19140   6.297   2.015   8.557 -0.9639  0.0024 -1.0718
  169SOPE  C31719141   6.491   2.093   8.547  0.5476  0.0440 -0.4614
  169SOPE  H17X19142   6.570   2.125   8.476  1.9038  1.7940  1.7327
  169SOPE  H17Y19143   6.536   2.010   8.606 -0.8745 -0.8127 -0.5576
  169SOPE  C31819144   6.461   2.206   8.637 -0.2589 -0.0078  0.9996
  169SOPE  H18X19145   6.392   2.170   8.716  0.0167 -0.8718  0.8634
  169SOPE  H18Y19146   6.414   2.288   8.579  0.9857  0.6246  0.8664
  169SOPE  H18Z19147   6.557   2.238   8.682  0.7402  0.6986 -1.5358
  170SOPE     N19148   0.332   0.253   6.092  0.1530 -0.8096  0.2187
  170SOPE   HN119149   0.397   0.307   6.031  2.8933 -1.8231  2.1538
  170SOPE   HN219150   0.296   0.319   6.165  0.5544 -0.3444 -0.0032
  170SOPE   HN319151   0.392   0.184   6.141 -0.7485 -1.5042  0.3634
  170SOPE   C1219152   0.221   0.189   6.013 -0.1874 -0.8851 -0.4757
  170SOPE  H12A19153   0.266   0.127   5.933 -0.2903 -1.2528 -0.2463
  170SOPE  H12B19154   0.158   0.261   5.956 -0.6757 -1.3725 -0.5581
  170SOPE   C1119155   0.144   0.086   6.090  0.9137  0.1775  0.7086
  170SOPE  H11A19156   0.078   0.032   6.018  1.6228  0.4651 -0.1636
  170SOPE  H11B19157   0.067   0.136   6.153 -0.1301  0.6260 -0.8757
  170SOPE     P19158   0.235  -0.007   6.322 -0.1139  0.0780  0.3948
  170SOPE   O1319159   0.349  -0.086   6.375  0.2068 -0.1496 -0.3746
  170SOPE   O1419160   0.095  -0.039   6.376 -0.6480  0.6738  0.0811
  170SOPE   O1219161   0.222  -0.018   6.160  0.3598 -0.1134  0.0883
  170SOPE   O1119162   0.264   0.143   6.345  0.1869 -0.8134  0.2535
  170SOPE    C119163   0.302   0.200   6.469  0.1134 -0.6205  0.4112
  170SOPE    HA19164   0.364   0.290   6.452  0.9862 -0.7758  2.6434
  170SOPE    HB19165   0.353   0.127   6.535 -1.0003 -0.4402  1.4849
  170SOPE    C219166   0.181   0.252   6.560 -0.6067  0.3138  0.0547
  170SOPE    HS19167   0.223   0.331   6.626  1.1864  0.1251 -0.8400
  170SOPE   O2119168   0.131   0.140   6.640  1.0528 -0.1808 -0.1961
  170SOPE   C2119169   0.179   0.134   6.762 -0.5719  0.0725  0.3201
  170SOPE   O2219170   0.242   0.217   6.822 -0.1334 -0.6367 -0.1953
  170SOPE   C2219171   0.149  -0.005   6.807  0.1399 -0.4923  0.2793
  170SOPE   H2R19172   0.218  -0.080   6.765  2.0252  0.6652  1.2342
  170SOPE   H2S19173   0.048  -0.043   6.781  1.4767 -2.4515 -2.1468
  170SOPE    C319174   0.062   0.317   6.487 -0.3938 -0.5391  0.1556
  170SOPE    HX19175   0.034   0.254   6.400  0.7500 -0.1948 -0.4815
  170SOPE    HY19176   0.088   0.413   6.437  0.2010 -1.5390 -1.5192
  170SOPE   O3119177  -0.055   0.336   6.573  0.4260  0.2293  0.3163
  170SOPE   C3119178  -0.138   0.232   6.580  0.0296  0.1907 -0.4022
  170SOPE   O3219179  -0.143   0.142   6.498 -0.4333  0.2020 -0.2336
  170SOPE   C3219180  -0.226   0.237   6.711  0.4719  0.0794 -0.1505
  170SOPE   H2X19181  -0.153   0.235   6.795  0.4945  1.5163 -0.1200
  170SOPE   H2Y19182  -0.287   0.144   6.715  0.2633  0.2213 -0.0649
  170SOPE   C2319183   0.169  -0.023   6.957 -0.3104  0.6900 -0.2493
  170SOPE   H3R19184   0.275   0.008   6.972 -0.7520  1.5576  1.1492
  170SOPE   H3S19185   0.169  -0.132   6.978  1.3840  1.0507  1.7411
  170SOPE   C2419186   0.068   0.047   7.039  0.2172 -0.8073  0.1714
  170SOPE   H4R19187   0.053   0.150   7.001  0.7903 -0.6833  0.2756
  170SOPE   H4S19188  -0.026  -0.011   7.029 -0.5328  0.3953  0.1842
  170SOPE   C2519189   0.107   0.051   7.182 -0.0456  0.5606 -0.2273
  170SOPE   H5R19190   0.205   0.102   7.192  0.7254 -0.6581 -1.4114
  170SOPE   H5S19191   0.041   0.109   7.251  0.2827  1.2496 -0.4952
  170SOPE   C2619192   0.122  -0.093   7.249  0.4192 -0.2560  0.0272
  170SOPE   H6R19193   0.029  -0.152   7.228  0.8947 -1.0076  0.0140
  170SOPE   H6S19194   0.212  -0.138   7.202  2.3818  3.1748  0.3732
  170SOPE   C2719195   0.147  -0.086   7.406 -0.3972  0.4253 -0.1419
  170SOPE   H7R19196   0.239  -0.025   7.413 -0.0688 -0.3945  3.0770
  170SOPE   H7S19197   0.075  -0.024   7.464  1.0716  2.6211 -0.6216
  170SOPE   C2819198   0.167  -0.228   7.462  0.5100  0.4845  0.5042
  170SOPE   H8R19199   0.246  -0.285   7.410 -0.7073  0.7526 -1.6954
  170SOPE   H8S19200   0.199  -0.211   7.567  0.3048  0.3820  0.5844
  170SOPE   C2919201   0.030  -0.299   7.467  0.0432 -0.8836  0.7972
  170SOPE   H9119202  -0.022  -0.270   7.374  1.3168 -1.6488 -0.1700
  170SOPE  C21019203  -0.032  -0.383   7.552 -1.1786 -0.5957 -0.3981
  170SOPE  H10119204  -0.134  -0.420   7.534 -0.9657 -0.7367 -1.2972
  170SOPE  C21119205   0.025  -0.443   7.678  0.3550  0.1513  0.1119
  170SOPE  H11R19206   0.047  -0.364   7.753  3.6689 -2.3877  1.9386
  170SOPE  H11S19207   0.126  -0.476   7.648  0.2425  0.9987 -1.2300
  170SOPE  C21219208  -0.059  -0.551   7.759  0.6182 -0.2312 -0.0847
  170SOPE  H12R19209   0.010  -0.600   7.831  1.7246 -0.0775 -1.0186
  170SOPE  H12S19210  -0.089  -0.630   7.687 -0.2478 -1.6661  1.7947
  170SOPE  C21319211  -0.173  -0.491   7.841 -0.5358  0.0644  0.8139
  170SOPE  H13R19212  -0.264  -0.475   7.779  0.0181  0.2437  0.0425
  170SOPE  H13S19213  -0.146  -0.393   7.887  2.1315 -0.1302 -0.2316
  170SOPE  C21419214  -0.219  -0.592   7.957 -0.6518 -0.2662  0.5699
  170SOPE  H14R19215  -0.145  -0.599   8.040 -0.4630 -0.6908  0.3651
  170SOPE  H14S19216  -0.231  -0.694   7.915  1.0727 -0.4630  0.4913
  170SOPE  C21519217  -0.349  -0.540   8.018 -0.1785  0.6288 -0.4553
  170SOPE  H15R19218  -0.426  -0.547   7.939 -0.7353  1.1003  0.0431
  170SOPE  H15S19219  -0.328  -0.433   8.041  0.6762  0.3394  0.1547
  170SOPE  C21619220  -0.382  -0.620   8.147 -0.9140  0.6593  0.2267
  170SOPE  H16R19221  -0.364  -0.729   8.134  1.8187  1.0645  0.2693
  170SOPE  H16S19222  -0.489  -0.600   8.167 -1.1783 -0.3000 -0.1787
  170SOPE  C21719223  -0.312  -0.573   8.275  0.3266  0.4382 -0.1794
  170SOPE  H17R19224  -0.306  -0.462   8.285  3.7158  0.2969 -0.1549
  170SOPE  H17S19225  -0.204  -0.597   8.265  0.6557  1.0678  1.5358
  170SOPE  C21819226  -0.364  -0.636   8.403 -0.2234  0.8636 -0.0920
  170SOPE  H18R19227  -0.297  -0.600   8.485  2.3389  0.7128 -2.0527
  170SOPE  H18S19228  -0.368  -0.747   8.396 -2.1963  0.9273 -0.1629
  170SOPE  H18T19229  -0.466  -0.598   8.425  0.4887  1.8970  1.5486
  170SOPE   C3319230  -0.327   0.352   6.722 -0.6581 -0.0351 -0.5782
  170SOPE   H3X19231  -0.384   0.356   6.627 -0.0594  1.9744 -0.8624
  170SOPE   H3Y19232  -0.282   0.447   6.757 -1.4421  0.6584 -1.4436
  170SOPE   C3419233  -0.431   0.344   6.835  0.1869 -0.4429  0.3844
  170SOPE   H4X19234  -0.462   0.238   6.822  2.7526 -1.0027 -1.3723
  170SOPE   H4Y19235  -0.527   0.398   6.818  1.5837  1.8790 -0.3429
  170SOPE   C3519236  -0.382   0.372   6.973 -0.9362  0.8316  0.1895
  170SOPE   H5X19237  -0.379   0.483   6.979 -1.7340  0.7612  2.3013
  170SOPE   H5Y19238  -0.281   0.334   6.998 -0.1706  0.9010 -2.6625
  170SOPE   C3619239  -0.480   0.321   7.087  0.0643  0.0374  0.3096
  170SOPE   H6X19240  -0.474   0.210   7.088  0.2749  0.0260 -1.1786
  170SOPE   H6Y19241  -0.581   0.360   7.063  0.3696 -0.0077 -1.0474
  170SOPE   C3719242  -0.434   0.378   7.217 -0.2927 -0.0381  0.8094
  170SOPE   H7X19243  -0.445   0.489   7.218  1.7835  0.2087 -0.0316
  170SOPE   H7Y19244  -0.323   0.371   7.228 -0.3146 -1.5093  0.1465
  170SOPE   C3819245  -0.494   0.316   7.346  0.2313  0.2498  0.9253
  170SOPE   H8X19246  -0.468   0.209   7.363  2.0220  0.3285 -1.0706
  170SOPE   H8Y19247  -0.604   0.326   7.333  0.2675  0.5637  0.8395
  170SOPE   C3919248  -0.451   0.400   7.476 -0.1251 -0.4741 -0.3129
  170SOPE   H9X19249  -0.498   0.501   7.478  3.2654  1.1561 -0.1652
  170SOPE   H9Y19250  -0.343   0.424   7.474 -0.2301  1.0915  4.6289
  170SOPE  C31019251  -0.488   0.323   7.608  0.0408  0.2185  0.4141
  170SOPE  H10X19252  -0.409   0.246   7.616 -2.6096 -2.3244  3.6663
  170SOPE  H10Y19253  -0.589   0.277   7.597  0.2413  0.0395 -0.7610
  170SOPE  C31119254  -0.481   0.409   7.735  0.1706 -0.0263 -0.8339
  170SOPE  H11X19255  -0.374   0.437   7.748 -0.4700  1.8183  0.6526
  170SOPE  H11Y19256  -0.507   0.351   7.826 -0.7503  2.7523  0.7235
  170SOPE  C31219257  -0.556   0.546   7.738  0.0818 -0.5758  0.6954
  170SOPE  H12X19258  -0.664   0.527   7.719  0.0724  0.0356  0.1332
  170SOPE  H12Y19259  -0.535   0.614   7.653 -2.2526  0.0949  0.6266
  170SOPE  C31319260  -0.547   0.633   7.868 -0.1294  0.3526  0.0793
  170SOPE  H13X19261  -0.448   0.682   7.857 -0.8999  2.1792  0.9435
  170SOPE  H13Y19262  -0.550   0.568   7.957 -0.2005  0.2591  0.0087
  170SOPE  C31419263  -0.670   0.724   7.872  0.4005  0.2818 -0.0087
  170SOPE  H14X19264  -0.759   0.661   7.894  1.1744 -1.2027 -1.0595
  170SOPE  H14Y19265  -0.687   0.768   7.772  2.7831  0.9406 -0.1573
  170SOPE  C31519266  -0.667   0.839   7.975 -0.1112 -0.5311  0.2605
  170SOPE  H15X19267  -0.758   0.902   7.966  0.4282 -0.0872 -2.9651
  170SOPE  H15Y19268  -0.579   0.903   7.953 -0.5382 -0.9229 -2.8971
  170SOPE  C31619269  -0.658   0.781   8.115  0.0990  0.5615 -0.0657
  170SOPE  H16X19270  -0.653   0.866   8.188  2.3480 -0.5523  1.1426
  170SOPE  H16Y19271  -0.557   0.735   8.125  0.6550  2.3206  3.2413
  170SOPE  C31719272  -0.770   0.681   8.165 -0.2042 -0.0068 -0.1266
  170SOPE  H17X19273  -0.747   0.586   8.112  0.5961 -0.6308  1.2974
  170SOPE  H17Y19274  -0.863   0.734   8.136  0.1112  0.8948  0.4738
  170SOPE  C31819275  -0.765   0.666   8.320 -0.2278  0.1615  0.5447
  170SOPE  H18X19276  -0.663   0.631   8.346  0.8987  2.5167 -0.5620
  170SOPE  H18Y19277  -0.848   0.604   8.360 -0.6433 -0.0450 -0.6074
  170SOPE  H18Z19278  -0.772   0.770   8.357 -0.4833  0.2560  0.2327
  171SOPE     N19279   0.395   3.272   6.581  0.0325 -0.1581  0.2505
  171SOPE   HN119280   0.413   3.371   6.606 -0.9616  0.0450  0.1827
  171SOPE   HN219281   0.370   3.279   6.480  0.5171  0.1114  0.1506
  171SOPE   HN319282   0.322   3.243   6.650  2.2148 -0.9486  2.3059
  171SOPE   C1219283   0.522   3.210   6.606 -0.4843 -0.8564  0.2182
  171SOPE  H12A19284   0.510   3.100   6.597 -2.1498 -0.6570 -0.0189
  171SOPE  H12B19285   0.561   3.231   6.708 -1.7886  1.7811  0.2112
  171SOPE   C1119286   0.622   3.268   6.494  0.1534  0.2675 -0.6873
  171SOPE  H11A19287   0.592   3.228   6.395 -0.4978  0.0173 -0.3933
  171SOPE  H11B19288   0.719   3.223   6.525 -0.2855 -1.4221 -1.7074
  171SOPE     P19289   0.722   3.494   6.589 -0.0499  0.1178  0.2358
  171SOPE   O1319290   0.851   3.474   6.520 -0.1301 -0.0266 -0.1587
  171SOPE   O1419291   0.719   3.451   6.731  0.4434 -0.1218  0.1168
  171SOPE   O1219292   0.620   3.410   6.505  0.6502 -0.0402 -0.2326
  171SOPE   O1119293   0.688   3.652   6.564  0.2550  0.3839 -0.0313
  171SOPE    C119294   0.548   3.686   6.545 -0.2245 -0.0888 -0.3603
  171SOPE    HA19295   0.499   3.617   6.474 -1.6349 -2.4764  2.8173
  171SOPE    HB19296   0.541   3.786   6.497  2.1474  0.2868 -0.0095
  171SOPE    C219297   0.476   3.718   6.675  0.2164 -0.2071  0.5483
  171SOPE    HS19298   0.491   3.632   6.744  3.6172 -0.5825 -0.5435
  171SOPE   O2119299   0.333   3.737   6.643 -0.5856 -0.2439 -0.7261
  171SOPE   C2119300   0.276   3.626   6.620 -0.6991  0.3722  0.8694
  171SOPE   O2219301   0.324   3.512   6.621 -0.1055  0.0799 -0.3020
  171SOPE   C2219302   0.132   3.644   6.584  0.1239 -0.1760 -0.1166
  171SOPE   H2R19303   0.109   3.583   6.494 -2.4436  1.2054 -0.4443
  171SOPE   H2S19304   0.110   3.748   6.553  2.5179  0.1719 -0.7379
  171SOPE    C319305   0.536   3.837   6.747  0.2298 -0.0735 -0.0454
  171SOPE    HX19306   0.508   3.928   6.690 -0.1907 -0.2481 -0.1263
  171SOPE    HY19307   0.647   3.834   6.739  0.2949 -0.2778  0.9252
  171SOPE   O3119308   0.489   3.841   6.881  0.1749  0.1718 -0.2417
  171SOPE   C3119309   0.426   3.955   6.921 -0.1342  0.0354 -0.2542
  171SOPE   O3219310   0.396   4.053   6.861  0.2986  0.0781 -0.5340
  171SOPE   C3219311   0.382   3.935   7.070 -0.3058  0.1973  0.3500
  171SOPE   H2X19312   0.428   3.838   7.099  0.5785  1.0620  1.9326
  171SOPE   H2Y19313   0.272   3.927   7.073 -0.1312 -2.8259  0.6289
  171SOPE   C2319314   0.043   3.601   6.699 -0.1476 -0.5297 -0.3057
  171SOPE   H3R19315   0.075   3.499   6.730  0.4935 -0.1407  0.3169
  171SOPE   H3S19316  -0.060   3.601   6.657 -1.0990 -0.7062  1.9803
  171SOPE   C2419317   0.050   3.691   6.832 -0.2183  0.4778  0.2671
  171SOPE   H4R19318   0.149   3.666   6.878  0.2840  1.0432 -0.4997
  171SOPE   H4S19319   0.051   3.800   6.808  0.5431  0.0708 -1.6085
  171SOPE   C2519320  -0.062   3.674   6.939  0.2278  0.5934  0.9217
  171SOPE   H5R19321  -0.156   3.701   6.886  0.2983 -0.7079  0.0910
  171SOPE   H5S19322  -0.079   3.567   6.964  3.1015  0.0999  0.9390
  171SOPE   C2619323  -0.026   3.761   7.063  0.2542  0.5125  0.1015
  171SOPE   H6R19324   0.074   3.736   7.104  0.5409 -0.1826 -0.9915
  171SOPE   H6S19325  -0.039   3.867   7.034 -0.3263  1.0775  2.3472
  171SOPE   C2719326  -0.119   3.735   7.188  0.0801 -0.2622  0.2529
  171SOPE   H7R19327  -0.213   3.790   7.170  0.6174  0.3993 -0.6032
  171SOPE   H7S19328  -0.149   3.629   7.205 -0.3389  0.1515  2.2763
  171SOPE   C2819329  -0.064   3.778   7.323  0.0953  0.1998  0.1189
  171SOPE   H8R19330  -0.149   3.771   7.393  0.6816  0.2989  0.8487
  171SOPE   H8S19331   0.014   3.707   7.358 -1.4722 -0.4716  2.3360
  171SOPE   C2919332  -0.008   3.915   7.321 -0.9796 -0.1272  0.0218
  171SOPE   H9119333   0.053   3.940   7.232  0.8374  1.7579  1.7302
  171SOPE  C21019334  -0.031   4.003   7.423  0.8016  0.3964 -0.3094
  171SOPE  H10119335   0.002   4.107   7.409 -0.4688  1.1159  1.7073
  171SOPE  C21119336  -0.104   3.986   7.553  0.8908  0.2986  0.6074
  171SOPE  H11R19337  -0.105   3.878   7.576  1.8969  0.2652  0.5092
  171SOPE  H11S19338  -0.213   4.007   7.542  1.0934  0.4947 -1.2226
  171SOPE  C21219339  -0.038   4.057   7.666 -0.5168  0.2112  0.3375
  171SOPE  H12R19340  -0.051   4.165   7.642 -1.5406  0.1275  0.4952
  171SOPE  H12S19341   0.072   4.037   7.669 -0.3310  1.1256 -0.3072
  171SOPE  C21319342  -0.092   4.049   7.812  0.3591  0.4620  0.5645
  171SOPE  H13R19343  -0.054   3.950   7.847  0.5352  1.1869  2.5375
  171SOPE  H13S19344  -0.202   4.040   7.805  0.4128 -2.2008  2.4332
  171SOPE  C21419345  -0.049   4.163   7.901 -0.2522 -0.8607  0.1992
  171SOPE  H14R19346  -0.051   4.121   8.004  0.7346  0.2581  0.6920
  171SOPE  H14S19347  -0.125   4.242   7.916  0.0790  0.1468 -3.0045
  171SOPE  C21519348   0.092   4.225   7.873  0.2153  0.2012 -0.4000
  171SOPE  H15R19349   0.075   4.304   7.797  0.1037  0.6129  0.0451
  171SOPE  H15S19350   0.152   4.146   7.824 -1.4621  0.4672 -2.9585
  171SOPE  C21619351   0.155   4.310   7.985  0.5142  0.2797  0.7848
  171SOPE  H16R19352   0.107   4.411   7.987 -0.0297  0.0185  0.8175
  171SOPE  H16S19353   0.262   4.324   7.959  0.7229  0.1375  1.5477
  171SOPE  C21719354   0.144   4.244   8.122 -0.2476 -0.0107  0.4641
  171SOPE  H17R19355   0.038   4.232   8.154  0.3186 -2.2575  1.6292
  171SOPE  H17S19356   0.197   4.305   8.198  3.8355  0.3436 -2.5103
  171SOPE  C21819357   0.202   4.101   8.126  0.0091 -0.3371 -0.0690
  171SOPE  H18R19358   0.138   4.039   8.059  0.6351 -1.8667  0.7172
  171SOPE  H18S19359   0.194   4.059   8.228 -0.6873 -1.6584 -0.6465
  171SOPE  H18T19360   0.311   4.108   8.110  0.3533 -0.7205  1.9948
  171SOPE   C3319361   0.428   4.053   7.162  0.2397  1.2337 -0.3412
  171SOPE   H3X19362   0.388   4.151   7.128 -1.2250  0.6438 -0.3468
  171SOPE   H3Y19363   0.538   4.063   7.146  1.0002 -5.7117 -0.8256
  171SOPE   C3419364   0.377   4.027   7.304 -0.2435  0.1578 -0.1943
  171SOPE   H4X19365   0.389   3.925   7.346 -0.0602  0.3415  0.2014
  171SOPE   H4Y19366   0.267   4.039   7.299 -0.3095 -0.8867 -1.6628
  171SOPE   C3519367   0.432   4.130   7.407 -0.2633 -0.3881  0.2060
  171SOPE   H5X19368   0.431   4.222   7.345 -1.7488 -2.3558 -2.8701
  171SOPE   H5Y19369   0.532   4.092   7.435 -1.2707 -1.2122  2.8120
  171SOPE   C3619370   0.348   4.149   7.527  0.0074  0.3216  0.6184
  171SOPE   H6X19371   0.301   4.051   7.549 -1.4002  0.6851 -0.6577
  171SOPE   H6Y19372   0.264   4.221   7.516  0.4734  1.1237  2.2834
  171SOPE   C3719373   0.422   4.212   7.644 -0.1537 -0.1895 -0.7151
  171SOPE   H7X19374   0.358   4.284   7.699  1.4927  1.4524 -0.9300
  171SOPE   H7Y19375   0.517   4.261   7.614 -0.0566  0.1809  0.1876
  171SOPE   C3819376   0.456   4.119   7.765  0.9899 -0.8955 -0.7156
  171SOPE   H8X19377   0.503   4.024   7.733  0.8850 -1.1149 -0.2198
  171SOPE   H8Y19378   0.358   4.096   7.811  0.3127  0.4551 -1.4195
  171SOPE   C3919379   0.548   4.190   7.871  0.0076  0.5983  0.4366
  171SOPE   H9X19380   0.495   4.284   7.900  0.3822  1.4967 -1.7261
  171SOPE   H9Y19381   0.640   4.222   7.818 -0.4555 -0.5081 -1.0478
  171SOPE  C31019382   0.596   4.101   7.989  0.2613 -0.2551 -0.1336
  171SOPE  H10X19383   0.673   4.027   7.959  1.5444  1.4848 -1.2346
  171SOPE  H10Y19384   0.500   4.057   8.024 -1.2929  3.6032  0.7007
  171SOPE  C31119385   0.669   4.186   8.098  0.1357 -0.4480  0.7153
  171SOPE  H11X19386   0.597   4.251   8.154  1.0668  0.2541  1.1171
  171SOPE  H11Y19387   0.746   4.253   8.054 -0.8772  1.3258  1.5611
  171SOPE  C31219388   0.739   4.101   8.206  0.5795 -0.6193 -0.4381
  171SOPE  H12X19389   0.818   4.045   8.151  0.7422 -1.1745  0.3495
  171SOPE  H12Y19390   0.667   4.029   8.251  1.5065 -0.5188  1.2743
  171SOPE  C31319391   0.801   4.183   8.320 -0.3825  0.0684  0.5948
  171SOPE  H13X19392   0.861   4.266   8.278  0.4307 -1.7957 -2.0669
  171SOPE  H13Y19393   0.873   4.118   8.375 -1.9427 -1.1582  1.2226
  171SOPE  C31419394   0.698   4.251   8.420 -0.7589 -0.4819 -0.3340
  171SOPE  H14X19395   0.609   4.186   8.431 -0.4577 -0.8947 -0.3083
  171SOPE  H14Y19396   0.662   4.339   8.364  0.0003 -0.3177 -0.5797
  171SOPE  C31519397   0.757   4.295   8.558  0.5597 -0.0683  0.1141
  171SOPE  H15X19398   0.826   4.378   8.531 -0.7148  1.7085  2.1769
  171SOPE  H15Y19399   0.811   4.209   8.602  0.0879 -0.4207  0.0093
  171SOPE  C31619400   0.647   4.343   8.652  0.0828  0.8021  0.7305
  171SOPE  H16X19401   0.605   4.432   8.599 -1.6763 -0.6665 -0.3937
  171SOPE  H16Y19402   0.709   4.388   8.733  2.3717 -0.7518 -0.1266
  171SOPE  C31719403   0.526   4.253   8.695 -0.3695 -0.2704  0.7719
  171SOPE  H17X19404   0.465   4.216   8.610 -0.1337  0.1934  0.4047
  171SOPE  H17Y19405   0.454   4.315   8.753  0.1600  0.6848  0.4090
  171SOPE  C31819406   0.577   4.142   8.780 -0.4071  0.0652  0.3129
  171SOPE  H18X19407   0.651   4.089   8.715 -0.0446  0.0404  0.7447
  171SOPE  H18Y19408   0.501   4.062   8.793  1.3513 -1.6905  0.1963
  171SOPE  H18Z19409   0.617   4.160   8.882 -2.4882 -1.4251  1.4367
  172SOPE     N19410   0.757   5.905   6.780  0.3813  0.3715  0.3687
  172SOPE   HN119411   0.724   5.886   6.877 -0.3451 -0.0487  0.0478
  172SOPE   HN219412   0.816   5.827   6.744 -1.2796 -0.3881 -0.7800
  172SOPE   HN319413   0.824   5.983   6.789 -1.0120  1.8318 -1.5855
  172SOPE   C1219414   0.647   5.929   6.679 -0.4961  0.4550 -1.0160
  172SOPE  H12A19415   0.690   5.953   6.580  0.9139 -0.9088 -0.7607
  172SOPE  H12B19416   0.594   6.021   6.710  1.5004  1.9883 -2.0313
  172SOPE   C1119417   0.557   5.806   6.659 -0.0736  0.2376 -0.3968
  172SOPE  H11A19418   0.472   5.840   6.596 -0.9161 -1.9986 -0.4891
  172SOPE  H11B19419   0.518   5.772   6.757 -1.7709 -0.3141 -1.2556
  172SOPE     P19420   0.631   5.558   6.584  0.3624 -0.0427  0.3792
  172SOPE   O1319421   0.767   5.495   6.556  0.1620 -0.2654 -0.1618
  172SOPE   O1419422   0.517   5.514   6.495 -0.0069  0.3347  0.5429
  172SOPE   O1219423   0.639   5.711   6.585  0.3205  0.8020  0.6697
  172SOPE   O1119424   0.592   5.520   6.730 -0.1860 -0.3324  0.5613
  172SOPE    C119425   0.694   5.532   6.830  0.1643 -0.2721  0.7923
  172SOPE    HA19426   0.700   5.635   6.872 -1.3995  0.7662 -1.4582
  172SOPE    HB19427   0.796   5.507   6.794  1.1414  1.5280  2.2325
  172SOPE    C219428   0.678   5.425   6.939  0.7996  0.5963  0.0382
  172SOPE    HS19429   0.718   5.332   6.893 -1.2451  0.1799 -0.9409
  172SOPE   O2119430   0.543   5.403   6.970  0.4215  0.0881 -0.0978
  172SOPE   C2119431   0.482   5.491   7.048  0.1975  0.1745  0.1034
  172SOPE   O2219432   0.519   5.606   7.063  0.2272 -0.6369 -0.0155
  172SOPE   C2219433   0.356   5.428   7.103 -0.8263  0.1680  0.2449
  172SOPE   H2R19434   0.375   5.319   7.115  0.8902  0.5310  0.9123
  172SOPE   H2S19435   0.270   5.452   7.037 -1.3726 -0.4839  0.7081
  172SOPE    C319436   0.776   5.464   7.058  0.8407 -0.2426  0.7258
  172SOPE    HX19437   0.766   5.574   7.067  1.9097 -0.2237  1.7237
  172SOPE    HY19438   0.879   5.442   7.022  0.0200 -2.9580 -0.1422
  172SOPE   O3119439   0.747   5.397   7.179  0.0869 -0.3742  0.2618
  172SOPE   C3119440   0.795   5.280   7.193  0.1402 -0.1214  0.5206
  172SOPE   O3219441   0.862   5.218   7.111  0.1823 -0.1168  0.5692
  172SOPE   C3219442   0.729   5.237   7.327  0.1759 -0.0603  0.0143
  172SOPE   H2X19443   0.630   5.198   7.294  0.6352 -0.8268 -0.4951
  172SOPE   H2Y19444   0.689   5.325   7.381 -2.1961 -2.3797  2.2160
  172SOPE   C2319445   0.326   5.492   7.246  0.3193  0.5525  0.2301
  172SOPE   H3R19446   0.242   5.442   7.297  1.5181  0.1493  1.8437
  172SOPE   H3S19447   0.291   5.597   7.239 -1.3540 -0.0493 -0.5903
  172SOPE   C2419448   0.434   5.482   7.351  0.7464  0.2911 -0.2568
  172SOPE   H4R19449   0.462   5.376   7.367 -0.5768  0.1309  1.1206
  172SOPE   H4S19450   0.529   5.519   7.308  3.0136 -4.1485  0.6401
  172SOPE   C2519451   0.402   5.558   7.480  0.5603 -0.3324  0.9617
  172SOPE   H5R19452   0.427   5.666   7.479  0.1132 -0.1823  3.0935
  172SOPE   H5S19453   0.292   5.554   7.494  0.1023  0.7611 -2.0436
  172SOPE   C2619454   0.476   5.500   7.603 -0.4057 -0.6713  0.5734
  172SOPE   H6R19455   0.491   5.391   7.590  2.1448 -0.3817  0.8603
  172SOPE   H6S19456   0.580   5.538   7.600  0.9748 -4.2601  0.1916
  172SOPE   C2719457   0.414   5.525   7.736 -0.5243  0.0036 -0.3807
  172SOPE   H7R19458   0.309   5.490   7.745 -0.8063  1.2065  1.1583
  172SOPE   H7S19459   0.467   5.476   7.821 -0.4708  1.0888  0.2110
  172SOPE   C2819460   0.392   5.680   7.777  0.3163  0.0212  0.0947
  172SOPE   H8R19461   0.353   5.730   7.686 -4.3422 -0.4434  1.6879
  172SOPE   H8S19462   0.312   5.690   7.853  0.0197 -1.1489 -0.0454
  172SOPE   C2919463   0.520   5.739   7.834  0.5678 -0.7174  0.0170
  172SOPE   H9119464   0.594   5.767   7.757  1.8967  0.8226  1.7904
  172SOPE  C21019465   0.543   5.781   7.961 -1.3014 -0.3455  0.5471
  172SOPE  H10119466   0.636   5.833   7.989 -1.0113 -0.1097 -0.8507
  172SOPE  C21119467   0.454   5.779   8.082  0.1929 -0.5265 -0.5966
  172SOPE  H11R19468   0.397   5.684   8.079 -0.6279 -0.0530 -0.1705
  172SOPE  H11S19469   0.381   5.863   8.071  0.5443 -0.1543 -0.0938
  172SOPE  C21219470   0.526   5.797   8.215 -0.3688  0.3149 -0.4517
  172SOPE  H12R19471   0.453   5.808   8.299  1.0047 -1.6404  1.0466
  172SOPE  H12S19472   0.586   5.890   8.210  0.0184  0.0427 -0.8658
  172SOPE  C21319473   0.609   5.671   8.250  0.4785 -0.5112  0.1868
  172SOPE  H13R19474   0.698   5.696   8.311 -0.1818 -1.5210  1.5811
  172SOPE  H13S19475   0.646   5.633   8.152  1.9783  0.2752  0.4364
  172SOPE  C21419476   0.525   5.570   8.326 -0.6112 -0.3572  0.0164
  172SOPE  H14R19477   0.431   5.564   8.268 -0.5034 -0.0444 -0.1942
  172SOPE  H14S19478   0.514   5.606   8.431  0.3262  0.4795 -0.1602
  172SOPE  C21519479   0.600   5.439   8.342  0.2866 -0.3078 -0.0254
  172SOPE  H15R19480   0.686   5.463   8.408 -0.4967 -1.0036  1.2761
  172SOPE  H15S19481   0.647   5.408   8.246  0.8473 -1.4159  0.5951
  172SOPE  C21619482   0.513   5.324   8.402  0.6918  0.1958  0.0293
  172SOPE  H16R19483   0.495   5.247   8.324  0.2297  1.0338 -0.7066
  172SOPE  H16S19484   0.409   5.356   8.423  0.3824 -0.8620  0.1530
  172SOPE  C21719485   0.564   5.264   8.531 -0.3503  0.3693 -0.0841
  172SOPE  H17R19486   0.583   5.333   8.616  1.4369  0.2008 -0.3428
  172SOPE  H17S19487   0.666   5.225   8.516 -0.4134  0.8619 -1.8852
  172SOPE  C21819488   0.461   5.158   8.588 -0.1614  0.2649 -0.0844
  172SOPE  H18R19489   0.496   5.113   8.683 -2.2895 -0.7636  0.2337
  172SOPE  H18S19490   0.447   5.073   8.517  0.6714  0.7243 -0.8105
  172SOPE  H18T19491   0.364   5.211   8.593  0.6187  1.5589  1.4392
  172SOPE   C3319492   0.806   5.135   7.415  0.5165 -0.7045 -0.0798
  172SOPE   H3X19493   0.911   5.173   7.417  0.4036 -0.3385 -0.9549
  172SOPE   H3Y19494   0.814   5.039   7.360  2.2730 -2.3513  2.9266
  172SOPE   C3419495   0.753   5.118   7.559 -0.4785 -0.1964  0.1217
  172SOPE   H4X19496   0.795   5.026   7.604  2.5285  0.1930 -1.6963
  172SOPE   H4Y19497   0.645   5.095   7.555 -0.8076  1.0468  1.4641
  172SOPE   C3519498   0.786   5.232   7.652 -0.6183 -0.1100 -0.1659
  172SOPE   H5X19499   0.729   5.320   7.615  0.9079  1.7121  1.6916
  172SOPE   H5Y19500   0.896   5.246   7.637 -0.1353 -1.9351  1.5973
  172SOPE   C3619501   0.745   5.210   7.797 -0.3080 -0.2199 -0.9705
  172SOPE   H6X19502   0.787   5.293   7.858 -0.7630 -0.2062 -0.6708
  172SOPE   H6Y19503   0.788   5.117   7.841  0.9093  0.6111 -0.3887
  172SOPE   C3719504   0.591   5.196   7.808 -0.1040 -0.4620 -0.4748
  172SOPE   H7X19505   0.559   5.100   7.764 -0.1277 -0.8914  0.4696
  172SOPE   H7Y19506   0.530   5.273   7.755 -0.8759 -0.6657  0.1191
  172SOPE   C3819507   0.533   5.191   7.944 -0.0772  0.0015 -0.4537
  172SOPE   H8X19508   0.524   5.290   7.994 -2.0279  0.7205 -2.1361
  172SOPE   H8Y19509   0.593   5.117   8.001 -1.2535 -0.7937 -0.2207
  172SOPE   C3919510   0.386   5.129   7.943 -0.6477  0.2751  0.0845
  172SOPE   H9X19511   0.402   5.026   7.906  0.4797  0.3035  0.4650
  172SOPE   H9Y19512   0.317   5.189   7.879 -1.5723 -1.0523 -0.1734
  172SOPE  C31019513   0.337   5.122   8.088  0.0431 -0.5952  0.2238
  172SOPE  H10X19514   0.348   5.220   8.139  1.5133 -0.4208 -0.4217
  172SOPE  H10Y19515   0.394   5.050   8.151  0.4787 -0.2546  0.2194
  172SOPE  C31119516   0.196   5.067   8.100 -0.0908 -0.4683 -0.3422
  172SOPE  H11X19517   0.190   4.962   8.065  0.7984 -1.0900  1.3276
  172SOPE  H11Y19518   0.139   5.125   8.023 -1.8301  1.3321  2.2156
  172SOPE  C31219519   0.130   5.091   8.232  0.4665 -0.4000  0.6210
  172SOPE  H12X19520   0.021   5.087   8.208  0.6122 -1.0316  0.0607
  172SOPE  H12Y19521   0.158   5.190   8.274  1.1297 -0.0194 -0.7050
  172SOPE  C31319522   0.167   4.996   8.337 -0.8601 -0.2892  0.2336
  172SOPE  H13X19523   0.275   5.011   8.354 -0.7380 -0.5636 -0.2782
  172SOPE  H13Y19524   0.177   4.894   8.295  1.7489  0.0645 -0.0827
  172SOPE  C31419525   0.099   5.013   8.472  0.9239  0.1227 -0.0122
  172SOPE  H14X19526  -0.004   5.054   8.462  1.4110  1.7165  1.1535
  172SOPE  H14Y19527   0.153   5.095   8.526  0.4830  1.0464 -0.9520
  172SOPE  C31519528   0.091   4.889   8.567 -0.3011  0.3640 -0.1832
  172SOPE  H15X19529   0.044   4.900   8.667 -3.5261 -1.5203 -1.4101
  172SOPE  H15Y19530   0.199   4.864   8.577  0.0455  1.6871 -0.4423
  172SOPE  C31619531   0.011   4.773   8.498  0.4474  0.8194  0.2435
  172SOPE  H16X19532   0.046   4.761   8.393  0.0164 -0.8610  0.2679
  172SOPE  H16Y19533  -0.096   4.803   8.494  0.1454 -0.1793  0.5956
  172SOPE  C31719534   0.027   4.638   8.574 -0.7941  0.1832  0.0490
  172SOPE  H17X19535  -0.038   4.559   8.531 -1.3147  1.2293 -1.1171
  172SOPE  H17Y19536  -0.006   4.646   8.679 -3.2073  2.0289 -0.8106
  172SOPE  C31819537   0.175   4.590   8.585 -0.4810 -0.2955 -0.3831
  172SOPE  H18X19538   0.171   4.499   8.648  0.0945 -0.5279 -0.6743
  172SOPE  H18Y19539   0.243   4.661   8.637  0.6843 -1.0048 -0.9300
  172SOPE  H18Z19540   0.219   4.576   8.484 -0.5661 -1.8096 -0.2092
  173SAPI   C1219541   1.552   2.961  10.924 -0.5678  0.2800 -0.1128
  173SAPI    H219542   1.575   2.854  10.910  1.2680  0.6110  0.2175
  173SAPI    O219543   1.417   2.969  10.952 -0.5273 -0.8950  0.3962
  173SAPI   HO219544   1.376   3.002  10.872 -1.3980 -0.9112  0.8311
  173SAPI   C1319545   1.632   3.006  11.048 -0.6016 -0.2037 -0.5238
  173SAPI    H319546   1.738   2.985  11.022 -0.8879 -0.5597 -1.4240
  173SAPI    O319547   1.604   2.918  11.160 -0.2670 -0.1013  0.5862
  173SAPI   HO319548   1.509   2.903  11.162 -0.1183 -1.0167  1.1953
  173SAPI   C1419549   1.624   3.150  11.070  0.3339 -0.3852  0.8040
  173SAPI    H419550   1.518   3.172  11.097  0.0574 -2.6002  1.6149
  173SAPI    O419551   1.708   3.188  11.177 -0.0635 -0.1935 -1.0032
  173SAPI   HO419552   1.691   3.279  11.202 -1.0758 -0.5341 -0.3986
  173SAPI   C1519553   1.656   3.227  10.942  1.0737  0.3592 -0.3395
  173SAPI    H519554   1.759   3.210  10.905  1.1178  0.7717 -0.4055
  173SAPI    O519555   1.644   3.365  10.975  0.1265 -0.3272 -0.1168
  173SAPI   HO519556   1.721   3.407  10.935 -1.1100  0.0992 -2.1088
  173SAPI   C1619557   1.557   3.194  10.825 -0.2534 -0.2158 -0.0109
  173SAPI    H619558   1.452   3.216  10.856 -0.8061 -2.8092  0.0515
  173SAPI    O619559   1.588   3.273  10.712 -0.4044  0.2809  0.1590
  173SAPI   HO619560   1.605   3.213  10.639  1.5137 -2.3031  2.6113
  173SAPI   C1119561   1.577   3.043  10.796 -0.3347 -0.8670 -0.1766
  173SAPI    H119562   1.686   3.024  10.778  0.6417  0.5789  3.7024
  173SAPI     P19563   1.554   2.984  10.532 -0.4102 -0.0157 -0.2225
  173SAPI   O1319564   1.643   3.097  10.502 -0.2221 -0.0483 -0.2378
  173SAPI   O1419565   1.440   2.954  10.444  0.2675  0.1997 -0.2645
  173SAPI   O1219566   1.496   2.992  10.690 -0.0639 -0.2836  0.7013
  173SAPI   O1119567   1.641   2.855  10.540 -0.1980 -0.3666  0.7239
  173SAPI    C119568   1.568   2.732  10.557  0.0595 -0.2328  0.0123
  173SAPI    HA19569   1.610   2.686  10.649 -1.1316 -0.0248  0.6805
  173SAPI    HB19570   1.461   2.749  10.583 -0.1415 -0.8732 -0.3909
  173SAPI    C219571   1.595   2.634  10.442 -0.5242  0.0977 -0.5114
  173SAPI    HS19572   1.698   2.593  10.448 -0.7416 -0.5230 -1.0286
  173SAPI   O2119573   1.577   2.708  10.318  0.1572  0.1103  0.3674
  173SAPI   C2119574   1.689   2.754  10.254  0.3817  0.2079  0.1335
  173SAPI   O2219575   1.804   2.734  10.281 -0.3576  0.3902 -0.1861
  173SAPI   C2219576   1.648   2.848  10.151  0.1899  0.0143 -0.2392
  173SAPI   H2R19577   1.567   2.906  10.199  0.2623  0.1472 -0.2802
  173SAPI   H2S19578   1.726   2.927  10.147 -0.6918  0.8383 -1.4833
  173SAPI    C319579   1.489   2.520  10.448 -0.1195  0.6682 -0.9492
  173SAPI    HX19580   1.383   2.546  10.464 -0.5836 -1.1045 -0.9794
  173SAPI    HY19581   1.510   2.449  10.531  2.1049 -1.5978 -3.3506
  173SAPI   O3119582   1.488   2.438  10.324  0.0003 -0.0727 -0.6876
  173SAPI   C3119583   1.588   2.352  10.324 -0.2758  0.6434  0.4839
  173SAPI   O3219584   1.666   2.338  10.415  0.0237  0.2790 -0.0714
  173SAPI   C3219585   1.599   2.270  10.199 -0.3000 -0.2970 -0.2800
  173SAPI   H2X19586   1.517   2.195  10.203 -0.2836 -0.2501  1.3585
  173SAPI   H2Y19587   1.687   2.203  10.205  0.7851  1.2629  1.7308
  173SAPI   C2319588   1.613   2.776  10.022  0.5697  0.1964 -0.2858
  173SAPI   H3R19589   1.553   2.844   9.957 -2.8480 -3.3380 -1.0183
  173SAPI   H3S19590   1.542   2.692  10.039  1.2992 -0.3367  0.1197
  173SAPI   C2419591   1.736   2.721   9.950  0.0594  0.0772  0.3808
  173SAPI   H4R19592   1.749   2.614   9.977 -1.0329 -0.0349  0.4448
  173SAPI   H4S19593   1.829   2.768   9.988 -0.4517  1.6557 -0.2938
  173SAPI   C2519594   1.707   2.744   9.799  0.2769 -0.0840  0.2109
  173SAPI   H5R19595   1.608   2.781   9.772 -0.0514 -0.0096  1.4907
  173SAPI   C2619596   1.799   2.728   9.707 -0.1844 -0.1181  0.1254
  173SAPI   H6R19597   1.781   2.742   9.600  2.0040 -2.6183 -0.6252
  173SAPI   C2719598   1.935   2.677   9.736 -0.6367  0.1799 -0.1393
  173SAPI   H7R19599   1.961   2.588   9.675  2.7510  0.1182  1.2635
  173SAPI   H7S19600   1.939   2.636   9.840  0.3454 -0.3744 -0.3824
  173SAPI   C2819601   2.042   2.779   9.702  0.0987 -0.6129  0.2793
  173SAPI   H8R19602   2.034   2.824   9.602  1.5821  0.3263  0.5724
  173SAPI   C2919603   2.147   2.800   9.779  0.0328 -0.3603  1.0968
  173SAPI   H9R19604   2.230   2.865   9.747 -1.5780  0.7899 -0.9037
  173SAPI  C21019605   2.187   2.721   9.908 -0.0062 -0.6065  0.4402
  173SAPI  H10R19606   2.176   2.612   9.889  0.8548 -0.4852 -0.8778
  173SAPI  H10S19607   2.111   2.742   9.985  1.9939 -0.1214  2.3445
  173SAPI  C21119608   2.328   2.750   9.958  0.0749  0.2490 -0.4035
  173SAPI  H11R19609   2.325   2.836  10.026 -0.1666  2.1798 -2.7595
  173SAPI  C21219610   2.448   2.690   9.945 -0.7157  0.1915  0.2357
  173SAPI  H12R19611   2.533   2.729  10.004 -0.1583 -1.1906  0.3559
  173SAPI  C21319612   2.478   2.570   9.864  0.2377 -0.1831 -0.3499
  173SAPI  H13R19613   2.383   2.525   9.827  1.1021 -2.0445 -0.3774
  173SAPI  H13S19614   2.523   2.507   9.943  1.0284  0.8658  0.0445
  173SAPI  C21419615   2.585   2.606   9.755 -0.4226 -0.3141  0.1582
  173SAPI  H14R19616   2.651   2.693   9.767  0.4239 -1.0290  0.7193
  173SAPI  C21519617   2.591   2.543   9.638  0.1115 -0.6855  0.5151
  173SAPI  H15R19618   2.667   2.572   9.564 -0.2465 -0.6854  0.1493
  173SAPI  C21619619   2.512   2.431   9.588  0.6497  0.3994  0.3784
  173SAPI  H16R19620   2.466   2.376   9.673 -0.0776  0.5256  0.0672
  173SAPI  H16S19621   2.576   2.355   9.539 -0.1235 -0.0529  0.0724
  173SAPI  C21719622   2.399   2.493   9.494 -0.1836  0.2902  0.1493
  173SAPI  H17R19623   2.335   2.562   9.552 -0.1744 -0.9851  1.7190
  173SAPI  H17S19624   2.344   2.405   9.455 -1.4912  1.3410 -0.4265
  173SAPI  C21819625   2.431   2.568   9.367 -0.9041  0.2999  0.3299
  173SAPI  H18R19626   2.496   2.495   9.314 -0.8205  1.9532 -1.9219
  173SAPI  H18S19627   2.498   2.654   9.389 -2.3530  0.7328  3.2721
  173SAPI  C21919628   2.323   2.597   9.260  0.2855 -0.1274  0.1084
  173SAPI  H19R19629   2.284   2.496   9.235  0.3385 -0.4784  1.4008
  173SAPI  H19S19630   2.369   2.643   9.170  0.0235  0.6032  0.3356
  173SAPI  C22019631   2.217   2.698   9.316  0.3742 -0.3160  0.4837
  173SAPI  H20R19632   2.162   2.664   9.406 -0.9289 -2.2491 -0.9883
  173SAPI  H20S19633   2.144   2.714   9.233  0.8924  0.3466  0.1520
  173SAPI  H20T19634   2.264   2.791   9.353 -0.1113  0.5120 -0.9560
  173SAPI   C3319635   1.587   2.363  10.077 -0.5583 -0.1987  0.5698
  173SAPI   H3X19636   1.676   2.429  10.074 -1.1184  0.6090  1.5531
  173SAPI   H3Y19637   1.495   2.426  10.084 -0.1263  0.7760 -2.0105
  173SAPI   C3419638   1.583   2.285   9.945 -0.7012  0.1533  0.0999
  173SAPI   H4X19639   1.507   2.204   9.944 -0.8939  0.3116  1.5717
  173SAPI   H4Y19640   1.685   2.245   9.930 -1.2446 -1.7704  1.3916
  173SAPI   C3519641   1.531   2.369   9.822 -0.3232 -0.5806  0.8296
  173SAPI   H5X19642   1.588   2.464   9.817 -1.6976  0.1930 -0.4598
  173SAPI   H5Y19643   1.432   2.409   9.850  0.0750  1.0069 -0.0063
  173SAPI   C3619644   1.516   2.285   9.697 -0.6281 -0.1356 -0.0581
  173SAPI   H6X19645   1.448   2.200   9.718 -1.2739  0.5343  0.5794
  173SAPI   H6Y19646   1.609   2.237   9.659  0.7897 -0.2687  3.3379
  173SAPI   C3719647   1.462   2.353   9.565 -0.4744  0.0715  0.0336
  173SAPI   H7X19648   1.541   2.420   9.526 -1.7173  3.5176  3.0466
  173SAPI   H7Y19649   1.377   2.419   9.595  1.1006  1.5721  1.3082
  173SAPI   C3819650   1.433   2.247   9.468 -0.7187  0.0786  0.6554
  173SAPI   H8X19651   1.370   2.174   9.524  0.4839 -1.7240 -0.2686
  173SAPI   H8Y19652   1.527   2.189   9.450 -0.7153  0.0432  0.7841
  173SAPI   C3919653   1.373   2.303   9.346  0.3769 -0.1937  0.1634
  173SAPI   H9X19654   1.428   2.397   9.326  1.8320 -0.8499  0.9643
  173SAPI   H9Y19655   1.271   2.347   9.344  0.2491 -0.4802  0.3727
  173SAPI  C31019656   1.383   2.222   9.220 -0.2371  0.5454  0.0863
  173SAPI  H10X19657   1.343   2.119   9.234  0.0867  0.7729  2.9306
  173SAPI  H10Y19658   1.492   2.210   9.199  0.2621  1.1902  2.1630
  173SAPI  C31119659   1.314   2.290   9.102 -0.6810  0.1082  0.7214
  173SAPI  H11X19660   1.338   2.399   9.099 -0.7374  0.1230  0.8193
  173SAPI  H11Y19661   1.207   2.263   9.112 -0.6671 -0.8130 -1.3841
  173SAPI  C31219662   1.358   2.226   8.970 -0.2385 -0.6400 -0.6559
  173SAPI  H12X19663   1.468   2.228   8.960 -0.4269  1.6259 -2.7215
  173SAPI  H12Y19664   1.320   2.284   8.882 -0.1685 -0.8854 -0.8478
  173SAPI  C31319665   1.299   2.085   8.947  0.4779 -0.3256  0.5327
  173SAPI  H13X19666   1.329   2.026   9.036 -1.0423 -0.2980  1.0717
  173SAPI  H13Y19667   1.349   2.049   8.854  0.0598  0.4365  0.0115
  173SAPI  C31419668   1.145   2.061   8.928  0.2720 -0.3837 -0.2727
  173SAPI  H14X19669   1.099   2.124   8.849 -1.4151 -1.6205 -0.3093
  173SAPI  H14Y19670   1.093   2.071   9.026 -1.1932  1.1003 -1.1649
  173SAPI  C31519671   1.121   1.916   8.881  0.5306  0.2192  0.5857
  173SAPI  H15X19672   1.167   1.842   8.950 -1.0406  0.8481  2.3367
  173SAPI  H15Y19673   1.165   1.906   8.780  1.3884 -0.7298  1.0413
  173SAPI  C31619674   0.968   1.874   8.889  0.0302  0.6622  0.6327
  173SAPI  H16X19675   0.949   1.774   8.844  2.1048  1.1039 -1.3296
  173SAPI  H16Y19676   0.901   1.942   8.832  0.0760  1.6139  1.6993
  173SAPI  C31719677   0.928   1.853   9.031  0.5357  0.5572  0.5257
  173SAPI  H17X19678   0.933   1.952   9.081  0.8876 -0.6724  3.0082
  173SAPI  H17Y19679   1.001   1.789   9.085 -0.7058  0.1802  1.7845
  173SAPI  C31819680   0.789   1.792   9.055 -0.1416 -0.7036 -0.0804
  173SAPI  H18X19681   0.764   1.803   9.162  3.5433  1.4392  0.6457
  173SAPI  H18Y19682   0.801   1.684   9.035 -0.3556 -0.5948 -0.8434
  173SAPI  H18Z19683   0.723   1.840   8.979 -1.0980 -0.1343  1.0841
  174SAPI   C1219684   5.905   3.046  10.982 -0.1880  0.0959 -0.5521
  174SAPI    H219685   5.914   2.983  10.891  1.3343  1.0676 -1.0897
  174SAPI    O219686   5.947   2.969  11.093  0.2658  0.8574 -0.1059
  174SAPI   HO219687   5.873   2.925  11.135  0.7216 -0.0390 -0.2218
  174SAPI   C1319688   5.992   3.176  10.954 -0.3876  0.2916 -0.0952
  174SAPI    H319689   5.955   3.238  10.870 -0.1055  0.5021 -0.0616
  174SAPI    O319690   6.131   3.141  10.927  0.1442  0.4979  0.0374
  174SAPI   HO319691   6.161   3.087  11.000  1.5060 -0.1780 -0.9804
  174SAPI   C1419692   5.987   3.256  11.085 -1.4074 -0.2096  0.2142
  174SAPI    H419693   6.038   3.199  11.166 -1.0245  2.2262  1.7119
  174SAPI    O419694   6.063   3.377  11.067 -0.2917 -0.0202 -0.2675
  174SAPI   HO419695   6.116   3.385  11.147  1.3748  0.6163 -1.3999
  174SAPI   C1519696   5.844   3.295  11.127  0.0235 -0.1486  0.2912
  174SAPI    H519697   5.800   3.345  11.038 -2.2273  0.1327  1.5072
  174SAPI    O519698   5.839   3.385  11.240  0.3499  0.1944 -0.4393
  174SAPI   HO519699   5.810   3.473  11.216 -0.8652  0.8575  3.1268
  174SAPI   C1619700   5.755   3.170  11.132 -0.3596 -0.1164 -0.0705
  174SAPI    H619701   5.790   3.115  11.222 -1.9945  0.0405  0.6900
  174SAPI    O619702   5.618   3.214  11.161 -0.1780 -0.0274  0.5309
  174SAPI   HO619703   5.552   3.156  11.124  0.3859 -0.9198  0.9071
  174SAPI   C1119704   5.757   3.084  11.002  0.4730 -0.3217 -0.1091
  174SAPI    H119705   5.731   3.157  10.922 -0.9232  1.3690  1.8270
  174SAPI     P19706   5.524   2.965  10.942 -0.2494 -0.0922 -0.0209
  174SAPI   O1319707   5.468   3.095  10.990  0.0845 -0.6469  0.0857
  174SAPI   O1419708   5.467   2.837  10.986  0.0677  0.6514  0.2696
  174SAPI   O1219709   5.682   2.965  10.998  0.1580  0.2962  0.8755
  174SAPI   O1119710   5.529   2.957  10.783  0.3070 -0.8533  0.3292
  174SAPI    C119711   5.435   2.868  10.724  0.2399 -0.9023 -0.0646
  174SAPI    HA19712   5.446   2.760  10.749  3.3099 -0.5715  0.2031
  174SAPI    HB19713   5.331   2.893  10.754  0.3252  0.7740 -1.1084
  174SAPI    C219714   5.432   2.886  10.570 -0.5650  0.3633  0.1461
  174SAPI    HS19715   5.357   2.820  10.521  0.4521  1.0692 -2.3791
  174SAPI   O2119716   5.558   2.841  10.515 -0.2285 -0.1521  0.1989
  174SAPI   C2119717   5.581   2.717  10.517 -0.0503  0.2979  0.6610
  174SAPI   O2219718   5.508   2.628  10.562 -0.0075  0.3049 -0.2056
  174SAPI   C2219719   5.716   2.674  10.465  0.4013  0.0953 -0.3242
  174SAPI   H2R19720   5.751   2.769  10.421  1.3383 -0.7025 -1.3284
  174SAPI   H2S19721   5.786   2.645  10.546 -0.1448 -0.3067  0.0070
  174SAPI    C319722   5.385   3.019  10.513  0.0548 -0.0207  0.2116
  174SAPI    HX19723   5.471   3.085  10.490 -0.9175  1.0367 -0.4436
  174SAPI    HY19724   5.327   3.063  10.597 -1.0334 -0.2670 -0.3972
  174SAPI   O3119725   5.306   3.003  10.395 -0.9078 -0.2105 -0.6338
  174SAPI   C3119726   5.217   3.103  10.373 -0.0436  0.6003  0.1955
  174SAPI   O3219727   5.200   3.197  10.453  0.8790  0.3235 -0.0303
  174SAPI   C3219728   5.134   3.070  10.242  0.2648 -0.1416 -0.4985
  174SAPI   H2X19729   5.034   3.053  10.286  0.7080  2.0123  1.4553
  174SAPI   H2Y19730   5.176   2.980  10.193  1.6601 -0.1708  0.7087
  174SAPI   C2319731   5.686   2.571  10.352  0.3275  0.2945  1.0395
  174SAPI   H3R19732   5.653   2.471  10.389 -0.5832  0.2204  0.0649
  174SAPI   H3S19733   5.785   2.560  10.303  0.8273  1.3257  1.7939
  174SAPI   C2419734   5.577   2.612  10.249  0.3300  0.8553 -0.6004
  174SAPI   H4R19735   5.480   2.621  10.303  1.1400 -1.5343  1.3792
  174SAPI   H4S19736   5.571   2.536  10.168 -0.6910 -1.4019  1.5071
  174SAPI   C2519737   5.613   2.741  10.184  0.4263  0.4544  0.0544
  174SAPI   H5R19738   5.579   2.831  10.238  2.3621  0.6105  1.0551
  174SAPI   C2619739   5.677   2.751  10.063  0.4238  0.1113  0.1939
  174SAPI   H6R19740   5.687   2.848  10.011 -1.2730 -0.1171 -0.5696
  174SAPI   C2719741   5.729   2.630   9.988 -0.6368  0.0133  0.3810
  174SAPI   H7R19742   5.757   2.548  10.058 -1.0776  0.4807  1.1095
  174SAPI   H7S19743   5.823   2.657   9.936 -0.8916  0.9286  0.3954
  174SAPI   C2819744   5.627   2.570   9.897  0.2988 -0.1180 -0.2944
  174SAPI   H8R19745   5.534   2.547   9.951 -0.0692  1.1884 -0.3718
  174SAPI   C2919746   5.621   2.562   9.764 -0.0201  0.0393  0.0830
  174SAPI   H9R19747   5.528   2.516   9.727 -0.6761  1.5862 -0.2431
  174SAPI  C21019748   5.732   2.595   9.666 -0.5065 -0.5741 -0.3925
  174SAPI  H10R19749   5.834   2.592   9.710 -0.2634  0.4280 -0.8674
  174SAPI  H10S19750   5.721   2.703   9.643  1.8645 -0.5408 -1.5855
  174SAPI  C21119751   5.725   2.502   9.550 -0.3600 -0.1480 -0.1495
  174SAPI  H11R19752   5.723   2.396   9.580 -0.6068 -0.3496 -0.8782
  174SAPI  C21219753   5.717   2.545   9.421 -0.1179  0.7610  0.4977
  174SAPI  H12R19754   5.703   2.461   9.350 -1.7472  0.9205  0.6280
  174SAPI  C21319755   5.710   2.678   9.361 -0.3429  0.0587  0.0605
  174SAPI  H13R19756   5.758   2.752   9.429  1.7323 -0.5733 -0.6801
  174SAPI  H13S19757   5.602   2.706   9.354 -0.9527 -1.9611  0.9340
  174SAPI  C21419758   5.765   2.699   9.222  0.3183  0.4059 -0.2626
  174SAPI  H14R19759   5.873   2.723   9.222  0.9727 -2.4357 -0.5414
  174SAPI  C21519760   5.694   2.719   9.109  0.5756 -0.1567 -0.0916
  174SAPI  H15R19761   5.743   2.738   9.013  2.3452 -2.5171  0.2870
  174SAPI  C21619762   5.544   2.717   9.094  0.5831  0.0950  0.2228
  174SAPI  H16R19763   5.489   2.728   9.190 -1.6644 -0.5848 -0.9238
  174SAPI  H16S19764   5.507   2.621   9.054  0.2092  0.5537 -0.5540
  174SAPI  C21719765   5.491   2.829   8.998 -0.3807 -0.0007 -0.4349
  174SAPI  H17R19766   5.543   2.823   8.900 -0.4022  2.4304 -0.6251
  174SAPI  H17S19767   5.507   2.928   9.044  0.3268 -0.9553  1.4036
  174SAPI  C21819768   5.338   2.823   8.974  0.4084  0.6125 -1.1976
  174SAPI  H18R19769   5.289   2.840   9.072  1.5314  1.5484 -0.7937
  174SAPI  H18S19770   5.301   2.727   8.932  0.2513  0.4565 -0.7127
  174SAPI  C21919771   5.296   2.937   8.882 -0.0545  0.1047 -0.3746
  174SAPI  H19R19772   5.336   3.033   8.919 -0.9786 -0.4395  2.0871
  174SAPI  H19S19773   5.186   2.930   8.893 -0.0898 -0.2328 -0.8780
  174SAPI  C22019774   5.326   2.915   8.737 -0.1059  0.2757 -0.5073
  174SAPI  H20R19775   5.338   2.805   8.727  1.2298  0.5225 -1.8559
  174SAPI  H20S19776   5.426   2.954   8.708  1.7239 -1.7274  2.8739
  174SAPI  H20T19777   5.244   2.956   8.673  0.5523  3.6947  0.7206
  174SAPI   C3319778   5.130   3.203  10.162 -0.2281  0.1551 -0.0014
  174SAPI   H3X19779   5.232   3.246  10.168 -0.3799  0.4545  0.4889
  174SAPI   H3Y19780   5.068   3.276  10.218 -0.4391 -0.1581  0.1776
  174SAPI   C3419781   5.078   3.179  10.021  0.0523  0.1780 -0.1890
  174SAPI   H4X19782   4.971   3.150  10.031 -0.6929  2.3873 -1.3071
  174SAPI   H4Y19783   5.131   3.091   9.979 -0.3733  0.0734 -0.5187
  174SAPI   C3519784   5.089   3.299   9.934  0.2149 -0.2442 -0.4425
  174SAPI   H5X19785   5.197   3.316   9.914  0.1020  0.8373 -0.1248
  174SAPI   H5Y19786   5.053   3.392   9.981  2.8765  0.9097 -0.5969
  174SAPI   C3619787   5.030   3.276   9.797 -0.0016  0.0695  0.6338
  174SAPI   H6X19788   4.922   3.253   9.803  0.0522 -0.3306  0.0744
  174SAPI   H6Y19789   5.086   3.198   9.741  0.5475  0.9837 -0.1254
  174SAPI   C3719790   5.038   3.390   9.698 -0.0738 -0.2231 -0.2792
  174SAPI   H7X19791   5.146   3.409   9.681  0.0064 -0.6821 -0.2936
  174SAPI   H7Y19792   4.985   3.472   9.753 -1.3798 -1.0835 -0.2311
  174SAPI   C3819793   4.953   3.371   9.569 -0.0774  0.2986 -0.2153
  174SAPI   H8X19794   4.918   3.468   9.526  1.4459  0.3783 -1.3119
  174SAPI   H8Y19795   4.864   3.314   9.603  0.6061  0.7941  2.5025
  174SAPI   C3919796   5.040   3.301   9.463 -0.3469 -0.0952  0.1300
  174SAPI   H9X19797   5.090   3.208   9.499 -0.6080  0.1049  1.0221
  174SAPI   H9Y19798   5.122   3.370   9.434 -0.7129 -0.3935 -1.6607
  174SAPI  C31019799   4.965   3.283   9.332  0.6994  0.4613 -0.1909
  174SAPI  H10X19800   4.891   3.201   9.337  1.1904  0.1335  2.8872
  174SAPI  H10Y19801   5.036   3.239   9.258  0.9572  1.3124 -0.4574
  174SAPI  C31119802   4.912   3.420   9.276 -0.1605 -0.4771 -0.3302
  174SAPI  H11X19803   4.992   3.493   9.298 -2.2678  0.9579  2.8573
  174SAPI  H11Y19804   4.820   3.458   9.325  0.2366 -0.1010  0.1295
  174SAPI  C31219805   4.878   3.415   9.126 -0.7337  0.1630  0.6117
  174SAPI  H12X19806   4.977   3.402   9.077 -0.3332  1.9254  0.9197
  174SAPI  H12Y19807   4.833   3.515   9.110  1.1399  1.1381  1.2051
  174SAPI  C31319808   4.782   3.304   9.088 -0.5741  0.3975 -0.2365
  174SAPI  H13X19809   4.680   3.316   9.131  0.4444  1.1987  2.0461
  174SAPI  H13Y19810   4.824   3.206   9.118  1.3444  0.6758 -1.9036
  174SAPI  C31419811   4.765   3.305   8.938 -0.2226  0.4541  0.2639
  174SAPI  H14X19812   4.855   3.264   8.887 -1.7424 -2.0520 -0.5152
  174SAPI  H14Y19813   4.743   3.407   8.899  1.3216  1.0577  0.9171
  174SAPI  C31519814   4.652   3.216   8.893 -0.5757 -0.0520 -0.4644
  174SAPI  H15X19815   4.557   3.273   8.892  0.4412  1.6868 -1.1999
  174SAPI  H15Y19816   4.654   3.136   8.970  2.2294 -1.1586 -1.6142
  174SAPI  C31619817   4.686   3.146   8.759 -0.6538 -0.1689  0.4495
  174SAPI  H16X19818   4.636   3.047   8.755  0.8443 -0.9269  0.1317
  174SAPI  H16Y19819   4.791   3.112   8.743 -0.6982  0.3740 -1.1736
  174SAPI  C31719820   4.635   3.223   8.633  0.3572 -0.5279 -0.2016
  174SAPI  H17X19821   4.684   3.323   8.631 -0.2054 -0.2065  1.1314
  174SAPI  H17Y19822   4.529   3.251   8.652 -0.1863 -3.2481  1.0279
  174SAPI  C31819823   4.653   3.139   8.508  0.4108 -1.0931 -0.0615
  174SAPI  H18X19824   4.629   3.202   8.419  0.2008 -1.3048 -0.1574
  174SAPI  H18Y19825   4.587   3.049   8.513  0.3596 -1.1071 -0.8895
  174SAPI  H18Z19826   4.758   3.102   8.503  0.8239  0.2978 -3.1383
  175SAPI   C1219827   1.740   2.761   6.107 -0.2104 -0.2375  0.1336
  175SAPI    H219828   1.641   2.710   6.105  0.1803 -1.1628  2.4195
  175SAPI    O219829   1.824   2.706   6.008  0.3344  0.4436  0.0979
  175SAPI   HO219830   1.841   2.615   6.031  0.8315  0.8430  1.3475
  175SAPI   C1319831   1.718   2.910   6.082  0.9086  0.3667 -0.2023
  175SAPI    H319832   1.645   2.951   6.156 -1.7268 -1.2106 -1.8294
  175SAPI    O319833   1.661   2.941   5.954  0.4690  0.4513 -0.2310
  175SAPI   HO319834   1.572   2.905   5.951 -0.8887  3.6915 -0.9983
  175SAPI   C1419835   1.846   2.979   6.111 -0.3734 -0.6776 -0.3265
  175SAPI    H419836   1.917   2.941   6.035  0.8880  0.3982  0.2796
  175SAPI    O419837   1.826   3.121   6.083 -0.2418 -0.3000 -0.2503
  175SAPI   HO419838   1.749   3.147   6.135  0.9960  2.5662  0.2231
  175SAPI   C1519839   1.908   2.966   6.253 -0.5302 -0.1607 -0.7129
  175SAPI    H519840   1.835   3.009   6.325  0.2002  2.1337 -1.3210
  175SAPI    O519841   2.030   3.040   6.269  0.5314  0.0554 -0.5950
  175SAPI   HO519842   2.014   3.109   6.334  0.4078 -0.8513  0.3549
  175SAPI   C1619843   1.929   2.817   6.273 -0.5130 -0.3284  0.0167
  175SAPI    H619844   2.006   2.786   6.200 -1.3915  2.4641 -2.2119
  175SAPI    O619845   1.973   2.792   6.405  0.7863  0.1253  0.0323
  175SAPI   HO619846   1.937   2.704   6.419 -0.0321  0.4114 -0.2595
  175SAPI   C1119847   1.799   2.737   6.248 -0.1874 -0.0720  0.0724
  175SAPI    H119848   1.721   2.773   6.319 -0.9890  0.4603 -1.0692
  175SAPI     P19849   1.729   2.494   6.366 -0.4225  0.0720  0.0860
  175SAPI   O1319850   1.789   2.358   6.350  0.3444  0.0791 -0.1419
  175SAPI   O1419851   1.594   2.510   6.314 -0.2063 -0.5711  0.1875
  175SAPI   O1219852   1.829   2.599   6.284  0.2500  0.1822 -0.5265
  175SAPI   O1119853   1.740   2.540   6.513  0.3569  0.2840  0.2122
  175SAPI    C119854   1.855   2.505   6.588  0.6285 -0.9392  0.2900
  175SAPI    HA19855   1.938   2.463   6.526  3.0076  1.2593  1.8690
  175SAPI    HB19856   1.890   2.597   6.639 -1.2214  0.6612 -1.2518
  175SAPI    C219857   1.815   2.404   6.700  0.1693 -0.3237 -0.3587
  175SAPI    HS19858   1.780   2.308   6.657 -1.3600 -2.2537  4.8921
  175SAPI   O2119859   1.704   2.449   6.786  0.1108 -0.0708  0.4029
  175SAPI   C2119860   1.581   2.428   6.737 -0.4109  0.3182 -0.3592
  175SAPI   O2219861   1.553   2.359   6.642 -0.0981  0.5715  0.5750
  175SAPI   C2219862   1.470   2.512   6.813  0.1421  0.5206  0.0584
  175SAPI   H2R19863   1.414   2.448   6.885  1.3675  1.0926  1.5273
  175SAPI   H2S19864   1.525   2.589   6.870  1.3892 -0.5399  0.3328
  175SAPI    C319865   1.937   2.369   6.801 -0.7113 -0.1232  0.5220
  175SAPI    HX19866   1.992   2.466   6.802  0.9730 -0.8811 -4.1124
  175SAPI    HY19867   1.988   2.291   6.741  2.2395  1.1269  1.2714
  175SAPI   O3119868   1.900   2.306   6.921  0.4682 -0.0941 -0.0311
  175SAPI   C3119869   1.879   2.397   7.018 -0.2897  0.4465  0.3789
  175SAPI   O3219870   1.910   2.516   7.011 -0.5203 -0.2204 -0.3484
  175SAPI   C3219871   1.809   2.338   7.137  0.3710  0.9505  0.7825
  175SAPI   H2X19872   1.842   2.235   7.162  4.2055  1.9453  0.1647
  175SAPI   H2Y19873   1.700   2.341   7.114  0.6959  0.8349 -0.8581
  175SAPI   C2319874   1.367   2.573   6.717 -0.7714 -0.6657  0.3086
  175SAPI   H3R19875   1.343   2.506   6.631 -0.2574  0.3071 -0.5956
  175SAPI   H3S19876   1.424   2.659   6.675 -0.5282 -0.4973  0.9896
  175SAPI   C2419877   1.240   2.626   6.791  0.1184  0.0031 -0.0182
  175SAPI   H4R19878   1.178   2.537   6.818  3.4158 -2.5131 -0.4927
  175SAPI   H4S19879   1.172   2.682   6.723 -2.8408  0.2604  3.0228
  175SAPI   C2519880   1.279   2.719   6.907 -0.7683  0.8619  0.0254
  175SAPI   H5R19881   1.319   2.812   6.864 -1.6471  0.1342 -2.4319
  175SAPI   C2619882   1.275   2.702   7.036  0.3122  0.4693 -0.0608
  175SAPI   H6R19883   1.289   2.794   7.094 -1.9535  0.9589 -0.2444
  175SAPI   C2719884   1.216   2.590   7.117 -0.1627 -0.4658 -0.0615
  175SAPI   H7R19885   1.152   2.529   7.050 -0.1658  0.1254 -0.5984
  175SAPI   H7S19886   1.144   2.634   7.189  0.5846  0.6884 -0.0114
  175SAPI   C2819887   1.320   2.520   7.191 -0.5269  0.1391 -0.8874
  175SAPI   H8R19888   1.355   2.431   7.137 -0.5032  0.8573 -2.0806
  175SAPI   C2919889   1.386   2.553   7.308 -0.0442 -0.5658  0.3822
  175SAPI   H9R19890   1.455   2.477   7.346 -1.0596 -1.1457  1.0722
  175SAPI  C21019891   1.365   2.682   7.389  0.0905 -0.2197  0.2251
  175SAPI  H10R19892   1.292   2.752   7.343  0.1445 -0.6058 -0.4482
  175SAPI  H10S19893   1.459   2.742   7.390 -0.3604  0.4911  1.4038
  175SAPI  C21119894   1.318   2.640   7.525  1.3405 -0.5839 -0.1508
  175SAPI  H11R19895   1.233   2.570   7.527  2.4365 -1.9051  1.8708
  175SAPI  C21219896   1.364   2.681   7.641 -0.2663 -0.4458  0.0919
  175SAPI  H12R19897   1.311   2.658   7.735  0.7543 -1.4007  0.4395
  175SAPI  C21319898   1.475   2.779   7.671  0.5380  0.3894  0.2130
  175SAPI  H13R19899   1.505   2.831   7.577  0.6276 -1.4162 -0.7860
  175SAPI  H13S19900   1.562   2.719   7.705 -0.0958 -1.0167 -0.6268
  175SAPI  C21419901   1.431   2.879   7.770  0.7116 -0.1671  0.2691
  175SAPI  H14R19902   1.404   2.974   7.722  0.9475 -0.1411  0.1831
  175SAPI  C21519903   1.420   2.857   7.900 -0.1952 -0.5989 -0.8601
  175SAPI  H15R19904   1.389   2.940   7.966  0.4785 -1.9169  1.1344
  175SAPI  C21619905   1.462   2.732   7.974  0.3872 -0.1997 -0.6569
  175SAPI  H16R19906   1.572   2.741   7.981  0.2418  2.3734 -1.2413
  175SAPI  H16S19907   1.438   2.630   7.936  1.5571 -1.8330  2.7772
  175SAPI  C21719908   1.406   2.727   8.119 -0.6153  0.6879  0.3131
  175SAPI  H17R19909   1.297   2.711   8.129 -0.6273  0.1198 -0.6987
  175SAPI  H17S19910   1.443   2.819   8.170  2.8898 -0.9861  0.9912
  175SAPI  C21819911   1.477   2.601   8.188  0.0356  0.2277  0.7726
  175SAPI  H18R19912   1.585   2.594   8.164  0.1354  0.7989  1.0331
  175SAPI  H18S19913   1.427   2.507   8.155  3.2077 -1.0900 -0.4164
  175SAPI  C21919914   1.462   2.610   8.342  0.2085  0.4878 -0.5271
  175SAPI  H19R19915   1.488   2.702   8.400 -2.2885  2.4583 -2.3768
  175SAPI  H19S19916   1.514   2.521   8.382 -0.3568  1.0782  1.5570
  175SAPI  C22019917   1.312   2.610   8.375 -0.6433  0.6440  0.1581
  175SAPI  H20R19918   1.266   2.703   8.334 -0.0931  1.1484  0.6747
  175SAPI  H20S19919   1.302   2.610   8.486  1.8183 -1.1845  0.4085
  175SAPI  H20T19920   1.251   2.522   8.346  2.7092 -2.3082  1.8270
  175SAPI   C3319921   1.824   2.434   7.260 -0.5810 -0.5439 -0.5627
  175SAPI   H3X19922   1.764   2.525   7.240 -2.7311 -2.3032 -2.4284
  175SAPI   H3Y19923   1.926   2.478   7.261 -0.6094 -0.4937  0.2458
  175SAPI   C3419924   1.811   2.359   7.388  0.3428 -0.3822 -0.8061
  175SAPI   H4X19925   1.889   2.281   7.401  0.0717 -0.7276 -1.2444
  175SAPI   H4Y19926   1.713   2.307   7.397  0.1683  0.4030  2.5942
  175SAPI   C3519927   1.821   2.453   7.508 -0.5892  0.2780 -0.1136
  175SAPI   H5X19928   1.718   2.491   7.521 -0.8974 -0.4385 -0.4984
  175SAPI   H5Y19929   1.898   2.534   7.498 -0.4926  0.3003  0.7969
  175SAPI   C3619930   1.847   2.382   7.645  0.5294 -0.2080  0.0257
  175SAPI   H6X19931   1.956   2.363   7.645  0.7543  0.9561 -2.1521
  175SAPI   H6Y19932   1.800   2.283   7.633  1.1364 -0.4943 -0.0022
  175SAPI   C3719933   1.794   2.458   7.767  0.0076 -0.1259 -0.1421
  175SAPI   H7X19934   1.684   2.468   7.753 -0.0297 -1.4675 -0.9060
  175SAPI   H7Y19935   1.840   2.559   7.769 -0.8064  0.2669 -0.8966
  175SAPI   C3819936   1.837   2.386   7.894 -0.2764  0.0730  0.5942
  175SAPI   H8X19937   1.944   2.359   7.890 -0.3013  0.0554 -0.0522
  175SAPI   H8Y19938   1.785   2.288   7.898  0.6411 -0.4412 -0.0914
  175SAPI   C3919939   1.814   2.464   8.022 -0.5355 -0.1840 -0.4879
  175SAPI   H9X19940   1.706   2.486   8.033 -0.2048 -0.0523  3.0863
  175SAPI   H9Y19941   1.864   2.564   8.016 -1.8045  0.4797 -0.1375
  175SAPI  C31019942   1.848   2.394   8.153 -0.2148  0.7519  0.2750
  175SAPI  H10X19943   1.818   2.474   8.224  1.0989  1.0104  0.5490
  175SAPI  H10Y19944   1.957   2.374   8.153 -0.5448 -1.2710  2.2225
  175SAPI  C31119945   1.763   2.270   8.185  0.7563 -0.1475 -0.0867
  175SAPI  H11X19946   1.789   2.188   8.114  0.9674  1.0850 -1.4584
  175SAPI  H11Y19947   1.657   2.295   8.162  0.2267 -0.5829  1.7987
  175SAPI  C31219948   1.781   2.220   8.328  0.1909 -0.5156  0.5110
  175SAPI  H12X19949   1.755   2.295   8.405 -2.9978 -1.1772  0.1339
  175SAPI  H12Y19950   1.891   2.206   8.343  0.5676  0.6228 -0.9969
  175SAPI  C31319951   1.707   2.091   8.382  0.5445  0.1104  0.6692
  175SAPI  H13X19952   1.601   2.090   8.347 -0.7106 -0.2396  4.2257
  175SAPI  H13Y19953   1.696   2.090   8.493  0.7513  1.3271  0.7078
  175SAPI  C31419954   1.767   1.957   8.331  0.3708  0.5799 -0.4941
  175SAPI  H14X19955   1.790   1.963   8.222  0.3158  0.4115 -0.5146
  175SAPI  H14Y19956   1.691   1.876   8.333  0.8819  0.0978 -0.7788
  175SAPI  C31519957   1.906   1.922   8.398  0.1990  0.1928 -0.3891
  175SAPI  H15X19958   1.947   2.013   8.447  1.6339 -0.7940  0.2827
  175SAPI  H15Y19959   1.968   1.892   8.311  1.9332 -2.3869  1.6510
  175SAPI  C31619960   1.888   1.801   8.492  0.3208  0.1157  0.7493
  175SAPI  H16X19961   1.804   1.739   8.453  1.4680 -1.5051  0.8038
  175SAPI  H16Y19962   1.856   1.846   8.588  0.1324 -1.5424  1.4910
  175SAPI  C31719963   2.016   1.732   8.534  0.3285 -0.3112  0.1292
  175SAPI  H17X19964   2.080   1.799   8.597 -2.2248  0.5573  1.9094
  175SAPI  H17Y19965   2.079   1.708   8.446 -0.4837 -0.2176 -0.4815
  175SAPI  C31819966   1.974   1.614   8.616  0.3317 -0.8742 -0.3363
  175SAPI  H18X19967   1.942   1.662   8.711 -0.7402 -1.6445 -0.2985
  175SAPI  H18Y19968   2.062   1.550   8.640  2.1825  1.4965 -0.6239
  175SAPI  H18Z19969   1.892   1.561   8.565  1.5615 -1.3491 -1.8467
  176SAPI   C1219970   1.282   0.578   6.298  1.1595  0.1726 -0.6649
  176SAPI    H219971   1.288   0.678   6.345  1.3711 -1.1199  2.1140
  176SAPI    O219972   1.201   0.482   6.364 -0.4945 -0.3933  0.1976
  176SAPI   HO219973   1.159   0.536   6.431  0.0041  1.4986 -0.9476
  176SAPI   C1319974   1.246   0.602   6.153 -0.0859  0.2156 -0.1479
  176SAPI    H319975   1.324   0.663   6.102  1.2778 -2.9421 -1.9878
  176SAPI    O319976   1.123   0.675   6.153 -0.7819 -0.0134 -0.1725
  176SAPI   HO319977   1.059   0.639   6.214  0.4766 -2.5888 -0.2793
  176SAPI   C1419978   1.240   0.478   6.071 -0.1297  0.2287 -0.5844
  176SAPI    H419979   1.168   0.407   6.118 -0.4158  1.0442  0.2365
  176SAPI    O419980   1.193   0.499   5.939  0.3883 -0.1039  0.2921
  176SAPI   HO419981   1.097   0.490   5.940  0.5970 -3.3639 -1.6850
  176SAPI   C1519982   1.383   0.414   6.074 -0.3101  0.0958  0.5259
  176SAPI    H519983   1.449   0.494   6.036  1.0338 -1.0492  0.4113
  176SAPI    O519984   1.393   0.294   5.993 -0.0179 -0.1902  0.2324
  176SAPI   HO519985   1.481   0.298   5.954  0.5900  0.1976  1.6099
  176SAPI   C1619986   1.419   0.392   6.219 -0.3243  1.1626 -0.7374
  176SAPI    H619987   1.354   0.314   6.263  0.8366 -0.8659 -2.4878
  176SAPI    O619988   1.552   0.329   6.220  0.2473 -0.3549  0.3232
  176SAPI   HO619989   1.560   0.289   6.307 -1.2065  0.4838  0.8698
  176SAPI   C1119990   1.425   0.521   6.307 -0.3288 -0.4073 -0.2540
  176SAPI    H119991   1.496   0.583   6.248  0.6152 -1.6307 -0.4236
  176SAPI     P19992   1.552   0.629   6.521 -0.2660 -0.2813  0.0841
  176SAPI   O1319993   1.554   0.755   6.439  0.3117 -0.0545 -0.1223
  176SAPI   O1419994   1.675   0.581   6.584 -0.4458  0.0110  0.3731
  176SAPI   O1219995   1.483   0.508   6.435 -0.2420 -0.8392  0.3665
  176SAPI   O1119996   1.439   0.636   6.629  0.3857 -0.2219  0.2560
  176SAPI    C119997   1.426   0.532   6.725 -0.0237 -0.1419  0.2186
  176SAPI    HA19998   1.374   0.445   6.679  0.8323 -0.7947  0.4823
  176SAPI    HB19999   1.529   0.508   6.760  0.1243  0.8441  0.4868
  176SAPI    C220000   1.351   0.572   6.856 -0.3695  0.0665 -0.1494
  176SAPI    HS20001   1.354   0.495   6.936  1.8583  1.9641  1.6518
  176SAPI   O2120002   1.218   0.614   6.821  0.3817 -0.8931 -0.1730
  176SAPI   C2120003   1.139   0.525   6.784 -0.1170  0.7657 -0.6317
  176SAPI   O2220004   1.151   0.403   6.795 -0.5536  0.6266  0.1475
  176SAPI   C2220005   1.000   0.586   6.752  0.1418 -0.0044 -0.3424
  176SAPI   H2R20006   1.004   0.696   6.768 -0.0946  0.0923 -0.9505
  176SAPI   H2S20007   0.967   0.555   6.651 -2.0373  0.9961  0.0133
  176SAPI    C320008   1.425   0.699   6.914 -0.4213  0.4287 -0.8486
  176SAPI    HX20009   1.428   0.780   6.839  3.0111  1.1691  0.0221
  176SAPI    HY20010   1.531   0.669   6.930 -0.0753  1.3903 -1.3343
  176SAPI   O3120011   1.362   0.753   7.037 -0.0165 -0.2375  0.4447
  176SAPI   C3120012   1.318   0.878   7.035  0.7977 -1.2615 -0.5943
  176SAPI   O3220013   1.305   0.951   6.937 -0.5411  0.2159  0.6222
  176SAPI   C3220014   1.269   0.917   7.174  0.5899  0.2954  0.2818
  176SAPI   H2X20015   1.336   0.864   7.245  0.8901  0.0868 -0.1510
  176SAPI   H2Y20016   1.163   0.886   7.178  1.3451 -2.7952 -1.6931
  176SAPI   C2320017   0.889   0.533   6.855 -0.4094 -0.2279 -0.1779
  176SAPI   H3R20018   0.903   0.426   6.880  0.8491 -0.0876 -0.2651
  176SAPI   H3S20019   0.788   0.543   6.811  0.1543  1.4366 -1.1373
  176SAPI   C2420020   0.875   0.626   6.978 -0.2573  0.3820 -0.3266
  176SAPI   H4R20021   0.778   0.604   7.027 -1.2712 -0.8736 -2.8064
  176SAPI   H4S20022   0.874   0.731   6.941 -0.9708  1.0964  1.6384
  176SAPI   C2520023   0.990   0.612   7.086  0.4948 -0.3150  0.0696
  176SAPI   H5R20024   1.084   0.578   7.040 -0.1415  0.9075 -2.2385
  176SAPI   C2620025   0.973   0.624   7.222 -0.3003 -0.5833 -0.1432
  176SAPI   H6R20026   1.060   0.595   7.284 -1.3808  0.0302  1.7042
  176SAPI   C2720027   0.843   0.655   7.299  0.3407  0.4621  0.3694
  176SAPI   H7R20028   0.797   0.560   7.336  2.4100 -0.2126  1.2612
  176SAPI   H7S20029   0.769   0.710   7.237  0.2738  1.2593  1.1586
  176SAPI   C2820030   0.861   0.746   7.419  0.5711  0.9077 -0.2724
  176SAPI   H8R20031   0.886   0.849   7.389  0.7314  1.2553  1.0490
  176SAPI   C2920032   0.860   0.718   7.551 -0.9090 -0.2021 -0.6294
  176SAPI   H9R20033   0.866   0.800   7.623 -0.7857 -0.4265 -0.3847
  176SAPI  C21020034   0.827   0.583   7.611  0.7689 -0.1110  0.4617
  176SAPI  H10R20035   0.923   0.549   7.653  1.1421 -0.5616 -0.7217
  176SAPI  H10S20036   0.800   0.512   7.529  0.1242  0.5035  0.1352
  176SAPI  C21120037   0.709   0.596   7.703 -1.0743  0.5571 -0.5156
  176SAPI  H11R20038   0.615   0.637   7.663 -0.4242  2.2556 -0.3593
  176SAPI  C21220039   0.708   0.553   7.827  0.1967  0.4796  0.3654
  176SAPI  H12R20040   0.614   0.554   7.885  1.4173 -0.2864  2.4079
  176SAPI  C21320041   0.820   0.487   7.908 -0.3410  0.0149 -0.4633
  176SAPI  H13R20042   0.837   0.556   7.993 -2.4663  0.3395 -0.2508
  176SAPI  H13S20043   0.911   0.491   7.845 -0.5515  0.6791 -0.7399
  176SAPI  C21420044   0.798   0.345   7.959  0.4916  0.0743  0.0040
  176SAPI  H14R20045   0.830   0.257   7.901 -3.1127 -1.3125  0.0082
  176SAPI  C21520046   0.719   0.309   8.070  0.6456 -0.3948  0.3273
  176SAPI  H15R20047   0.709   0.203   8.098  0.9353 -0.6490 -0.5438
  176SAPI  C21620048   0.649   0.411   8.159 -0.0312  0.0277 -0.2576
  176SAPI  H16R20049   0.683   0.515   8.137 -0.2820 -0.0959 -1.2767
  176SAPI  H16S20050   0.671   0.392   8.266  3.6560 -1.3879 -1.1902
  176SAPI  C21720051   0.506   0.420   8.136  0.6620 -0.4749  0.2678
  176SAPI  H17R20052   0.460   0.320   8.154  0.5959 -0.3112  0.9940
  176SAPI  H17S20053   0.472   0.429   8.031  0.5378 -1.1495  0.2445
  176SAPI  C21820054   0.453   0.543   8.212  0.6206  0.0677 -0.1340
  176SAPI  H18R20055   0.352   0.568   8.175  0.2669 -2.4277 -1.0085
  176SAPI  H18S20056   0.510   0.636   8.190 -0.8144  0.6344 -1.5248
  176SAPI  C21920057   0.423   0.520   8.359  0.4114  0.6444 -0.0079
  176SAPI  H19R20058   0.522   0.508   8.409  0.5461  0.8038 -0.2354
  176SAPI  H19S20059   0.360   0.429   8.371  0.3694  0.8003  1.0379
  176SAPI  C22020060   0.351   0.634   8.431 -0.0703  0.2300 -0.0754
  176SAPI  H20R20061   0.283   0.603   8.513 -0.4546  1.3130  0.0224
  176SAPI  H20S20062   0.281   0.684   8.360 -1.6315  0.6060  1.7021
  176SAPI  H20T20063   0.421   0.710   8.471 -0.2550 -0.0718  0.8333
  176SAPI   C3320064   1.273   1.069   7.201 -0.8646 -0.1222 -1.0016
  176SAPI   H3X20065   1.215   1.138   7.136 -1.7692  0.0081 -0.0654
  176SAPI   H3Y20066   1.378   1.101   7.181 -1.0514  1.1775 -0.0416
  176SAPI   C3420067   1.241   1.106   7.353 -0.8840 -0.3579 -0.6472
  176SAPI   H4X20068   1.250   1.213   7.378  1.3849 -0.1670 -2.1633
  176SAPI   H4Y20069   1.322   1.056   7.411 -0.9272 -1.3273 -1.4071
  176SAPI   C3520070   1.104   1.062   7.402 -0.1873  0.1703 -0.0837
  176SAPI   H5X20071   1.096   0.957   7.367 -1.3623 -0.2720  1.4681
  176SAPI   H5Y20072   1.025   1.118   7.348  1.0357  0.9974 -1.0682
  176SAPI   C3620073   1.091   1.063   7.553 -0.5978  0.3298  0.2074
  176SAPI   H6X20074   0.987   1.028   7.573  0.2640 -3.1063 -0.9205
  176SAPI   H6Y20075   1.088   1.168   7.587 -2.1816  0.4548 -0.2654
  176SAPI   C3720076   1.190   0.976   7.633 -0.9381  0.8229  0.0839
  176SAPI   H7X20077   1.285   1.033   7.619  0.3066 -1.4007 -0.8740
  176SAPI   H7Y20078   1.203   0.879   7.580 -1.3465  0.4122  0.7315
  176SAPI   C3820079   1.162   0.954   7.780  0.1948  0.3163 -0.0503
  176SAPI   H8X20080   1.083   0.877   7.793  1.4396 -0.9260  0.3046
  176SAPI   H8Y20081   1.127   1.050   7.824 -1.8679 -0.6304  0.4200
  176SAPI   C3920082   1.287   0.915   7.862  0.9128 -0.1152  0.8499
  176SAPI   H9X20083   1.374   0.984   7.866 -0.3775  1.6321 -0.1500
  176SAPI   H9Y20084   1.327   0.823   7.814  1.9411  1.2109 -0.8946
  176SAPI  C31020085   1.249   0.874   8.003 -0.4084 -0.4275  0.6508
  176SAPI  H10X20086   1.168   0.799   8.007  0.9958 -2.0024 -0.1863
  176SAPI  H10Y20087   1.203   0.970   8.038  2.5490  1.1875  0.3176
  176SAPI  C31120088   1.369   0.832   8.085  0.7221 -0.7735 -0.5281
  176SAPI  H11X20089   1.449   0.909   8.089  1.2157 -1.2969 -0.3779
  176SAPI  H11Y20090   1.415   0.737   8.050  3.0014 -0.6452  1.9570
  176SAPI  C31220091   1.332   0.801   8.239  0.2080 -0.0978  0.4730
  176SAPI  H12X20092   1.274   0.880   8.292 -0.3175 -0.4466  0.4132
  176SAPI  H12Y20093   1.432   0.786   8.285  0.7151 -1.2406 -0.9597
  176SAPI  C31320094   1.244   0.681   8.270 -0.3470  0.5302 -0.1580
  176SAPI  H13X20095   1.270   0.638   8.369 -2.7942  0.7556  0.6039
  176SAPI  H13Y20096   1.275   0.605   8.195 -0.3661 -0.3345  0.7018
  176SAPI  C31420097   1.101   0.725   8.280 -0.2613 -1.0407  0.7678
  176SAPI  H14X20098   1.074   0.799   8.202 -2.5835 -0.9364  1.6133
  176SAPI  H14Y20099   1.098   0.784   8.374 -0.8407  3.7492 -2.1276
  176SAPI  C31520100   1.003   0.615   8.298 -0.0604 -0.0823 -0.7294
  176SAPI  H15X20101   1.041   0.530   8.358  1.2176  0.1598 -1.1803
  176SAPI  H15Y20102   0.973   0.564   8.203  0.8462 -4.6373  1.2653
  176SAPI  C31620103   0.872   0.666   8.363 -0.2710 -0.3734 -0.3815
  176SAPI  H16X20104   0.898   0.686   8.469  2.5863 -1.4739 -0.8375
  176SAPI  H16Y20105   0.800   0.582   8.353 -1.4462  0.7280 -1.3606
  176SAPI  C31720106   0.817   0.792   8.295  0.6642  0.2332  0.0583
  176SAPI  H17X20107   0.786   0.764   8.192  0.0223  2.2535 -0.3139
  176SAPI  H17Y20108   0.897   0.869   8.297 -1.2210  2.2144  1.0759
  176SAPI  C31820109   0.690   0.863   8.349  0.0451 -0.2353 -0.7638
  176SAPI  H18X20110   0.654   0.929   8.267  0.5495 -0.0348 -0.8248
  176SAPI  H18Y20111   0.710   0.940   8.428 -0.4923  0.8629 -1.6797
  176SAPI  H18Z20112   0.616   0.785   8.376  0.6779 -0.4464  0.4253
  177SLPC     N20113   0.355   3.208  10.695  0.8493 -0.2007  0.2255
  177SLPC   C1320114   0.501   3.192  10.650  0.4007  0.3741  0.2025
  177SLPC  H13A20115   0.565   3.275  10.677  2.5269 -0.9022 -0.8135
  177SLPC  H13B20116   0.553   3.114  10.704  1.2385  1.1312  0.5092
  177SLPC  H13C20117   0.501   3.159  10.548 -1.6573 -1.1544  0.6519
  177SLPC   C1420118   0.369   3.248  10.836 -0.3761 -0.2311  0.3140
  177SLPC  H14A20119   0.443   3.187  10.885  0.6163 -0.0727 -0.9460
  177SLPC  H14B20120   0.394   3.353  10.845 -2.1638  0.3360 -1.0484
  177SLPC  H14C20121   0.273   3.227  10.880 -1.0014 -1.5203 -1.5957
  177SLPC   C1520122   0.291   3.076  10.686 -0.3887 -0.7337  0.2694
  177SLPC  H15A20123   0.313   3.038  10.587  1.2375 -1.0375  0.7423
  177SLPC  H15B20124   0.315   3.014  10.771  1.4860  0.6125  0.7609
  177SLPC  H15C20125   0.185   3.098  10.689 -0.9074 -3.2712  1.0932
  177SLPC   C1220126   0.279   3.309  10.606 -0.4118 -0.0331  0.0595
  177SLPC  H12A20127   0.177   3.295  10.638 -0.4191 -2.5913 -0.9580
  177SLPC  H12B20128   0.261   3.282  10.503  1.8322 -2.3290  0.2226
  177SLPC   C1120129   0.333   3.463  10.613 -0.0973 -0.3089 -0.7052
  177SLPC  H11A20130   0.248   3.514  10.563 -0.9213 -1.0464 -0.0573
  177SLPC  H11B20131   0.416   3.458  10.540  0.3147 -1.5022 -0.1670
  177SLPC     P20132   0.297   3.624  10.830  0.3884 -0.0197 -0.7155
  177SLPC   O1320133   0.161   3.574  10.863 -0.3234 -0.2425 -1.0447
  177SLPC   O1420134   0.382   3.659  10.947 -0.7799 -0.5324 -0.2516
  177SLPC   O1220135   0.378   3.518  10.737  0.6833  0.2570 -0.2046
  177SLPC   O1120136   0.303   3.740  10.717 -0.1337 -0.0969 -0.0642
  177SLPC    C120137   0.411   3.837  10.721 -0.2742 -0.1825  0.0882
  177SLPC    HA20138   0.409   3.916  10.799  2.4463 -1.0466  1.1131
  177SLPC    HB20139   0.509   3.788  10.737  1.1483  1.8156 -2.2274
  177SLPC    C220140   0.427   3.907  10.584  0.3464  0.2888  0.0804
  177SLPC    HS20141   0.522   3.965  10.579 -0.4898  1.6429 -0.3697
  177SLPC   O2120142   0.311   3.988  10.556 -0.0012  0.1515  0.3587
  177SLPC   C2120143   0.334   4.120  10.585 -0.2611  0.4419  0.7726
  177SLPC   O2220144   0.442   4.159  10.627 -0.2863 -0.1109 -0.1207
  177SLPC   C2220145   0.211   4.204  10.560 -0.1054 -0.1796 -0.2153
  177SLPC   H2R20146   0.133   4.141  10.512 -0.1291  1.0450 -1.8279
  177SLPC   H2S20147   0.167   4.248  10.653 -0.3781  1.2096 -0.9865
  177SLPC    C320148   0.442   3.804  10.470 -0.1916  0.1437  0.4728
  177SLPC    HX20149   0.366   3.723  10.477  1.2053 -1.4735 -2.3698
  177SLPC    HY20150   0.542   3.758  10.489 -0.9820 -1.6200  0.5065
  177SLPC   O3120151   0.447   3.868  10.340 -0.2028 -0.3600 -0.2193
  177SLPC   C3120152   0.327   3.867  10.276 -0.4033 -0.2580  0.0673
  177SLPC   O3220153   0.220   3.828  10.325 -0.7379  0.3446  0.8526
  177SLPC   C3220154   0.363   3.925  10.138  0.5021  0.7622  0.3506
  177SLPC   H2X20155   0.440   3.858  10.092 -2.1797 -0.9280 -1.8223
  177SLPC   H2Y20156   0.400   4.029  10.142  2.2552  0.1376  0.8821
  177SLPC   C2320157   0.251   4.320  10.463  0.7003 -0.2720 -0.3211
  177SLPC   H3R20158   0.341   4.373  10.501  1.9937 -1.3700 -1.7777
  177SLPC   H3S20159   0.173   4.398  10.452  1.2678  0.0051 -2.7374
  177SLPC   C2420160   0.283   4.283  10.317  0.0778 -0.6967 -0.1449
  177SLPC   H4R20161   0.361   4.204  10.322 -0.7813 -1.5570 -0.2495
  177SLPC   H4S20162   0.330   4.370  10.267 -0.5221 -0.9224 -1.0986
  177SLPC   C2520163   0.161   4.245  10.235  0.7502  0.9079 -0.1625
  177SLPC   H5R20164   0.074   4.309  10.265 -0.9183 -0.7378 -1.3866
  177SLPC   H5S20165   0.123   4.144  10.261 -1.2910  1.2557 -1.6004
  177SLPC   C2620166   0.164   4.272  10.091 -0.1533  0.6826 -0.3470
  177SLPC   H6R20167   0.070   4.234  10.045  0.9099  1.3765 -3.1638
  177SLPC   H6S20168   0.240   4.205  10.045 -1.2250  0.2799 -1.5597
  177SLPC   C2720169   0.190   4.421  10.045  0.0724  0.3851 -0.1061
  177SLPC   H7R20170   0.300   4.431  10.043  0.1929 -1.0745 -1.2046
  177SLPC   H7S20171   0.136   4.488  10.115  2.6585  0.7738  1.5758
  177SLPC   C2820172   0.134   4.442   9.906 -0.1274  0.6202 -0.0961
  177SLPC   H8R20173   0.130   4.550   9.880 -1.9728  0.5198 -0.3071
  177SLPC   H8S20174   0.027   4.414   9.920 -0.7535  2.1559 -1.6143
  177SLPC   C2920175   0.188   4.349   9.798 -0.8938 -0.6866  0.1090
  177SLPC   H9R20176   0.215   4.250   9.837 -1.2865 -2.2758 -3.4486
  177SLPC  C21020177   0.217   4.383   9.667  0.1097 -0.2063 -0.2458
  177SLPC  H10R20178   0.250   4.299   9.603  1.1971 -1.1038  1.4327
  177SLPC  C21120179   0.194   4.517   9.609 -0.3382 -0.5398 -0.0420
  177SLPC  H11R20180   0.210   4.601   9.679  0.0867 -0.2406 -0.4994
  177SLPC  H11S20181   0.269   4.525   9.527 -0.1635  0.2730  0.1976
  177SLPC  C21220182   0.060   4.521   9.537 -0.8545 -0.4525 -0.8350
  177SLPC  H12R20183  -0.027   4.500   9.602 -0.0969  0.7753  0.6167
  177SLPC  C21320184   0.035   4.558   9.410  0.1254 -0.1473  0.1194
  177SLPC  H13R20185  -0.071   4.553   9.383  0.4958 -0.5542 -1.3364
  177SLPC  C21420186   0.134   4.602   9.306  0.1257  0.4670  0.0877
  177SLPC  H14R20187   0.235   4.562   9.331  1.2827  2.5965 -0.9715
  177SLPC  H14S20188   0.153   4.709   9.328  0.4969  0.2881  0.6364
  177SLPC  C21520189   0.104   4.582   9.157  0.5038  0.0094  0.3947
  177SLPC  H15R20190   0.051   4.485   9.146  0.6125  0.1374 -1.2710
  177SLPC  H15S20191   0.201   4.572   9.104 -1.1268  0.5009 -2.7849
  177SLPC  C21620192   0.013   4.690   9.091 -0.7627  0.4265 -0.5698
  177SLPC  H16R20193  -0.091   4.665   9.118 -0.4799 -0.7976 -0.5813
  177SLPC  H16S20194   0.008   4.668   8.982  2.2227  0.0551 -0.6833
  177SLPC  C21720195   0.028   4.842   9.118 -0.0763 -0.8173  0.1244
  177SLPC  H17R20196   0.135   4.869   9.108 -1.2456  4.5450  0.5545
  177SLPC  H17S20197   0.004   4.867   9.223  1.2119 -0.9455  0.4565
  177SLPC  C21820198  -0.055   4.921   9.013  0.2879 -0.0283 -0.6223
  177SLPC  H18R20199  -0.160   4.886   9.014  0.8010 -1.5680  1.5142
  177SLPC  H18S20200  -0.005   4.896   8.916  1.3128  2.0597 -0.6613
  177SLPC  H18T20201  -0.052   5.031   9.031  1.1859 -0.0280 -0.7440
  177SLPC   C3320202   0.243   3.936  10.047  0.2213 -0.1198  0.4075
  177SLPC   H3X20203   0.272   3.988   9.954 -0.1006 -0.1442  0.2941
  177SLPC   H3Y20204   0.157   3.987  10.094 -0.0849 -0.7967  0.5935
  177SLPC   C3420205   0.188   3.794  10.005 -0.0471 -0.1930 -0.0006
  177SLPC   H4X20206   0.151   3.741  10.096  0.5923  0.4571  0.6510
  177SLPC   H4Y20207   0.268   3.730   9.962 -0.5567  0.3213 -1.7621
  177SLPC   C3520208   0.064   3.805   9.904  0.5348 -0.0547 -0.9020
  177SLPC   H5X20209  -0.021   3.839   9.966  0.5625 -2.1615  0.3217
  177SLPC   H5Y20210   0.052   3.698   9.879  0.6940 -1.2502  3.7609
  177SLPC   C3620211   0.082   3.904   9.790  0.2467  0.6783  0.4639
  177SLPC   H6X20212   0.174   3.878   9.733 -1.9130 -0.4476 -2.6827
  177SLPC   H6Y20213   0.097   3.998   9.846 -1.7806  0.9776  0.5307
  177SLPC   C3720214  -0.032   3.911   9.687  0.8096 -0.3803  0.2370
  177SLPC   H7X20215  -0.127   3.932   9.740  0.9303 -0.1213  0.3486
  177SLPC   H7Y20216  -0.035   3.825   9.616 -0.5896  0.2520 -0.4892
  177SLPC   C3820217  -0.014   4.029   9.589 -0.2626 -1.0637 -0.1860
  177SLPC   H8X20218   0.088   4.038   9.547 -0.3219 -0.0661 -0.1370
  177SLPC   H8Y20219  -0.034   4.128   9.636  1.2463 -0.4167 -0.8454
  177SLPC   C3920220  -0.115   4.026   9.471  0.0087 -0.0920  0.1087
  177SLPC   H9X20221  -0.220   4.035   9.507  0.1360 -0.0107  0.4610
  177SLPC   H9Y20222  -0.104   3.923   9.429 -0.9743  0.5115 -1.7125
  177SLPC  C31020223  -0.101   4.116   9.346  0.4123 -0.4699  0.4293
  177SLPC  H10X20224   0.009   4.128   9.332 -0.1756  2.3344 -2.3502
  177SLPC  H10Y20225  -0.131   4.215   9.387  0.7954 -0.0524 -0.2929
  177SLPC  C31120226  -0.171   4.068   9.219  0.0233 -0.3101  0.0080
  177SLPC  H11X20227  -0.164   4.148   9.143  2.3714  0.8448  1.3714
  177SLPC  H11Y20228  -0.277   4.035   9.232  0.1680 -1.4127 -1.4930
  177SLPC  C31220229  -0.117   3.938   9.148  0.5585 -0.4733 -0.0077
  177SLPC  H12X20230  -0.154   3.845   9.197  0.1051  0.8069  2.1193
  177SLPC  H12Y20231  -0.007   3.945   9.160  0.6187  0.9669 -1.3062
  177SLPC  C31320232  -0.132   3.926   8.994  1.1202 -0.2425  0.1647
  177SLPC  H13X20233  -0.239   3.949   8.977  1.1472 -0.4173 -0.2708
  177SLPC  H13Y20234  -0.110   3.821   8.962 -0.3002 -0.7609  0.8745
  177SLPC  C31420235  -0.035   4.028   8.923 -0.0705  0.7503 -0.1961
  177SLPC  H14X20236   0.063   3.976   8.930 -1.4462 -1.6822  1.8043
  177SLPC  H14Y20237  -0.031   4.130   8.966 -1.5236  1.5814 -1.9672
  177SLPC  C31520238  -0.063   4.050   8.778 -0.2616 -0.5102  0.9066
  177SLPC  H15X20239  -0.163   4.099   8.775 -0.2052 -0.4738 -2.1613
  177SLPC  H15Y20240  -0.073   3.952   8.725 -3.1021 -0.1470  0.6947
  177SLPC  C31620241   0.035   4.126   8.687  0.4750 -0.1956  0.7134
  177SLPC  H16X20242   0.130   4.071   8.704 -1.0036 -2.1726  2.9050
  177SLPC  H16Y20243   0.065   4.224   8.729  1.0942 -0.4302  0.8179
  177SLPC  C31720244  -0.004   4.138   8.538  0.3952 -0.3352 -0.4443
  177SLPC  H17X20245  -0.002   4.043   8.481  0.5540 -0.1607 -0.7317
  177SLPC  H17Y20246   0.074   4.191   8.479 -1.0864 -1.1801 -3.2455
  177SLPC  C31820247  -0.132   4.214   8.510 -0.1058  0.1884  0.5346
  177SLPC  H18X20248  -0.151   4.277   8.600 -0.5213  1.0083 -0.1211
  177SLPC  H18Y20249  -0.211   4.137   8.504 -0.6059  0.6162  1.3823
  177SLPC  H18Z20250  -0.127   4.269   8.414 -0.4779 -0.0113  0.3977
  178SLPC     N20251   1.825   0.368  11.449  0.1324  0.1143 -0.0114
  178SLPC   C1320252   1.852   0.471  11.548  0.4578 -0.9109  0.0538
  178SLPC  H13A20253   1.834   0.436  11.649 -0.0061  1.1947  0.7224
  178SLPC  H13B20254   1.950   0.514  11.554 -0.3746  0.9802  0.5407
  178SLPC  H13C20255   1.783   0.553  11.538 -0.9925 -2.1679 -0.5064
  178SLPC   C1420256   1.677   0.357  11.418  0.8164 -0.5339  0.3611
  178SLPC  H14A20257   1.664   0.294  11.332 -1.8166 -1.2561  1.2360
  178SLPC  H14B20258   1.634   0.308  11.504  0.5268  1.3095  1.3073
  178SLPC  H14C20259   1.636   0.456  11.402  0.8918 -0.5682 -0.0412
  178SLPC   C1520260   1.867   0.231  11.494 -0.6806  0.1486 -0.3664
  178SLPC  H15A20261   1.852   0.159  11.415  0.2212 -2.2040  1.5497
  178SLPC  H15B20262   1.972   0.221  11.517 -0.9393 -0.1708  0.7061
  178SLPC  H15C20263   1.814   0.188  11.578  0.8803 -0.2447  0.4298
  178SLPC   C1220264   1.887   0.411  11.316 -0.2289  0.0211 -0.3440
  178SLPC  H12A20265   1.985   0.457  11.322  0.3277 -1.1198 -0.6631
  178SLPC  H12B20266   1.818   0.488  11.284  0.3234 -0.3921 -2.6152
  178SLPC   C1120267   1.890   0.302  11.205  0.0906 -0.8178  0.3193
  178SLPC  H11A20268   1.908   0.354  11.109  4.3838 -1.2511  0.7482
  178SLPC  H11B20269   1.796   0.245  11.192  0.1212 -0.4332 -1.7271
  178SLPC     P20270   2.010   0.080  11.157  0.2910  0.2748 -0.0692
  178SLPC   O1320271   2.150   0.032  11.154  0.0952  1.1119 -0.4515
  178SLPC   O1420272   1.916  -0.014  11.214 -0.4787 -0.4952 -0.3487
  178SLPC   O1220273   2.002   0.219  11.233  0.0337 -0.9074 -0.3726
  178SLPC   O1120274   1.973   0.126  11.005  0.2092  0.1565 -0.4055
  178SLPC    C120275   2.075   0.188  10.925 -0.2265  0.0182  0.3582
  178SLPC    HA20276   2.034   0.280  10.878  0.4453  0.1403  0.0129
  178SLPC    HB20277   2.165   0.219  10.982  0.0793  4.6095 -2.3569
  178SLPC    C220278   2.134   0.093  10.816  0.1787  0.2752  0.1562
  178SLPC    HS20279   2.192   0.014  10.868  0.4210 -0.3553 -1.0783
  178SLPC   O2120280   2.207   0.174  10.714 -0.1071 -0.1955 -0.3844
  178SLPC   C2120281   2.311   0.114  10.668 -0.3819  0.7029 -0.2425
  178SLPC   O2220282   2.349   0.004  10.701 -0.2712  0.1749  0.0298
  178SLPC   C2220283   2.375   0.198  10.555  0.1179 -0.4696 -0.3717
  178SLPC   H2R20284   2.286   0.239  10.503  0.2478  1.2339  0.7034
  178SLPC   H2S20285   2.432   0.286  10.592  0.0048 -0.1994 -0.8423
  178SLPC    C320286   2.011   0.026  10.754  0.3391 -0.8926 -0.2666
  178SLPC    HX20287   1.936   0.106  10.734  0.4790 -0.7974 -0.4091
  178SLPC    HY20288   1.960  -0.039  10.828  0.3686 -0.7511 -0.1224
  178SLPC   O3120289   2.040  -0.051  10.629  0.1697 -0.0286 -0.1047
  178SLPC   C3120290   2.093  -0.172  10.658 -0.1274  0.0433 -0.3000
  178SLPC   O3220291   2.094  -0.222  10.768 -0.2172  0.0284  0.0601
  178SLPC   C3220292   2.161  -0.230  10.534  0.0607  0.7527  0.2764
  178SLPC   H2X20293   2.134  -0.337  10.523  1.0897  0.5936 -0.7338
  178SLPC   H2Y20294   2.270  -0.235  10.552 -0.0330  0.5526  0.7967
  178SLPC   C2320295   2.452   0.109  10.457  0.9293 -0.1269 -0.7804
  178SLPC   H3R20296   2.427   0.002  10.471 -2.2390  0.2102 -3.4012
  178SLPC   H3S20297   2.562   0.124  10.465  0.8891 -0.1244 -0.2157
  178SLPC   C2420298   2.415   0.139  10.311 -0.2877 -0.2931  0.3201
  178SLPC   H4R20299   2.429   0.247  10.290 -2.3041 -0.2480 -0.9153
  178SLPC   H4S20300   2.306   0.123  10.297 -0.5340  0.0463  1.7097
  178SLPC   C2520301   2.496   0.052  10.216 -0.1131  0.0466 -0.7747
  178SLPC   H5R20302   2.474  -0.056  10.231  1.4898 -0.8883 -4.5653
  178SLPC   H5S20303   2.605   0.074  10.224 -0.1836  0.2613 -0.4285
  178SLPC   C2620304   2.452   0.093  10.077 -0.6879  0.5477  0.5341
  178SLPC   H6R20305   2.485   0.197  10.055  2.0386 -0.4511 -0.3315
  178SLPC   H6S20306   2.341   0.098  10.087 -0.7377 -1.3364  1.1275
  178SLPC   C2720307   2.498  -0.017   9.972  0.6083 -0.5077  0.0575
  178SLPC   H7R20308   2.463  -0.107  10.028 -0.3114  0.3287  0.8414
  178SLPC   H7S20309   2.609  -0.019   9.974  0.6395  0.4403 -0.5137
  178SLPC   C2820310   2.449  -0.014   9.824  0.3805 -0.8612 -0.1366
  178SLPC   H8R20311   2.342  -0.021   9.851 -0.1109 -3.1474 -2.5049
  178SLPC   H8S20312   2.479  -0.109   9.774 -0.5355 -0.6721 -1.0434
  178SLPC   C2920313   2.443   0.106   9.734  0.0590  0.3457 -0.2949
  178SLPC   H9R20314   2.372   0.188   9.750 -0.6879 -0.2085 -0.7632
  178SLPC  C21020315   2.512   0.116   9.618 -0.2060  0.2551  0.3986
  178SLPC  H10R20316   2.501   0.207   9.557 -1.2426 -0.2408 -0.1745
  178SLPC  C21120317   2.612   0.018   9.560  0.2398 -0.3563  0.6630
  178SLPC  H11R20318   2.674  -0.019   9.645 -0.4924 -1.9159  0.5225
  178SLPC  H11S20319   2.677   0.070   9.486  1.8593  2.0208  3.6267
  178SLPC  C21220320   2.551  -0.099   9.490  0.0619 -0.1023 -0.8314
  178SLPC  H12R20321   2.553  -0.192   9.550  4.7046  0.3894 -0.0445
  178SLPC  C21320322   2.500  -0.111   9.368  0.1052 -0.2629 -0.3468
  178SLPC  H13R20323   2.460  -0.210   9.343  0.2394 -0.9795  2.0987
  178SLPC  C21420324   2.495  -0.005   9.260 -0.0546  0.2390 -0.4679
  178SLPC  H14R20325   2.522   0.090   9.310 -1.0082  1.0194 -1.3992
  178SLPC  H14S20326   2.389  -0.000   9.227  0.1029 -1.1243 -1.2128
  178SLPC  C21520327   2.592  -0.039   9.138  0.6077  0.5733 -0.5786
  178SLPC  H15R20328   2.560  -0.136   9.093  1.1720  0.0650  0.0905
  178SLPC  H15S20329   2.689  -0.064   9.185 -0.4676 -0.7628  1.0298
  178SLPC  C21620330   2.613   0.074   9.049  0.2115 -0.5528  0.3973
  178SLPC  H16R20331   2.661   0.154   9.108 -1.5494 -0.0829  1.2432
  178SLPC  H16S20332   2.515   0.107   9.007  0.9166  1.7966  0.5907
  178SLPC  C21720333   2.713   0.035   8.937 -0.1265  0.3941 -0.0037
  178SLPC  H17R20334   2.803  -0.005   8.988 -0.5541 -1.1889 -0.4563
  178SLPC  H17S20335   2.738   0.124   8.874 -0.5199 -0.1816 -0.9899
  178SLPC  C21820336   2.669  -0.075   8.842 -0.5183 -0.3034 -1.5146
  178SLPC  H18R20337   2.678  -0.176   8.889 -1.8006 -0.3029 -1.2694
  178SLPC  H18S20338   2.722  -0.084   8.745  0.5853 -0.5269 -0.9112
  178SLPC  H18T20339   2.564  -0.050   8.820 -0.2763  1.9064 -0.2618
  178SLPC   C3320340   2.116  -0.154  10.397 -0.3317  0.6412 -0.1004
  178SLPC   H3X20341   2.152  -0.049  10.392 -0.2366  0.6718  1.0323
  178SLPC   H3Y20342   2.006  -0.153  10.383 -0.2057  1.1409 -1.1135
  178SLPC   C3420343   2.185  -0.223  10.280 -0.3370  0.5598  0.1808
  178SLPC   H4X20344   2.184  -0.334  10.275 -0.5974  0.5618  0.2149
  178SLPC   H4Y20345   2.291  -0.187  10.281 -0.1973  0.1374  1.4996
  178SLPC   C3520346   2.126  -0.166  10.154  0.4701  0.0927  0.2620
  178SLPC   H5X20347   2.139  -0.055  10.158 -1.4225  0.4285 -1.7953
  178SLPC   H5Y20348   2.015  -0.173  10.155  0.3504  1.5693 -0.5042
  178SLPC   C3620349   2.184  -0.233  10.023  0.0854  0.2211  0.5346
  178SLPC   H6X20350   2.163  -0.342  10.030 -0.5432  0.1803 -1.5666
  178SLPC   H6Y20351   2.293  -0.214  10.016 -0.1698  1.4781 -0.1486
  178SLPC   C3720352   2.103  -0.174   9.909  0.0813 -0.0170 -0.2963
  178SLPC   H7X20353   2.112  -0.063   9.900 -1.0063 -0.0056 -1.4260
  178SLPC   H7Y20354   1.993  -0.191   9.916  0.6619 -2.8151  3.0378
  178SLPC   C3820355   2.144  -0.237   9.779 -0.2998  0.1636 -0.2332
  178SLPC   H8X20356   2.115  -0.344   9.787  2.3330 -0.6129 -0.4990
  178SLPC   H8Y20357   2.254  -0.226   9.772 -0.3038 -0.9693 -2.7113
  178SLPC   C3920358   2.073  -0.175   9.648 -0.2891 -0.4937 -0.1193
  178SLPC   H9X20359   2.078  -0.065   9.637  0.9143 -0.3259  1.9276
  178SLPC   H9Y20360   1.966  -0.197   9.663 -0.0880 -0.6292  1.1173
  178SLPC  C31020361   2.128  -0.241   9.516  0.5484 -0.8340  0.3449
  178SLPC  H10X20362   2.086  -0.344   9.504  0.9764 -0.9152 -0.4421
  178SLPC  H10Y20363   2.236  -0.241   9.539  0.8916  0.8842 -1.1750
  178SLPC  C31120364   2.098  -0.159   9.393  0.0910  0.5863  0.1016
  178SLPC  H11X20365   2.155  -0.065   9.409  0.5246  0.0536  1.7771
  178SLPC  H11Y20366   1.989  -0.139   9.389  0.4474  2.8158  0.6143
  178SLPC  C31220367   2.131  -0.237   9.271 -0.0770 -0.4051 -0.1070
  178SLPC  H12X20368   2.073  -0.332   9.271 -1.5841  0.5059  0.8606
  178SLPC  H12Y20369   2.239  -0.262   9.280 -0.9250 -4.2705  0.3939
  178SLPC  C31320370   2.097  -0.144   9.147 -1.0919  0.0236  0.6528
  178SLPC  H13X20371   2.119  -0.039   9.178  2.4967 -0.2142 -0.8445
  178SLPC  H13Y20372   1.987  -0.141   9.132 -1.1260  0.0452  0.9038
  178SLPC  C31420373   2.167  -0.202   9.025 -0.4972 -0.6818  0.5456
  178SLPC  H14X20374   2.108  -0.293   9.001  0.5925 -1.9718  2.6041
  178SLPC  H14Y20375   2.271  -0.226   9.056 -0.5601 -0.2503  1.1069
  178SLPC  C31520376   2.163  -0.109   8.899  0.3714 -1.0035 -0.5480
  178SLPC  H15X20377   2.058  -0.080   8.879  0.8496 -0.3382 -2.0910
  178SLPC  H15Y20378   2.220  -0.021   8.935 -2.0180  0.7241 -0.8975
  178SLPC  C31620379   2.216  -0.165   8.769  0.0469 -0.7423 -0.0437
  178SLPC  H16X20380   2.308  -0.219   8.800  0.6811 -0.5370 -1.5240
  178SLPC  H16Y20381   2.241  -0.085   8.696  0.0851 -0.1949  0.5600
  178SLPC  C31720382   2.135  -0.277   8.703 -0.5297 -0.8171 -0.4115
  178SLPC  H17X20383   2.046  -0.222   8.666 -1.4134  0.4725  3.3358
  178SLPC  H17Y20384   2.100  -0.340   8.788 -0.4572  2.2920  2.0261
  178SLPC  C31820385   2.215  -0.361   8.597  0.0521  0.3606  0.1798
  178SLPC  H18X20386   2.270  -0.296   8.525  2.4482 -0.0284  1.6060
  178SLPC  H18Y20387   2.142  -0.424   8.543  0.2813 -0.2343  0.5600
  178SLPC  H18Z20388   2.290  -0.427   8.646  0.2999 -1.2374 -2.2724
  179SLPC     N20389   3.656   2.899  10.243 -0.1162 -0.0307  0.2984
  179SLPC   C1320390   3.684   2.797  10.144 -0.4258 -0.1171 -0.0444
  179SLPC  H13A20391   3.648   2.699  10.172  0.0868 -0.0258  0.9316
  179SLPC  H13B20392   3.625   2.819  10.056  0.5610  0.6530 -0.5277
  179SLPC  H13C20393   3.783   2.784  10.102 -1.1706 -1.1634 -1.5496
  179SLPC   C1420394   3.717   3.025  10.189 -0.0105 -0.1657  0.2893
  179SLPC  H14A20395   3.819   3.001  10.162 -0.1606 -1.3870  0.7589
  179SLPC  H14B20396   3.671   3.053  10.096  1.3470 -0.9005 -0.6319
  179SLPC  H14C20397   3.699   3.111  10.251 -1.5695  1.5503 -2.4845
  179SLPC   C1520398   3.737   2.864  10.363 -0.1091  0.4660  1.1244
  179SLPC  H15A20399   3.844   2.854  10.348 -0.3173  1.1090 -0.9410
  179SLPC  H15B20400   3.718   2.930  10.447  1.4277  2.7603 -0.2401
  179SLPC  H15C20401   3.707   2.766  10.396 -0.0899  0.6149  1.5836
  179SLPC   C1220402   3.508   2.918  10.289 -0.2631  0.5955  0.2230
  179SLPC  H12A20403   3.472   2.822  10.322  2.3620 -1.1964 -1.9285
  179SLPC  H12B20404   3.453   2.934  10.197 -0.9185  0.5288  0.5975
  179SLPC   C1120405   3.483   3.041  10.390  0.1785 -0.0886  0.2737
  179SLPC  H11A20406   3.574   3.050  10.452  0.0384 -0.5632  0.5561
  179SLPC  H11B20407   3.397   3.020  10.457  0.4879 -1.9661  0.1166
  179SLPC     P20408   3.335   3.229  10.304 -0.2379 -0.0516  0.1016
  179SLPC   O1320409   3.220   3.131  10.283 -0.1152  0.1855 -0.1117
  179SLPC   O1420410   3.325   3.332  10.415 -0.5116  0.1386 -0.5659
  179SLPC   O1220411   3.473   3.157  10.315 -0.0457  0.5369 -0.3959
  179SLPC   O1120412   3.352   3.313  10.166 -0.6330 -0.2467  0.4457
  179SLPC    C120413   3.459   3.296  10.071  0.4856  0.0082  0.5239
  179SLPC    HA20414   3.516   3.390  10.056 -1.5009  1.4287  1.7372
  179SLPC    HB20415   3.535   3.221  10.102  2.3726  0.6220 -2.3774
  179SLPC    C220416   3.412   3.236   9.930  0.0639  0.1579  0.6326
  179SLPC    HS20417   3.355   3.142   9.946  0.1281 -0.2094 -1.2073
  179SLPC   O2120418   3.531   3.220   9.852  0.2373 -0.4210  0.4215
  179SLPC   C2120419   3.585   3.102   9.867  0.0833 -0.4818  0.2865
  179SLPC   O2220420   3.545   3.016   9.946 -0.0743 -0.0405 -0.2710
  179SLPC   C2220421   3.701   3.100   9.760 -0.1813  0.3860 -0.0037
  179SLPC   H2R20422   3.718   3.197   9.710  1.1326 -0.5455 -1.4166
  179SLPC   H2S20423   3.795   3.086   9.818 -0.9165  3.9554  2.2107
  179SLPC    C320424   3.329   3.332   9.848  0.1012 -0.0480 -0.5504
  179SLPC    HX20425   3.398   3.417   9.827 -1.4017  1.1065 -0.8688
  179SLPC    HY20426   3.246   3.375   9.908  1.2945  0.8503  0.5003
  179SLPC   O3120427   3.279   3.270   9.721 -0.2384 -0.5104  0.3593
  179SLPC   C3120428   3.184   3.177   9.732  0.3501 -0.0925 -0.8928
  179SLPC   O3220429   3.130   3.144   9.838 -0.0420  0.6137 -0.5009
  179SLPC   C3220430   3.167   3.099   9.599 -0.2365 -0.1736  0.4966
  179SLPC   H2X20431   3.263   3.111   9.545 -0.1141 -1.1423  0.4863
  179SLPC   H2Y20432   3.097   3.153   9.532 -1.0327 -0.4660  1.0760
  179SLPC   C2320433   3.698   2.977   9.664  0.1190  0.0547 -0.1936
  179SLPC   H3R20434   3.602   2.987   9.610 -0.2126  0.4199  0.4689
  179SLPC   H3S20435   3.697   2.883   9.723 -1.1384 -0.5437 -1.1547
  179SLPC   C2420436   3.828   2.981   9.576  0.2575 -0.5426  0.3542
  179SLPC   H4R20437   3.907   2.929   9.635  0.4226  1.0633  1.5657
  179SLPC   H4S20438   3.863   3.085   9.558  0.1834  0.2580  4.3450
  179SLPC   C2520439   3.813   2.893   9.449  0.5007 -0.2086 -0.0590
  179SLPC   H5R20440   3.774   2.791   9.466  1.5895 -1.3442 -3.8962
  179SLPC   H5S20441   3.912   2.886   9.399 -0.2122  0.4551 -1.5760
  179SLPC   C2620442   3.733   2.973   9.349 -0.6588  0.4331 -0.2670
  179SLPC   H6R20443   3.770   3.077   9.361 -0.0642  0.2320 -0.3370
  179SLPC   H6S20444   3.627   2.973   9.381 -0.5462  1.3818  0.1233
  179SLPC   C2720445   3.747   2.926   9.204  0.0867 -0.2923  0.3807
  179SLPC   H7R20446   3.651   2.926   9.148 -0.0223  0.4027  0.5662
  179SLPC   H7S20447   3.780   2.820   9.212 -0.2901 -0.6902 -2.6912
  179SLPC   C2820448   3.838   3.023   9.126  0.6173  0.5922  0.0817
  179SLPC   H8R20449   3.930   3.035   9.187  0.4085  2.0417  0.1231
  179SLPC   H8S20450   3.790   3.123   9.123 -0.3984  0.1401  1.1937
  179SLPC   C2920451   3.869   2.957   8.990 -0.2688  0.3498  0.2854
  179SLPC   H9R20452   3.937   2.870   8.996  2.3618  2.3819  0.9699
  179SLPC  C21020453   3.832   3.000   8.867  0.5115  0.0459  0.2162
  179SLPC  H10R20454   3.870   2.938   8.784 -1.0240  1.9470 -1.9741
  179SLPC  C21120455   3.759   3.126   8.833  0.8593  0.6548  0.6483
  179SLPC  H11R20456   3.773   3.140   8.724  0.2557  1.2751  0.6440
  179SLPC  H11S20457   3.813   3.217   8.868  0.0415  1.3430  0.1608
  179SLPC  C21220458   3.614   3.134   8.870  0.1025 -0.2780  1.2263
  179SLPC  H12R20459   3.570   3.041   8.911 -0.8086 -0.4616 -0.1353
  179SLPC  C21320460   3.529   3.233   8.828  0.1291  0.1836 -0.9937
  179SLPC  H13R20461   3.423   3.223   8.855  0.0637  0.2072 -1.2423
  179SLPC  C21420462   3.563   3.354   8.748 -0.3613 -0.0011  0.9663
  179SLPC  H14R20463   3.630   3.334   8.662 -2.7053 -0.5289 -0.7870
  179SLPC  H14S20464   3.605   3.438   8.808  0.6853  2.1363 -2.6232
  179SLPC  C21520465   3.432   3.418   8.692 -0.7348 -0.8267 -0.7031
  179SLPC  H15R20466   3.462   3.513   8.643 -0.3504 -1.1071 -1.0165
  179SLPC  H15S20467   3.370   3.453   8.777 -0.1458 -0.8376 -0.2669
  179SLPC  C21620468   3.349   3.324   8.594 -0.9351  0.1383  0.0115
  179SLPC  H16R20469   3.327   3.222   8.632  1.6489 -1.0676 -1.6198
  179SLPC  H16S20470   3.418   3.310   8.509  0.2175  0.3534  0.8913
  179SLPC  C21720471   3.221   3.389   8.557 -0.2003  0.3431  0.1272
  179SLPC  H17R20472   3.178   3.353   8.461  0.5924 -1.5755  0.4685
  179SLPC  H17S20473   3.229   3.500   8.549  2.7737  0.1175 -0.6860
  179SLPC  C21820474   3.114   3.356   8.664  1.2452  0.5073  0.3932
  179SLPC  H18R20475   3.117   3.429   8.748 -0.2099 -0.3301  1.1951
  179SLPC  H18S20476   3.117   3.253   8.707 -1.7075 -0.2080 -0.9797
  179SLPC  H18T20477   3.014   3.364   8.617  1.4893  0.2148 -0.1791
  179SLPC   C3320478   3.134   2.946   9.623  0.7494 -0.0006  0.7196
  179SLPC   H3X20479   3.201   2.911   9.704  0.4707  0.6016  1.2151
  179SLPC   H3Y20480   3.160   2.886   9.533  0.6126  1.2200 -0.1399
  179SLPC   C3420481   2.987   2.919   9.649  1.8005  0.5781 -0.5632
  179SLPC   H4X20482   2.948   2.983   9.731 -0.4188 -3.1931  1.4779
  179SLPC   H4Y20483   2.982   2.814   9.683 -1.2026  0.3582 -1.5375
  179SLPC   C3520484   2.891   2.948   9.534 -0.4089 -0.0452  0.8253
  179SLPC   H5X20485   2.927   2.898   9.442  1.5614 -0.1773  1.6465
  179SLPC   H5Y20486   2.889   3.059   9.528 -0.7442  0.1125  3.5234
  179SLPC   C3620487   2.746   2.894   9.560 -0.2446  0.7859 -0.8928
  179SLPC   H6X20488   2.728   2.915   9.667 -0.9767 -0.1028 -0.8346
  179SLPC   H6Y20489   2.750   2.784   9.543 -0.6119  0.8575 -1.4876
  179SLPC   C3720490   2.640   2.959   9.466 -0.1336  0.1603 -0.1798
  179SLPC   H7X20491   2.646   3.069   9.482 -1.8213  0.6728 -2.7558
  179SLPC   H7Y20492   2.535   2.930   9.491  0.7086 -2.4107  0.5773
  179SLPC   C3820493   2.667   2.944   9.308  0.6782 -0.3991 -0.0096
  179SLPC   H8X20494   2.674   2.835   9.290  2.7101 -0.5368  1.4281
  179SLPC   H8Y20495   2.768   2.988   9.293  0.0396  1.6616  1.5819
  179SLPC   C3920496   2.551   3.011   9.232  0.1443 -0.2307 -0.1435
  179SLPC   H9X20497   2.537   3.116   9.264 -1.7020  0.1023 -1.9261
  179SLPC   H9Y20498   2.470   2.950   9.278 -1.4042  1.3816 -0.6780
  179SLPC  C31020499   2.551   3.009   9.077 -1.3624 -0.3246 -0.2724
  179SLPC  H10X20500   2.557   2.907   9.033 -2.5534 -0.7203  0.4468
  179SLPC  H10Y20501   2.638   3.071   9.046  0.1364 -0.7273  2.8276
  179SLPC  C31120502   2.433   3.081   9.016  0.2470  0.1738  0.1191
  179SLPC  H11X20503   2.434   3.188   9.048 -1.2168 -0.1117  1.2219
  179SLPC  H11Y20504   2.338   3.034   9.050 -0.6449  1.9214  0.1264
  179SLPC  C31220505   2.443   3.064   8.859 -0.2581 -0.2195  0.2488
  179SLPC  H12X20506   2.446   2.953   8.848  1.4801 -0.0935 -0.7413
  179SLPC  H12Y20507   2.532   3.113   8.815  0.4122 -1.1058  0.6063
  179SLPC  C31320508   2.321   3.108   8.780  0.2060  0.4112 -0.1523
  179SLPC  H13X20509   2.306   3.217   8.796  2.0975  1.0626 -2.5526
  179SLPC  H13Y20510   2.238   3.051   8.828 -1.8308  1.3897 -2.4264
  179SLPC  C31420511   2.351   3.073   8.633  0.1099 -0.2353 -0.3469
  179SLPC  H14X20512   2.392   2.970   8.638  0.0546 -0.3025 -1.1316
  179SLPC  H14Y20513   2.423   3.146   8.590 -0.7528  1.8018  1.5546
  179SLPC  C31520514   2.220   3.069   8.548  0.4772  0.2089 -0.4193
  179SLPC  H15X20515   2.142   2.998   8.584  2.1057 -0.6830  1.4373
  179SLPC  H15Y20516   2.248   3.034   8.447 -1.8844 -1.9751 -0.3623
  179SLPC  C31620517   2.166   3.213   8.533 -0.6728  0.3373  0.4355
  179SLPC  H16X20518   2.234   3.256   8.456 -2.0850  1.1185 -0.3958
  179SLPC  H16Y20519   2.152   3.274   8.625 -0.1345  1.9866 -0.5454
  179SLPC  C31720520   2.033   3.211   8.455 -0.3858 -0.4473  0.4317
  179SLPC  H17X20521   2.032   3.168   8.353 -0.1793  1.6038 -0.4565
  179SLPC  H17Y20522   2.004   3.318   8.444 -0.1711  0.0574  4.1450
  179SLPC  C31820523   1.931   3.126   8.532 -0.7312  0.1533 -0.3009
  179SLPC  H18X20524   1.828   3.126   8.491 -0.2851 -2.8255 -1.5515
  179SLPC  H18Y20525   1.930   3.144   8.641 -1.6612 -0.0151 -0.2811
  179SLPC  H18Z20526   1.957   3.018   8.516  1.4724  0.3262  1.7856
  180SLPC     N20527   4.541   0.951  11.137  0.4944  0.2262  0.0001
  180SLPC   C1320528   4.539   1.093  11.133  0.7864 -0.4539  0.5042
  180SLPC  H13A20529   4.441   1.137  11.128 -0.9604 -4.2056 -0.0703
  180SLPC  H13B20530   4.575   1.136  11.226 -0.1217  1.5362 -0.0497
  180SLPC  H13C20531   4.581   1.139  11.045 -2.4703  1.1956 -0.2512
  180SLPC   C1420532   4.462   0.899  11.023 -0.2566 -0.3125  0.5716
  180SLPC  H14A20533   4.501   0.942  10.933 -1.1309  1.3503  0.9676
  180SLPC  H14B20534   4.480   0.793  11.011 -1.7220 -0.6523  1.2174
  180SLPC  H14C20535   4.356   0.921  11.028 -0.5455 -2.0106  2.8373
  180SLPC   C1520536   4.472   0.903  11.269 -0.1148  0.2348 -0.1868
  180SLPC  H15A20537   4.517   0.946  11.357 -2.4035 -0.6800  1.4944
  180SLPC  H15B20538   4.370   0.939  11.268 -0.8902 -1.8217  1.2658
  180SLPC  H15C20539   4.473   0.795  11.278 -1.4534  0.4569  3.4615
  180SLPC   C1220540   4.687   0.913  11.136  0.6306 -0.7686  0.1164
  180SLPC  H12A20541   4.743   0.960  11.216  0.7353  0.2899 -0.5738
  180SLPC  H12B20542   4.738   0.935  11.043 -1.8720 -1.9237 -1.5770
  180SLPC   C1120543   4.726   0.760  11.152  0.4977 -0.6103 -0.1769
  180SLPC  H11A20544   4.685   0.723  11.248 -0.8446  1.2968  0.0094
  180SLPC  H11B20545   4.835   0.736  11.152  0.7490  0.4971 -0.8652
  180SLPC     P20546   4.723   0.683  10.904 -0.1570 -0.0104  0.0401
  180SLPC   O1320547   4.798   0.807  10.885  0.0080 -0.4240 -0.0157
  180SLPC   O1420548   4.801   0.554  10.896  0.5440  0.6163  0.4023
  180SLPC   O1220549   4.659   0.690  11.047  0.2924  0.5150  0.9291
  180SLPC   O1120550   4.589   0.680  10.821 -0.0448 -0.2332 -0.3836
  180SLPC    C120551   4.515   0.560  10.802  0.0125  0.0948  0.1701
  180SLPC    HA20552   4.532   0.488  10.885  1.4262  0.6026  0.3216
  180SLPC    HB20553   4.406   0.574  10.817 -0.5605 -2.4873 -1.1909
  180SLPC    C220554   4.549   0.492  10.663  0.1364  0.2820 -0.1558
  180SLPC    HS20555   4.651   0.451  10.674  0.0785  0.4193  1.0010
  180SLPC   O2120556   4.520   0.588  10.552 -0.0499  0.2956  0.3617
  180SLPC   C2120557   4.602   0.569  10.446 -0.3694  0.3794  0.5578
  180SLPC   O2220558   4.700   0.495  10.441 -0.3092 -0.5345  0.3012
  180SLPC   C2220559   4.555   0.652  10.331 -0.4430  0.4145  0.8299
  180SLPC   H2R20560   4.446   0.627  10.334  0.0252 -2.2307 -1.8402
  180SLPC   H2S20561   4.565   0.759  10.359  0.2530  0.3586  0.8050
  180SLPC    C320562   4.444   0.371  10.649 -0.7159  0.3158 -0.2265
  180SLPC    HX20563   4.343   0.410  10.623 -1.1899 -1.5682 -1.3591
  180SLPC    HY20564   4.441   0.317  10.746 -1.7886  0.0669 -0.3937
  180SLPC   O3120565   4.488   0.284  10.540 -0.4641 -0.0859  0.5661
  180SLPC   C3120566   4.598   0.220  10.547  0.4399 -0.4296 -0.5352
  180SLPC   O3220567   4.675   0.219  10.643  0.1105 -0.3998  0.4137
  180SLPC   C3220568   4.623   0.146  10.417  0.1197 -0.0884 -0.3114
  180SLPC   H2X20569   4.543   0.181  10.348 -0.4601  2.0461  1.3711
  180SLPC   H2Y20570   4.622   0.037  10.436  2.3221  0.2967  2.2759
  180SLPC   C2320571   4.629   0.621  10.206  0.2310 -0.0929 -0.5346
  180SLPC   H3R20572   4.739   0.620  10.219  0.0731  0.7437  0.9175
  180SLPC   H3S20573   4.599   0.692  10.125  1.8753  0.4566 -0.6898
  180SLPC   C2420574   4.586   0.478  10.146  0.6198 -0.7474  0.5703
  180SLPC   H4R20575   4.476   0.499  10.144  0.9780  1.6343  2.6227
  180SLPC   H4S20576   4.614   0.390  10.207  0.5806 -0.2561  1.3152
  180SLPC   C2520577   4.639   0.454  10.003  0.3147 -0.3959 -0.0267
  180SLPC   H5R20578   4.749   0.439  10.012  0.1281 -2.9193 -1.4032
  180SLPC   H5S20579   4.619   0.540   9.936  1.4005  1.6234  2.1530
  180SLPC   C2620580   4.569   0.334   9.933 -0.6232 -0.2126 -0.0914
  180SLPC   H6R20581   4.461   0.357   9.939 -0.5949 -0.3649  1.1466
  180SLPC   H6S20582   4.586   0.239   9.989 -0.7314 -0.8439 -1.1045
  180SLPC   C2720583   4.604   0.317   9.780 -0.5430 -0.5694 -0.3834
  180SLPC   H7R20584   4.714   0.307   9.773 -0.5113 -2.9951  2.5199
  180SLPC   H7S20585   4.562   0.401   9.721 -0.8468  0.4987  1.2999
  180SLPC   C2820586   4.559   0.186   9.709 -0.3659 -0.2170 -0.4681
  180SLPC   H8R20587   4.456   0.157   9.736 -0.1165  0.5438  1.4301
  180SLPC   H8S20588   4.621   0.114   9.767 -1.1228  0.7598  1.5933
  180SLPC   C2920589   4.584   0.178   9.564 -0.3730  0.3005  0.1338
  180SLPC   H9R20590   4.689   0.184   9.532  0.3462 -0.1341  2.2919
  180SLPC  C21020591   4.489   0.166   9.476 -0.4796  0.2242  0.3732
  180SLPC  H10R20592   4.509   0.166   9.368 -0.1634 -2.8014  0.3965
  180SLPC  C21120593   4.338   0.171   9.498 -0.1032 -0.2230  0.2019
  180SLPC  H11R20594   4.312   0.228   9.589  1.6279  0.4275  0.3064
  180SLPC  H11S20595   4.311   0.065   9.522 -1.2386  0.2512  1.0598
  180SLPC  C21220596   4.272   0.228   9.374 -0.0377  0.0698  0.0699
  180SLPC  H12R20597   4.262   0.337   9.377  1.2467  0.1861  0.6398
  180SLPC  C21320598   4.233   0.154   9.272 -0.5590  0.3055  0.5071
  180SLPC  H13R20599   4.173   0.198   9.190 -0.7340 -2.0392 -0.6609
  180SLPC  C21420600   4.243   0.001   9.248 -1.2639  0.2627 -0.1815
  180SLPC  H14R20601   4.315  -0.041   9.320 -1.2787  1.2067  0.3970
  180SLPC  H14S20602   4.274  -0.007   9.141 -0.0302  3.5380 -0.1215
  180SLPC  C21520603   4.109  -0.069   9.270  0.1036 -0.5322 -0.0774
  180SLPC  H15R20604   4.085  -0.045   9.376 -0.4409  0.0703 -0.3284
  180SLPC  H15S20605   4.123  -0.179   9.262 -3.7473 -1.2271  1.4669
  180SLPC  C21620606   4.001  -0.039   9.169 -0.0321  0.2643 -0.2976
  180SLPC  H16R20607   4.043  -0.045   9.067 -1.5359  0.9163 -0.9682
  180SLPC  H16S20608   3.964   0.065   9.185  0.3199  0.2669  0.5488
  180SLPC  C21720609   3.876  -0.125   9.195  0.3240 -0.3582  0.1485
  180SLPC  H17R20610   3.825  -0.109   9.293 -2.3382  0.8356 -1.3687
  180SLPC  H17S20611   3.904  -0.232   9.192 -1.3210 -0.7799 -1.1842
  180SLPC  C21820612   3.761  -0.096   9.097 -0.1375 -0.0117  1.1818
  180SLPC  H18R20613   3.749   0.014   9.092  1.7724  0.1110 -2.1917
  180SLPC  H18S20614   3.661  -0.126   9.136 -0.5408 -0.3597 -0.1180
  180SLPC  H18T20615   3.775  -0.140   8.996 -4.1114  0.7810  0.2052
  180SLPC   C3320616   4.765   0.180  10.374 -0.6405  0.1516  0.5662
  180SLPC   H3X20617   4.833   0.156  10.459  0.1681  0.8505  0.1283
  180SLPC   H3Y20618   4.782   0.289  10.363  2.6366 -0.4639 -0.9455
  180SLPC   C3420619   4.798   0.118  10.237 -0.1529  0.5416 -0.2489
  180SLPC   H4X20620   4.743   0.160  10.150  2.6227 -0.2908 -2.4930
  180SLPC   H4Y20621   4.787   0.007  10.236  1.6016  0.3535 -1.5681
  180SLPC   C3520622   4.941   0.137  10.198  0.7004 -0.6101  0.4540
  180SLPC   H5X20623   4.996   0.062  10.259  1.9475  1.0719  1.4495
  180SLPC   H5Y20624   4.969   0.242  10.223  0.6569 -0.9466  1.9580
  180SLPC   C3620625   4.967   0.114  10.049 -0.0462  0.2289 -0.0320
  180SLPC   H6X20626   5.073   0.122  10.016  0.6463 -2.4767  1.3194
  180SLPC   H6Y20627   4.911   0.198  10.002 -0.4238  0.1697  0.3109
  180SLPC   C3720628   4.932  -0.022  10.000 -0.1870 -0.1742 -0.1147
  180SLPC   H7X20629   4.823  -0.039  10.016 -0.3616  2.5457  1.7448
  180SLPC   H7Y20630   4.985  -0.110  10.042 -0.6701  0.1272  1.1340
  180SLPC   C3820631   4.957  -0.027   9.844  0.5427  0.1208 -0.2532
  180SLPC   H8X20632   5.065  -0.022   9.818  1.3938 -1.3982  2.7368
  180SLPC   H8Y20633   4.919   0.074   9.817 -0.8693 -0.5158 -0.7166
  180SLPC   C3920634   4.889  -0.142   9.781 -0.2352 -0.0170  0.2546
  180SLPC   H9X20635   4.785  -0.125   9.746 -1.1300 -2.4143  1.6143
  180SLPC   H9Y20636   4.869  -0.218   9.859  1.6161  0.1354  0.9113
  180SLPC  C31020637   4.972  -0.214   9.673  0.5470  0.7839  0.1219
  180SLPC  H10X20638   5.063  -0.266   9.709  1.3179  0.7005 -1.8799
  180SLPC  H10Y20639   5.003  -0.128   9.609 -0.3968  2.1462  1.4743
  180SLPC  C31120640   4.888  -0.310   9.594 -0.9376  0.2598 -0.4113
  180SLPC  H11X20641   4.786  -0.267   9.581 -1.8375 -1.2471  1.3445
  180SLPC  H11Y20642   4.877  -0.402   9.656 -2.4874  0.6386 -0.0902
  180SLPC  C31220643   4.950  -0.353   9.462 -0.1706 -0.3832 -0.1696
  180SLPC  H12X20644   5.034  -0.421   9.484  0.4480  0.9281  1.6462
  180SLPC  H12Y20645   4.985  -0.260   9.413 -2.0636  1.8684  2.5591
  180SLPC  C31320646   4.844  -0.408   9.360 -0.2567  0.3534  0.0341
  180SLPC  H13X20647   4.783  -0.318   9.334 -1.4543 -0.2291  0.7857
  180SLPC  H13Y20648   4.790  -0.486   9.417  0.3355 -0.8866 -1.0895
  180SLPC  C31420649   4.909  -0.471   9.233 -0.2361  0.0323 -0.4259
  180SLPC  H14X20650   4.949  -0.571   9.262  0.7265 -0.1254 -2.2209
  180SLPC  H14Y20651   5.000  -0.408   9.222  0.6341 -0.8046  1.6394
  180SLPC  C31520652   4.817  -0.475   9.110  0.0390 -0.2254  0.2112
  180SLPC  H15X20653   4.791  -0.369   9.088 -1.1224 -0.4339  0.5221
  180SLPC  H15Y20654   4.726  -0.532   9.137 -1.0146  0.0957 -2.4903
  180SLPC  C31620655   4.892  -0.534   8.984  0.3630  0.1250  0.7316
  180SLPC  H16X20656   4.932  -0.631   9.022 -0.1607 -0.1844  0.5000
  180SLPC  H16Y20657   4.979  -0.469   8.964  1.6881 -1.6866  0.4738
  180SLPC  C31720658   4.804  -0.553   8.866 -0.1720 -0.2496 -0.1911
  180SLPC  H17X20659   4.765  -0.453   8.840  1.0800 -0.0514 -1.3469
  180SLPC  H17Y20660   4.723  -0.628   8.883 -0.1463 -0.0436  0.8786
  180SLPC  C31820661   4.889  -0.607   8.752 -0.3204  0.2710  0.0099
  180SLPC  H18X20662   4.829  -0.655   8.671 -0.0158 -1.2016  0.6489
  180SLPC  H18Y20663   4.953  -0.690   8.788  1.3002  0.5877 -2.0008
  180SLPC  H18Z20664   4.943  -0.519   8.709  0.1854  0.5056  1.1207
  181SLPC     N20665   0.117   4.428  11.331 -1.2564 -0.0447  0.0136
  181SLPC   C1320666   0.027   4.445  11.447 -0.0943  0.3772  0.0040
  181SLPC  H13A20667  -0.005   4.548  11.452  2.0160  1.2269 -2.4871
  181SLPC  H13B20668  -0.056   4.375  11.445 -0.6384  0.9307  2.5023
  181SLPC  H13C20669   0.076   4.426  11.541 -2.5339 -1.3065  1.0124
  181SLPC   C1420670   0.139   4.283  11.318 -0.1280  0.4805  0.3585
  181SLPC  H14A20671   0.047   4.236  11.287 -0.4021  0.3216  1.3844
  181SLPC  H14B20672   0.208   4.256  11.240 -1.2889 -2.8103  0.3936
  181SLPC  H14C20673   0.178   4.244  11.411 -1.6149 -0.0387  0.7721
  181SLPC   C1520674   0.233   4.506  11.367  0.2393 -0.3660  0.0131
  181SLPC  H15A20675   0.200   4.609  11.370 -0.4937 -0.6378  1.9470
  181SLPC  H15B20676   0.286   4.481  11.458 -0.1698  0.9122  0.6137
  181SLPC  H15C20677   0.305   4.494  11.287 -0.5229 -2.2577 -0.4038
  181SLPC   C1220678   0.054   4.484  11.203  0.0069  0.0060  0.2854
  181SLPC  H12A20679   0.033   4.590  11.208 -0.0281 -0.0394  1.1594
  181SLPC  H12B20680  -0.043   4.437  11.199 -0.7058  1.4776 -0.0574
  181SLPC   C1120681   0.128   4.474  11.068 -0.0612 -0.1030 -0.5473
  181SLPC  H11A20682   0.060   4.516  10.990 -0.0511  0.0280 -0.4857
  181SLPC  H11B20683   0.148   4.366  11.047  1.7843 -0.2209  1.6601
  181SLPC     P20684   0.269   4.686  11.013  0.2228 -0.1255  0.2458
  181SLPC   O1320685   0.170   4.779  11.068  0.2616 -0.7665 -0.4624
  181SLPC   O1420686   0.407   4.721  11.032  0.3696 -0.2747 -0.4674
  181SLPC   O1220687   0.253   4.543  11.075  0.3926  0.2596 -0.2363
  181SLPC   O1120688   0.247   4.658  10.863 -0.0855 -0.0073  0.3673
  181SLPC    C120689   0.333   4.567  10.794 -0.1100  0.4081 -0.2411
  181SLPC    HA20690   0.384   4.497  10.864 -2.4633 -0.8693  0.2249
  181SLPC    HB20691   0.276   4.499  10.726  1.5163 -2.6886  1.3953
  181SLPC    C220692   0.442   4.629  10.699 -0.8667  0.2297  0.3863
  181SLPC    HS20693   0.479   4.721  10.750 -2.6059  0.4633  1.2436
  181SLPC   O2120694   0.389   4.653  10.569  0.1017  0.1996  0.7347
  181SLPC   C2120695   0.337   4.772  10.546 -0.1381 -0.0829 -0.9620
  181SLPC   O2220696   0.350   4.864  10.618 -0.2627  0.1727 -0.0887
  181SLPC   C2220697   0.267   4.781  10.411 -0.1194  0.0010  0.1621
  181SLPC   H2R20698   0.172   4.724  10.417 -0.3779  0.2950 -0.8918
  181SLPC   H2S20699   0.246   4.886  10.381  3.0145  0.9315  1.0176
  181SLPC    C320700   0.559   4.524  10.688  0.2337  0.0727  0.0746
  181SLPC    HX20701   0.530   4.437  10.625  2.3406 -0.2079 -0.5603
  181SLPC    HY20702   0.574   4.478  10.788 -1.5101  0.8237  0.6996
  181SLPC   O3120703   0.677   4.581  10.624  0.4699  0.6002 -0.4563
  181SLPC   C3120704   0.796   4.547  10.676  0.0120  0.4817 -0.3318
  181SLPC   O3220705   0.808   4.464  10.768  0.6562 -0.3307 -0.1667
  181SLPC   C3220706   0.907   4.621  10.610 -0.2929 -0.3668 -0.1956
  181SLPC   H2X20707   1.000   4.572  10.644 -0.6184 -0.2006  0.9636
  181SLPC   H2Y20708   0.922   4.725  10.646 -0.4914  0.4163 -2.2692
  181SLPC   C2320709   0.352   4.723  10.290 -0.3074 -0.8631 -0.0625
  181SLPC   H3R20710   0.293   4.716  10.196  1.8043 -1.1513 -1.4125
  181SLPC   H3S20711   0.369   4.619  10.323  3.1670  0.6333  3.1789
  181SLPC   C2420712   0.490   4.785  10.264 -0.3106 -0.8092 -0.5122
  181SLPC   H4R20713   0.541   4.792  10.362  1.5640  1.8197 -1.5887
  181SLPC   H4S20714   0.465   4.890  10.238  1.2996  0.4718  2.8393
  181SLPC   C2520715   0.587   4.712  10.164 -0.6562 -0.2915  0.1538
  181SLPC   H5R20716   0.588   4.603  10.186 -2.3394  0.0162  1.8479
  181SLPC   H5S20717   0.693   4.745  10.157 -0.0579 -2.6639 -3.3477
  181SLPC   C2620718   0.527   4.710  10.017 -0.3025  0.3633  0.3835
  181SLPC   H6R20719   0.416   4.711  10.019 -0.3690  3.2625 -1.3926
  181SLPC   H6S20720   0.564   4.623   9.957 -2.4986  0.4383 -1.1280
  181SLPC   C2720721   0.559   4.836   9.930  0.1243  0.3502 -0.4692
  181SLPC   H7R20722   0.666   4.863   9.921  0.3017  0.0443  0.6491
  181SLPC   H7S20723   0.523   4.930   9.978  0.4882 -0.2268  0.9658
  181SLPC   C2820724   0.504   4.816   9.794 -0.3661  0.0009  0.7914
  181SLPC   H8R20725   0.513   4.709   9.767  1.6553  0.3168  0.1115
  181SLPC   H8S20726   0.568   4.868   9.720 -0.5203 -1.1826 -0.1750
  181SLPC   C2920727   0.357   4.860   9.772 -0.5803 -0.3749 -0.6146
  181SLPC   H9R20728   0.292   4.812   9.846  0.1607  2.0734  1.7342
  181SLPC  C21020729   0.308   4.928   9.668 -0.1130  0.2599 -0.0630
  181SLPC  H10R20730   0.202   4.954   9.669 -0.1527  0.1150 -0.4502
  181SLPC  C21120731   0.385   4.968   9.546  0.9086 -0.0665  0.8786
  181SLPC  H11R20732   0.477   4.907   9.538 -0.0056 -1.4497  0.7388
  181SLPC  H11S20733   0.417   5.073   9.559 -1.1810  1.3378 -3.9369
  181SLPC  C21220734   0.300   4.960   9.418 -0.0880 -0.2599  0.0890
  181SLPC  H12R20735   0.280   4.858   9.383  0.6986 -0.6444  0.7414
  181SLPC  C21320736   0.272   5.058   9.326 -0.3040  0.5431 -0.7173
  181SLPC  H13R20737   0.209   5.029   9.241  0.6608 -0.0233 -1.2456
  181SLPC  C21420738   0.315   5.205   9.331 -0.1903  0.3841 -0.8920
  181SLPC  H14R20739   0.393   5.222   9.408 -1.4495 -1.5602  0.8790
  181SLPC  H14S20740   0.225   5.268   9.349 -0.7079  0.1123 -2.4430
  181SLPC  C21520741   0.385   5.256   9.201  0.1950 -0.0044 -0.7288
  181SLPC  H15R20742   0.489   5.217   9.194  0.2605  0.3515 -1.8152
  181SLPC  H15S20743   0.395   5.365   9.224 -1.9709  0.5686 -2.3860
  181SLPC  C21620744   0.292   5.237   9.082 -0.5449 -0.3233 -0.3434
  181SLPC  H16R20745   0.191   5.264   9.119  0.3675 -1.4642  3.2061
  181SLPC  H16S20746   0.293   5.128   9.059  2.4990 -0.5606  0.6169
  181SLPC  C21720747   0.311   5.312   8.951 -0.5488  0.1823  0.0729
  181SLPC  H17R20748   0.417   5.311   8.915 -0.1675  1.3535  1.1228
  181SLPC  H17S20749   0.292   5.415   8.987  1.7714  1.1748 -1.3832
  181SLPC  C21820750   0.220   5.265   8.842  0.0566 -0.2698  0.4116
  181SLPC  H18R20751   0.259   5.170   8.799 -2.2517 -1.1611  0.2324
  181SLPC  H18S20752   0.216   5.343   8.763 -2.1537  0.2860  1.0376
  181SLPC  H18T20753   0.118   5.241   8.880  0.1880 -0.9641  0.3382
  181SLPC   C3320754   0.898   4.641  10.455 -0.9628 -0.0441  0.2128
  181SLPC   H3X20755   0.804   4.696  10.434  1.2496  2.8510 -2.4880
  181SLPC   H3Y20756   0.893   4.542  10.406 -1.5291  0.1840 -0.1935
  181SLPC   C3420757   1.013   4.724  10.398 -0.4758  0.2254  0.1206
  181SLPC   H4X20758   1.110   4.679  10.429  0.1305 -0.4199 -2.5496
  181SLPC   H4Y20759   0.997   4.828  10.434  0.1761  0.6588 -0.7904
  181SLPC   C3520760   1.013   4.718  10.239 -0.0466  0.0710  0.0086
  181SLPC   H5X20761   0.911   4.741  10.201  0.4957  1.1615 -0.8336
  181SLPC   H5Y20762   1.040   4.613  10.218  2.7972  0.5642  1.0304
  181SLPC   C3620763   1.113   4.815  10.179  0.4339  0.1461 -0.7367
  181SLPC   H6X20764   1.202   4.791  10.242 -0.3468 -3.1334 -0.7716
  181SLPC   H6Y20765   1.077   4.914  10.215 -0.1593 -0.4905  0.4597
  181SLPC   C3720766   1.131   4.807  10.032 -0.5299  0.2266  0.1436
  181SLPC   H7X20767   1.125   4.698  10.013  1.5701  0.3638 -1.6240
  181SLPC   H7Y20768   1.233   4.841  10.002 -0.5008 -1.5920 -1.9604
  181SLPC   C3820769   1.016   4.867   9.951  0.4219 -0.2220  0.1302
  181SLPC   H8X20770   1.004   4.974   9.978 -2.1941 -0.2951 -0.6319
  181SLPC   H8Y20771   0.918   4.823   9.980  0.9633  0.3708  2.9803
  181SLPC   C3920772   1.032   4.844   9.800  0.0297 -0.1951 -0.3508
  181SLPC   H9X20773   1.044   4.734   9.790 -2.2968 -0.4228 -0.7713
  181SLPC   H9Y20774   1.121   4.893   9.756  0.1055 -0.4816 -0.5138
  181SLPC  C31020775   0.913   4.872   9.714  0.2749 -0.2466 -0.6037
  181SLPC  H10X20776   0.895   4.980   9.735 -1.8723 -0.5948 -0.5427
  181SLPC  H10Y20777   0.822   4.821   9.755 -0.9484  2.0187 -0.4095
  181SLPC  C31120778   0.917   4.840   9.561 -0.3574  0.3047 -0.3260
  181SLPC  H11X20779   0.964   4.740   9.558 -2.3624 -0.7340  1.4436
  181SLPC  H11Y20780   0.982   4.917   9.514  2.2136  0.3667  3.0923
  181SLPC  C31220781   0.771   4.839   9.496 -0.3948 -0.9344 -0.0770
  181SLPC  H12X20782   0.741   4.944   9.518 -0.5872 -1.2461  1.1766
  181SLPC  H12Y20783   0.715   4.756   9.544 -0.9994  0.9105  2.5279
  181SLPC  C31320784   0.770   4.820   9.345 -0.6806 -0.6609 -0.0165
  181SLPC  H13X20785   0.810   4.720   9.316 -0.0378 -0.0357 -1.2960
  181SLPC  H13Y20786   0.832   4.895   9.292  0.6998 -2.2887 -0.7878
  181SLPC  C31420787   0.638   4.839   9.285  0.2073  0.3318 -0.3851
  181SLPC  H14X20788   0.599   4.942   9.298 -0.2353 -0.2205  2.9650
  181SLPC  H14Y20789   0.567   4.770   9.334  1.2315  0.0445  0.7133
  181SLPC  C31520790   0.630   4.816   9.136  0.1668 -0.6101  0.0053
  181SLPC  H15X20791   0.662   4.710   9.126  0.6443 -0.2997 -1.8755
  181SLPC  H15Y20792   0.699   4.871   9.068  0.9300 -1.6675 -0.0966
  181SLPC  C31620793   0.485   4.828   9.082 -0.5862  0.0685  0.0255
  181SLPC  H16X20794   0.424   4.907   9.131 -1.7183 -0.4917 -0.4849
  181SLPC  H16Y20795   0.429   4.740   9.120 -2.0644  0.0061 -2.2163
  181SLPC  C31720796   0.477   4.840   8.932  0.5462  0.0596 -0.2598
  181SLPC  H17X20797   0.497   4.741   8.884 -2.0876  0.0550 -1.4296
  181SLPC  H17Y20798   0.561   4.901   8.894  0.4015  0.0189 -0.6458
  181SLPC  C31820799   0.335   4.890   8.887 -0.3836 -0.0470  0.2314
  181SLPC  H18X20800   0.260   4.820   8.929  0.4303 -0.8313  0.3965
  181SLPC  H18Y20801   0.330   4.911   8.778 -2.2236 -2.9712 -0.2942
  181SLPC  H18Z20802   0.315   4.982   8.946  2.5231  0.8329 -0.0757
  182SLPC     N20803   5.535   5.156  11.085 -0.8305  1.0972 -0.1321
  182SLPC   C1320804   5.537   5.013  11.058 -0.3820  0.3093  0.1869
  182SLPC  H13A20805   5.594   5.003  10.967 -3.4069  3.5660 -2.2013
  182SLPC  H13B20806   5.583   4.969  11.145  1.6542  0.7148 -0.6684
  182SLPC  H13C20807   5.439   4.969  11.043 -0.1116 -0.8805  1.7105
  182SLPC   C1420808   5.468   5.179  11.218  0.2629  0.1617  0.5162
  182SLPC  H14A20809   5.530   5.135  11.295  1.5619  0.4011 -0.3707
  182SLPC  H14B20810   5.464   5.287  11.222 -1.3367  0.1780 -0.9792
  182SLPC  H14C20811   5.368   5.138  11.218 -0.1409  1.1119 -0.8019
  182SLPC   C1520812   5.458   5.230  10.980  0.0526  0.6374 -0.2936
  182SLPC  H15A20813   5.358   5.190  10.987 -0.5531  2.2185  0.3409
  182SLPC  H15B20814   5.457   5.334  11.007  1.0383 -0.3036  3.6679
  182SLPC  H15C20815   5.498   5.216  10.881 -2.8676 -0.3447 -1.3761
  182SLPC   C1220816   5.669   5.205  11.095 -0.7610 -0.4822 -0.0396
  182SLPC  H12A20817   5.720   5.158  11.178  0.9228  0.4649 -0.5221
  182SLPC  H12B20818   5.673   5.310  11.120 -0.7741  0.1168 -2.4478
  182SLPC   C1120819   5.742   5.190  10.954  0.2279  0.2844 -0.0235
  182SLPC  H11A20820   5.734   5.086  10.915 -1.1236  1.3916 -2.8916
  182SLPC  H11B20821   5.853   5.195  10.960  0.2782  1.9321 -1.7353
  182SLPC     P20822   5.791   5.383  10.794  0.4156  0.1332 -0.1407
  182SLPC   O1320823   5.777   5.504  10.877  0.1582 -0.1233  0.8316
  182SLPC   O1420824   5.926   5.325  10.767  0.0872 -0.5671 -0.0035
  182SLPC   O1220825   5.691   5.275  10.850 -0.0781  0.1304  0.2683
  182SLPC   O1120826   5.732   5.406  10.657 -0.4133 -0.4861  0.3159
  182SLPC    C120827   5.682   5.308  10.567  0.4704 -0.0466 -0.1478
  182SLPC    HA20828   5.658   5.213  10.619 -1.7189 -0.5771 -2.0418
  182SLPC    HB20829   5.583   5.348  10.538 -0.8085 -1.5238  2.0167
  182SLPC    C220830   5.766   5.264  10.453 -0.6240  0.6298 -0.5114
  182SLPC    HS20831   5.869   5.249  10.492 -0.7836  0.8689  0.0119
  182SLPC   O2120832   5.764   5.369  10.359 -0.0228  0.2350 -0.3058
  182SLPC   C2120833   5.882   5.404  10.306  0.2512 -0.0345 -0.1190
  182SLPC   O2220834   5.990   5.350  10.330 -0.1312  0.0037  0.1684
  182SLPC   C2220835   5.861   5.528  10.215  1.2765 -0.3360 -0.1361
  182SLPC   H2R20836   5.799   5.603  10.268 -1.5661 -2.6026 -0.1683
  182SLPC   H2S20837   5.957   5.578  10.188  0.8273 -0.8282 -2.8258
  182SLPC    C320838   5.702   5.138  10.386  0.6597  0.1513  0.5128
  182SLPC    HX20839   5.599   5.160  10.349  1.6136  2.1867 -1.0573
  182SLPC    HY20840   5.691   5.060  10.464  2.7574 -0.8567 -0.1818
  182SLPC   O3120841   5.780   5.091  10.275  0.0285  0.0338 -0.2541
  182SLPC   C3120842   5.888   5.032  10.316  0.9828  0.1933 -0.1891
  182SLPC   O3220843   5.913   4.998  10.433 -0.2532 -0.1883 -0.0300
  182SLPC   C3220844   5.978   5.015  10.192 -0.3979  0.1597 -1.0517
  182SLPC   H2X20845   6.025   5.113  10.169  0.6120  0.3630  1.7827
  182SLPC   H2Y20846   5.911   4.984  10.109 -2.5401 -2.3942  1.5278
  182SLPC   C2320847   5.775   5.485  10.096 -0.1234  0.0675  0.1276
  182SLPC   H3R20848   5.734   5.570  10.038  1.5250  0.7281 -0.0889
  182SLPC   H3S20849   5.687   5.432  10.138  0.0810  0.1833  0.7197
  182SLPC   C2420850   5.834   5.382   9.996 -0.0355  0.1788 -0.0269
  182SLPC   H4R20851   5.889   5.299  10.045 -1.6102 -1.2733 -0.6627
  182SLPC   H4S20852   5.905   5.437   9.931 -2.0419  0.6057 -1.9322
  182SLPC   C2520853   5.729   5.321   9.908 -0.3811  0.0074 -1.1221
  182SLPC   H5R20854   5.649   5.396   9.887 -0.9466  0.4454  2.2945
  182SLPC   H5S20855   5.686   5.236   9.963 -0.3154 -0.9867 -2.5752
  182SLPC   C2620856   5.784   5.275   9.773  0.2454 -0.4263  0.0225
  182SLPC   H6R20857   5.864   5.200   9.789  1.8246  1.6381  1.9203
  182SLPC   H6S20858   5.837   5.356   9.720 -0.7075  0.8272  0.9454
  182SLPC   C2720859   5.677   5.214   9.681 -0.4344 -0.3492 -0.8246
  182SLPC   H7R20860   5.614   5.299   9.648  0.7971  0.8806 -0.0719
  182SLPC   H7S20861   5.626   5.147   9.755 -1.6646 -1.1858 -2.4004
  182SLPC   C2820862   5.751   5.148   9.561 -0.6872  0.0820  0.3755
  182SLPC   H8R20863   5.819   5.069   9.598 -1.0088  0.1591  1.1445
  182SLPC   H8S20864   5.827   5.219   9.522 -1.2258 -0.3397 -1.4823
  182SLPC   C2920865   5.659   5.093   9.461 -0.1003 -0.0301 -0.3295
  182SLPC   H9R20866   5.581   5.034   9.513 -0.4386  0.7823  0.0994
  182SLPC  C21020867   5.654   5.113   9.335  0.6550 -0.2164 -0.0171
  182SLPC  H10R20868   5.571   5.062   9.284 -0.1315  0.8393  0.1859
  182SLPC  C21120869   5.742   5.187   9.239  0.2461 -0.0743  0.5829
  182SLPC  H11R20870   5.827   5.230   9.297 -0.8050  3.1023 -0.1456
  182SLPC  H11S20871   5.685   5.278   9.211 -1.3430 -1.5124 -0.9924
  182SLPC  C21220872   5.793   5.104   9.126 -0.4987 -0.1575  0.2039
  182SLPC  H12R20873   5.830   5.005   9.158  1.3062  0.6438  0.6794
  182SLPC  C21320874   5.788   5.133   8.999 -0.8062 -0.2613  0.0001
  182SLPC  H13R20875   5.828   5.056   8.930 -0.2309  1.4696 -1.6361
  182SLPC  C21420876   5.732   5.258   8.927 -0.6158  0.2358  0.4147
  182SLPC  H14R20877   5.817   5.308   8.875 -0.1842 -2.0856 -1.1859
  182SLPC  H14S20878   5.703   5.329   9.007  0.0600 -1.6025  2.3497
  182SLPC  C21520879   5.633   5.214   8.830 -0.5677 -0.0682  0.3530
  182SLPC  H15R20880   5.531   5.201   8.873  0.1245  1.9846  2.6993
  182SLPC  H15S20881   5.668   5.127   8.771  0.1692  0.5743 -0.1715
  182SLPC  C21620882   5.611   5.317   8.716  0.9265  0.4888 -0.4999
  182SLPC  H16R20883   5.699   5.305   8.649  0.0736 -0.8920 -1.3748
  182SLPC  H16S20884   5.602   5.424   8.745 -1.7359 -0.2997  1.7825
  182SLPC  C21720885   5.493   5.277   8.634  0.2394  0.3711  0.5695
  182SLPC  H17R20886   5.396   5.306   8.680 -0.2566 -0.4365  0.0480
  182SLPC  H17S20887   5.488   5.166   8.628 -1.3672  0.1577  4.4017
  182SLPC  C21820888   5.497   5.326   8.486  0.1045 -0.3271 -1.5387
  182SLPC  H18R20889   5.487   5.436   8.476  2.4771  0.3164  2.1846
  182SLPC  H18S20890   5.414   5.275   8.431 -0.6722 -1.4809  0.6482
  182SLPC  H18T20891   5.596   5.300   8.442 -0.5088 -1.7191 -2.1367
  182SLPC   C3320892   6.077   4.901  10.227 -0.2139  0.3842 -0.4979
  182SLPC   H3X20893   6.041   4.796  10.219  1.0214  0.0212 -1.4569
  182SLPC   H3Y20894   6.118   4.919  10.329 -1.8950  0.9792  0.0967
  182SLPC   C3420895   6.193   4.895  10.119 -0.2638 -0.6772 -1.0966
  182SLPC   H4X20896   6.149   4.864  10.022 -1.7694  0.3766 -0.7668
  182SLPC   H4Y20897   6.269   4.821  10.152 -0.1340  0.3002  0.8858
  182SLPC   C3520898   6.270   5.026  10.100 -0.1356  0.3077 -0.3910
  182SLPC   H5X20899   6.300   5.051  10.204 -1.9128 -0.2121  0.2639
  182SLPC   H5Y20900   6.209   5.115  10.072 -0.7067 -0.0586 -0.3236
  182SLPC   C3620901   6.396   5.020  10.011  0.1764  0.2866  0.1243
  182SLPC   H6X20902   6.451   4.924  10.021 -0.4015 -0.5001 -3.6220
  182SLPC   H6Y20903   6.465   5.104  10.037 -0.4228  1.3706 -1.6846
  182SLPC   C3720904   6.369   5.021   9.857  0.2845 -0.3387 -0.4359
  182SLPC   H7X20905   6.307   4.933   9.829 -2.8967  1.1781  1.5575
  182SLPC   H7Y20906   6.465   4.999   9.806  0.6597 -0.2370  0.2299
  182SLPC   C3820907   6.309   5.145   9.802  0.2022  0.3974 -0.2754
  182SLPC   H8X20908   6.386   5.226   9.800 -0.6264  1.1845 -0.8319
  182SLPC   H8Y20909   6.218   5.192   9.845 -1.2559 -2.3897 -0.2178
  182SLPC   C3920910   6.266   5.126   9.655  0.4482 -0.9117 -0.1426
  182SLPC   H9X20911   6.207   5.033   9.667  0.2335 -0.5073  2.3351
  182SLPC   H9Y20912   6.353   5.100   9.591 -0.4702 -0.2006 -1.6925
  182SLPC  C31020913   6.192   5.246   9.583  0.0580  1.1069  0.9357
  182SLPC  H10X20914   6.254   5.336   9.604  0.3999  0.3671  3.1784
  182SLPC  H10Y20915   6.096   5.268   9.634 -1.0476 -0.2481 -0.5039
  182SLPC  C31120916   6.184   5.222   9.426 -0.8686  0.4024 -0.0892
  182SLPC  H11X20917   6.127   5.126   9.415 -1.3737  0.7111 -0.1752
  182SLPC  H11Y20918   6.287   5.206   9.387 -0.6963  1.7533 -0.1885
  182SLPC  C31220919   6.108   5.333   9.363 -0.2546 -0.2856 -0.9756
  182SLPC  H12X20920   6.139   5.430   9.407 -0.8479 -0.7184  0.4530
  182SLPC  H12Y20921   6.009   5.319   9.412 -0.7401  1.8188 -1.2749
  182SLPC  C31320922   6.100   5.332   9.213 -0.9349 -0.3182 -0.3342
  182SLPC  H13X20923   6.046   5.239   9.185 -2.2917  0.4430 -0.2496
  182SLPC  H13Y20924   6.202   5.340   9.170  0.6852  0.5678  3.4865
  182SLPC  C31420925   6.015   5.452   9.171 -0.5603 -0.4085 -0.8984
  182SLPC  H14X20926   6.014   5.546   9.230 -0.2413 -0.0730 -1.4159
  182SLPC  H14Y20927   5.909   5.420   9.176 -0.5046 -0.7089 -1.5149
  182SLPC  C31520928   6.037   5.494   9.025 -0.4840 -0.7816  0.8652
  182SLPC  H15X20929   5.995   5.415   8.959  0.4861  1.0434 -2.0405
  182SLPC  H15Y20930   6.147   5.504   9.014 -0.8328  0.7107 -1.6423
  182SLPC  C31620931   5.971   5.624   8.988  0.6509 -0.2531  0.6704
  182SLPC  H16X20932   6.031   5.707   9.033  2.0803  0.0077 -1.6628
  182SLPC  H16Y20933   5.871   5.640   9.033  0.4122  2.1856 -0.6556
  182SLPC  C31720934   5.969   5.648   8.837  0.4308  1.1142 -0.7343
  182SLPC  H17X20935   5.972   5.549   8.786  2.1473 -0.2844  1.9952
  182SLPC  H17Y20936   6.049   5.716   8.801  2.3714  0.0730  1.4715
  182SLPC  C31820937   5.836   5.725   8.810 -0.3591  0.4991  0.4743
  182SLPC  H18X20938   5.834   5.821   8.866  1.9366  1.3016 -0.7809
  182SLPC  H18Y20939   5.753   5.661   8.847  0.1094 -0.7696 -0.6204
  182SLPC  H18Z20940   5.832   5.739   8.700  1.5676 -1.3190  0.1411
  183SLPC     N20941   0.780   5.846  10.975  0.1511 -0.0103  0.0229
  183SLPC   C1320942   0.740   5.744  11.073 -0.6463  0.2450 -0.6461
  183SLPC  H13A20943   0.780   5.761  11.172 -2.8733  0.8399  0.1857
  183SLPC  H13B20944   0.638   5.743  11.107  0.1978  1.4262  2.0059
  183SLPC  H13C20945   0.764   5.648  11.028  1.2750  1.2693 -1.8536
  183SLPC   C1420946   0.925   5.826  10.952  0.1771 -0.3546  0.9716
  183SLPC  H14A20947   0.941   5.724  10.920 -0.3357  0.2637 -1.2877
  183SLPC  H14B20948   0.959   5.886  10.869 -1.3473 -0.5429  0.1962
  183SLPC  H14C20949   0.986   5.840  11.041  1.1497  0.8427  0.1294
  183SLPC   C1520950   0.768   5.975  11.045 -0.2415  0.2927 -0.5479
  183SLPC  H15A20951   0.671   5.999  11.085 -0.3991 -0.4343 -0.4879
  183SLPC  H15B20952   0.835   5.993  11.128 -0.9409 -0.7575  0.2511
  183SLPC  H15C20953   0.793   6.052  10.973  2.0238  0.3140  0.2150
  183SLPC   C1220954   0.693   5.839  10.853  0.5583 -1.0477 -0.8520
  183SLPC  H12A20955   0.590   5.858  10.882  0.7134 -1.6412  0.1080
  183SLPC  H12B20956   0.693   5.736  10.820  0.7085 -0.7970 -1.6424
  183SLPC   C1120957   0.723   5.924  10.728  0.5130  0.0637  0.5890
  183SLPC  H11A20958   0.640   5.909  10.656  1.2652 -2.0236  0.1331
  183SLPC  H11B20959   0.816   5.887  10.680 -0.2094 -1.9739  0.7233
  183SLPC     P20960   0.834   6.159  10.716 -0.1299  0.5026 -0.4001
  183SLPC   O1320961   0.777   6.294  10.720  0.1472  0.1690 -0.2889
  183SLPC   O1420962   0.957   6.129  10.792 -0.5259 -0.3320  0.2356
  183SLPC   O1220963   0.721   6.066  10.765 -0.1493  0.3222  0.0813
  183SLPC   O1120964   0.868   6.119  10.558  0.3888  0.1006  0.1506
  183SLPC    C120965   0.788   6.170  10.453 -0.2026  0.5187 -0.7851
  183SLPC    HA20966   0.696   6.113  10.432 -0.4834  0.9975 -0.8735
  183SLPC    HB20967   0.766   6.279  10.459  1.6121  0.9742 -2.0928
  183SLPC    C220968   0.868   6.157  10.313 -0.1777 -0.4349  0.3259
  183SLPC    HS20969   0.816   6.201  10.225 -2.1263 -0.7804  1.2594
  183SLPC   O2120970   0.906   6.024  10.279 -0.5448 -0.0632  0.1069
  183SLPC   C2120971   0.821   5.947  10.220 -0.4928 -0.0782  0.2244
  183SLPC   O2220972   0.711   5.980  10.185 -0.1622 -0.4323  0.2051
  183SLPC   C2220973   0.869   5.804  10.208 -0.6247  0.4033  0.2013
  183SLPC   H2R20974   0.969   5.800  10.256 -1.1531  0.5319  1.3240
  183SLPC   H2S20975   0.804   5.743  10.275  1.6360 -1.7065  0.5153
  183SLPC    C320976   1.007   6.239  10.332  0.1372 -0.2082  0.3366
  183SLPC    HX20977   1.049   6.202  10.429 -1.0111  1.4140  1.4716
  183SLPC    HY20978   0.979   6.344  10.353 -1.5183 -0.8587  1.5104
  183SLPC   O3120979   1.092   6.226  10.215  0.0004 -0.1496  0.0463
  183SLPC   C3120980   1.204   6.289  10.214  0.4065 -0.3308  0.1891
  183SLPC   O3220981   1.240   6.373  10.299  0.0282  0.2496 -0.8156
  183SLPC   C3220982   1.279   6.262  10.077  0.3580 -0.0323 -0.6272
  183SLPC   H2X20983   1.314   6.156  10.077 -1.1604 -0.5474 -1.2828
  183SLPC   H2Y20984   1.354   6.343  10.070  0.6513 -0.3229 -0.8164
  183SLPC   C2320985   0.860   5.753  10.065 -0.0710  0.0575  0.1274
  183SLPC   H3R20986   0.766   5.783  10.016  0.5130 -0.3925 -1.2907
  183SLPC   H3S20987   0.856   5.642  10.063  0.9182 -0.0274  1.6748
  183SLPC   C2420988   0.986   5.802   9.985  0.0450 -0.5824  0.3090
  183SLPC   H4R20989   1.059   5.719   9.972 -0.4723 -0.8175 -1.2068
  183SLPC   H4S20990   1.046   5.874  10.044  0.6237 -1.8624  1.3333
  183SLPC   C2520991   0.939   5.850   9.842  0.1814  0.4461  0.6906
  183SLPC   H5R20992   0.875   5.774   9.792  0.5680  1.1531 -0.9105
  183SLPC   H5S20993   1.032   5.846   9.783 -0.9555 -2.7030 -0.9827
  183SLPC   C2620994   0.873   5.983   9.828  0.2150  1.0387 -0.4431
  183SLPC   H6R20995   0.911   6.059   9.899 -0.5797  1.4291 -0.4257
  183SLPC   H6S20996   0.765   5.961   9.842 -0.0989  2.0347 -1.2350
  183SLPC   C2720997   0.910   6.040   9.688  0.3546  0.5939  0.7106
  183SLPC   H7R20998   0.870   5.968   9.614 -1.2433  3.4218 -1.2658
  183SLPC   H7S20999   1.020   6.054   9.688  0.5261 -0.6555  1.3661
  183SLPC   C2821000   0.834   6.172   9.676 -0.5629 -0.6801 -0.1173
  183SLPC   H8R21001   0.855   6.231   9.768 -0.0828 -0.8588 -0.1107
  183SLPC   H8S21002   0.725   6.152   9.683 -0.5922 -0.2177  0.9956
  183SLPC   C2921003   0.884   6.254   9.561  0.1667 -0.3335  0.3794
  183SLPC   H9R21004   0.958   6.335   9.574 -2.0099  1.7409  0.0610
  183SLPC  C21021005   0.853   6.222   9.433  0.3587 -0.6706 -0.1163
  183SLPC  H10R21006   0.889   6.293   9.357  0.1505 -1.1632 -0.6779
  183SLPC  C21121007   0.761   6.110   9.381  0.6207  0.6277  0.7864
  183SLPC  H11R21008   0.674   6.086   9.447 -1.0975  0.2512 -1.5388
  183SLPC  H11S21009   0.821   6.017   9.372  0.3523  0.5367 -0.1069
  183SLPC  C21221010   0.691   6.145   9.253 -0.2082 -0.1707  1.0207
  183SLPC  H12R21011   0.581   6.144   9.261 -0.4310  0.3682 -1.6070
  183SLPC  C21321012   0.736   6.144   9.124  0.5072 -0.1728  0.0084
  183SLPC  H13R21013   0.671   6.185   9.045  0.7559 -0.5688 -0.4058
  183SLPC  C21421014   0.880   6.121   9.077  0.0287 -0.3066  0.0640
  183SLPC  H14R21015   0.888   6.022   9.029 -0.8876  0.6236 -2.0914
  183SLPC  H14S21016   0.958   6.137   9.154 -2.4441 -2.3234  3.0740
  183SLPC  C21521017   0.915   6.231   8.975  0.3206 -1.0900  0.0331
  183SLPC  H15R21018   0.911   6.336   9.011 -0.4191 -1.0943 -0.0466
  183SLPC  H15S21019   0.827   6.231   8.907  1.7342  2.2156 -1.9316
  183SLPC  C21621020   1.038   6.190   8.893 -0.0879 -0.0729 -0.1023
  183SLPC  H16R21021   1.031   6.080   8.882  1.1552 -0.0453 -1.3672
  183SLPC  H16S21022   1.134   6.209   8.944  0.0494 -1.2160  0.0822
  183SLPC  C21721023   1.025   6.254   8.753  0.3799 -0.0630 -0.3069
  183SLPC  H17R21024   1.046   6.363   8.756 -1.8790  0.4469 -1.5123
  183SLPC  H17S21025   0.924   6.247   8.708  0.2633 -0.0456 -0.0511
  183SLPC  C21821026   1.123   6.195   8.654  0.2395 -0.0333 -0.0104
  183SLPC  H18R21027   1.114   6.266   8.569 -1.5079  1.5371  1.4459
  183SLPC  H18S21028   1.100   6.090   8.624  1.0868 -0.0369 -0.6561
  183SLPC  H18T21029   1.226   6.188   8.697  0.3342  0.7860 -0.1035
  183SLPC   C3321030   1.187   6.271   9.945  0.1645  0.2572 -0.5964
  183SLPC   H3X21031   1.110   6.198   9.979 -0.5131  0.8373 -0.8820
  183SLPC   H3Y21032   1.249   6.249   9.856 -0.4744 -0.6609 -0.8232
  183SLPC   C3421033   1.124   6.411   9.910 -0.2167  0.1655  0.4112
  183SLPC   H4X21034   1.047   6.437   9.986  1.2719  2.0707  1.3140
  183SLPC   H4Y21035   1.070   6.388   9.816 -0.9921 -0.0107  0.9015
  183SLPC   C3521036   1.214   6.534   9.885  0.1075  0.1705 -0.3229
  183SLPC   H5X21037   1.262   6.561   9.981 -0.1959  0.6775 -0.3115
  183SLPC   H5Y21038   1.144   6.612   9.848 -0.2396 -1.1502 -2.6309
  183SLPC   C3621039   1.328   6.519   9.789 -0.5384 -0.7770 -0.6630
  183SLPC   H6X21040   1.402   6.446   9.829 -0.1234 -0.1456 -0.2697
  183SLPC   H6Y21041   1.375   6.619   9.785 -1.1963 -0.5014 -1.7898
  183SLPC   C3721042   1.306   6.470   9.645 -0.0923  0.7038  0.7947
  183SLPC   H7X21043   1.282   6.361   9.640 -4.2355  1.5561  0.1101
  183SLPC   H7Y21044   1.401   6.496   9.592  0.8064 -0.1765  1.9485
  183SLPC   C3821045   1.192   6.556   9.579 -0.8993  0.2765 -0.3044
  183SLPC   H8X21046   1.208   6.663   9.604  0.6287  0.2456 -1.0863
  183SLPC   H8Y21047   1.099   6.515   9.623 -0.9151  1.5182  0.8389
  183SLPC   C3921048   1.203   6.539   9.430  0.1451  0.2111 -0.1948
  183SLPC   H9X21049   1.198   6.431   9.409 -1.1544  0.2624 -0.1959
  183SLPC   H9Y21050   1.302   6.576   9.397  0.3928 -1.5766 -1.5206
  183SLPC  C31021051   1.094   6.619   9.355 -0.0216  0.2515  0.4721
  183SLPC  H10X21052   1.131   6.723   9.350 -0.8532  0.5041 -0.8662
  183SLPC  H10Y21053   0.999   6.622   9.413 -1.4108  0.2374 -1.7172
  183SLPC  C31121054   1.047   6.561   9.221 -0.3222  0.0916  0.2383
  183SLPC  H11X21055   1.032   6.451   9.227  0.9165 -0.0709  0.6278
  183SLPC  H11Y21056   1.127   6.582   9.147 -0.3251  4.2279  1.3057
  183SLPC  C31221057   0.933   6.632   9.150  0.2763  0.3007  0.4890
  183SLPC  H12X21058   0.846   6.648   9.217 -0.4701  1.2885 -0.6777
  183SLPC  H12Y21059   0.901   6.556   9.075  0.6376  0.4945  0.1334
  183SLPC  C31321060   0.977   6.757   9.083  0.0239  0.6235 -0.3820
  183SLPC  H13X21061   1.074   6.734   9.034 -0.8422  1.2402 -2.4571
  183SLPC  H13Y21062   0.987   6.836   9.161  0.3727 -0.0200  0.2246
  183SLPC  C31421063   0.889   6.814   8.973 -0.3847 -0.2436  0.0308
  183SLPC  H14X21064   0.796   6.857   9.016 -0.8349  1.2866 -2.3922
  183SLPC  H14Y21065   0.856   6.732   8.905 -0.6254  0.1874 -0.3760
  183SLPC  C31521066   0.953   6.926   8.890  0.1150 -0.7629 -0.2183
  183SLPC  H15X21067   1.060   6.909   8.865  0.1818  0.2167 -0.6182
  183SLPC  H15Y21068   0.947   7.011   8.961 -2.9420  0.1335 -1.4916
  183SLPC  C31621069   0.872   6.955   8.763 -0.7755 -0.0208  0.1891
  183SLPC  H16X21070   0.770   6.982   8.798 -0.9162  1.2759 -1.1704
  183SLPC  H16Y21071   0.866   6.858   8.709  0.4575 -0.3313  0.6098
  183SLPC  C31721072   0.918   7.065   8.670 -0.2044 -0.4971  0.0304
  183SLPC  H17X21073   1.009   7.030   8.617 -0.6764 -1.7843  0.0518
  183SLPC  H17Y21074   0.944   7.157   8.727 -0.8117 -0.5849  0.4575
  183SLPC  C31821075   0.812   7.103   8.564  0.2494  0.3358  0.1744
  183SLPC  H18X21076   0.785   7.016   8.500 -1.7423 -0.0828  1.5435
  183SLPC  H18Y21077   0.854   7.167   8.483  1.0191 -2.0252 -1.3460
  183SLPC  H18Z21078   0.720   7.153   8.599  0.2951  0.5002  0.0620
  184SLPC     N21079   3.166   3.874  10.674 -0.1193 -0.3470  0.4086
  184SLPC   C1321080   3.187   3.749  10.595 -0.0934 -0.0518 -0.0611
  184SLPC  H13A21081   3.158   3.662  10.651  0.6365  0.0353  0.4630
  184SLPC  H13B21082   3.126   3.753  10.506 -1.0342  2.2014  0.6530
  184SLPC  H13C21083   3.290   3.737  10.563  0.0071 -0.2994  0.3575
  184SLPC   C1421084   3.219   3.997  10.601  0.7592  0.2398  0.1185
  184SLPC  H14A21085   3.194   4.087  10.656  0.6580 -1.4214  2.9113
  184SLPC  H14B21086   3.326   3.985  10.593  0.7519  1.3890 -1.9073
  184SLPC  H14C21087   3.170   4.019  10.508 -0.2876  1.0930  0.8510
  184SLPC   C1521088   3.224   3.857  10.814  0.9188 -0.0300 -0.1885
  184SLPC  H15A21089   3.327   3.823  10.810  1.1617  0.5765  0.9030
  184SLPC  H15B21090   3.207   3.951  10.863  0.8033  0.0114 -0.3102
  184SLPC  H15C21091   3.167   3.781  10.865  0.6567 -0.3919 -1.0054
  184SLPC   C1221092   3.009   3.880  10.696  0.3196  0.3106  0.6969
  184SLPC  H12A21093   2.984   3.971  10.749 -0.5695  1.8635 -2.2727
  184SLPC  H12B21094   2.973   3.800  10.758 -0.6237 -0.2370 -0.5315
  184SLPC   C1121095   2.927   3.907  10.569  0.1592 -0.8358 -0.2160
  184SLPC  H11A21096   2.817   3.894  10.579  0.1350 -0.6427 -0.2354
  184SLPC  H11B21097   2.955   3.837  10.487 -0.2033  0.6343 -1.6210
  184SLPC     P21098   2.884   4.172  10.588  0.0472 -0.2003 -0.6453
  184SLPC   O1321099   2.878   4.159  10.737 -0.3190  0.2342  0.4749
  184SLPC   O1421100   2.963   4.291  10.544 -0.2573 -0.1050 -0.2546
  184SLPC   O1221101   2.951   4.040  10.522 -0.0155  0.0184  0.1700
  184SLPC   O1121102   2.740   4.186  10.531 -0.6631 -0.2160 -0.0460
  184SLPC    C121103   2.678   4.130  10.410  0.4558  0.2994 -0.1559
  184SLPC    HA21104   2.699   4.021  10.404 -1.3828 -0.1691  1.3535
  184SLPC    HB21105   2.568   4.143  10.411  0.3982 -0.1484 -0.4067
  184SLPC    C221106   2.721   4.210  10.286 -0.1505  0.2977 -0.1260
  184SLPC    HS21107   2.658   4.179  10.200 -1.6455 -0.5699  1.2517
  184SLPC   O2121108   2.868   4.194  10.263  0.3839 -0.1975  0.0834
  184SLPC   C2121109   2.895   4.071  10.223 -0.2711 -0.4177  0.5797
  184SLPC   O2221110   2.816   3.985  10.191  0.1769 -1.0925  0.6321
  184SLPC   C2221111   3.045   4.066  10.214 -0.1934  0.5371 -0.0140
  184SLPC   H2R21112   3.088   4.096  10.312 -0.6802  2.2081 -0.2922
  184SLPC   H2S21113   3.079   3.962  10.195  2.3247  1.4912 -0.8791
  184SLPC    C321114   2.694   4.360  10.302  0.4363 -0.4898  0.3578
  184SLPC    HX21115   2.760   4.407  10.378 -1.2357  0.1559  1.4215
  184SLPC    HY21116   2.586   4.372  10.324  0.2242  0.5570 -1.1936
  184SLPC   O3121117   2.700   4.431  10.180 -0.3262 -0.3927  0.3949
  184SLPC   C3121118   2.818   4.482  10.148  0.2644  0.1904 -0.3359
  184SLPC   O3221119   2.923   4.477  10.206  0.3833  0.3211  0.0744
  184SLPC   C3221120   2.792   4.570  10.026  0.3755  0.0724  0.9110
  184SLPC   H2X21121   2.896   4.576   9.988 -0.1223 -1.6394 -0.7692
  184SLPC   H2Y21122   2.752   4.670  10.052  2.1836  0.5572  1.8882
  184SLPC   C2321123   3.105   4.162  10.109  0.2302  0.0372  0.1197
  184SLPC   H3R21124   3.216   4.153  10.113  0.1210 -0.7978  1.7988
  184SLPC   H3S21125   3.088   4.268  10.136  1.0045 -0.4253  2.5866
  184SLPC   C2421126   3.062   4.132   9.969  0.2071 -0.0136  0.9004
  184SLPC   H4R21127   2.960   4.168   9.940  0.5963 -1.0598 -1.9775
  184SLPC   H4S21128   3.053   4.022   9.962 -3.3560  0.3268 -1.8057
  184SLPC   C2521129   3.156   4.161   9.849  0.0096  0.0114 -0.3346
  184SLPC   H5R21130   3.246   4.097   9.858  2.0919  3.0078  0.4832
  184SLPC   H5S21131   3.197   4.263   9.864 -1.2723  0.4505  0.2735
  184SLPC   C2621132   3.091   4.149   9.716 -0.4347  0.1977 -1.0413
  184SLPC   H6R21133   3.019   4.234   9.716  0.3297  0.8533  0.1221
  184SLPC   H6S21134   3.035   4.053   9.720 -0.1975  0.1441  2.2835
  184SLPC   C2721135   3.206   4.152   9.611 -0.1159  0.0059 -0.6035
  184SLPC   H7R21136   3.281   4.070   9.618  1.0956  1.1732  0.3410
  184SLPC   H7S21137   3.263   4.245   9.632  2.3564 -2.3278  3.8554
  184SLPC   C2821138   3.157   4.164   9.465  0.2097  0.2169 -0.1820
  184SLPC   H8R21139   3.107   4.262   9.456  1.8854  1.1463  0.4885
  184SLPC   H8S21140   3.086   4.081   9.443 -2.0950  2.0329  0.2316
  184SLPC   C2921141   3.271   4.169   9.372  0.3602 -0.3814 -0.0379
  184SLPC   H9R21142   3.363   4.128   9.414  0.7395  0.5907  0.0990
  184SLPC  C21021143   3.279   4.242   9.256 -0.8018  0.0603 -0.0175
  184SLPC  H10R21144   3.370   4.237   9.195 -1.6848  2.3843 -1.5772
  184SLPC  C21121145   3.162   4.311   9.186 -0.7298  0.2956 -0.2177
  184SLPC  H11R21146   3.178   4.420   9.172  0.6644 -0.0779 -1.6449
  184SLPC  H11S21147   3.068   4.302   9.244  0.5376  0.2851  1.8984
  184SLPC  C21221148   3.145   4.249   9.052 -0.3751  0.2576  0.1710
  184SLPC  H12R21149   3.217   4.281   8.975 -0.6006  1.4147  0.4324
  184SLPC  C21321150   3.049   4.159   9.017  0.2314  0.6417 -1.1429
  184SLPC  H13R21151   3.053   4.114   8.917 -4.6257 -1.4879 -0.5659
  184SLPC  C21421152   2.946   4.100   9.104  0.0072 -0.1311  0.5544
  184SLPC  H14R21153   2.843   4.116   9.066 -0.6549 -0.5255  2.1332
  184SLPC  H14S21154   2.942   4.150   9.203 -0.0920  0.8629  0.0543
  184SLPC  C21521155   2.966   3.945   9.125  0.2156 -0.9926  0.3537
  184SLPC  H15R21156   2.911   3.901   9.211  2.0308 -0.4044  1.8489
  184SLPC  H15S21157   3.073   3.924   9.145  0.0164  1.0071  3.9855
  184SLPC  C21621158   2.916   3.857   9.011  0.5734 -0.0589 -0.3602
  184SLPC  H16R21159   2.959   3.887   8.912  1.6450  0.1767  0.1712
  184SLPC  H16S21160   2.807   3.874   8.998  0.8739 -1.0454 -5.5131
  184SLPC  C21721161   2.945   3.706   9.036 -0.2350  0.0781  0.1692
  184SLPC  H17R21162   2.888   3.666   9.123  0.0969 -1.7360 -0.4117
  184SLPC  H17S21163   3.052   3.701   9.065 -0.5354  1.4817  1.5621
  184SLPC  C21821164   2.916   3.619   8.913  0.5927  0.8061  0.0013
  184SLPC  H18R21165   2.959   3.656   8.818 -1.0014  0.8859 -0.7074
  184SLPC  H18S21166   2.807   3.624   8.895  0.8894  1.0809 -1.7680
  184SLPC  H18T21167   2.948   3.513   8.919  2.5902  1.3977  0.0951
  184SLPC   C3321168   2.710   4.512   9.906 -0.5757  0.4325  0.2473
  184SLPC   H3X21169   2.671   4.592   9.840 -2.9235  1.4662  2.7692
  184SLPC   H3Y21170   2.624   4.454   9.946 -0.4331  0.7179  0.9900
  184SLPC   C3421171   2.804   4.403   9.840  0.5414 -0.0973  0.1969
  184SLPC   H4X21172   2.831   4.327   9.917 -1.8887 -1.5854 -0.3417
  184SLPC   H4Y21173   2.890   4.451   9.789 -0.7690  0.7192 -1.2958
  184SLPC   C3521174   2.736   4.310   9.736  0.6671  0.1211 -0.1142
  184SLPC   H5X21175   2.657   4.255   9.790  0.0644 -0.7494 -1.8465
  184SLPC   H5Y21176   2.803   4.227   9.705 -0.8049 -1.4082  0.7380
  184SLPC   C3621177   2.690   4.387   9.610  0.0698 -0.3076  0.1213
  184SLPC   H6X21178   2.778   4.449   9.582 -0.9048  1.1816  0.2506
  184SLPC   H6Y21179   2.608   4.462   9.621  0.3801 -0.0055  0.3946
  184SLPC   C3721180   2.670   4.302   9.484 -0.3324  0.2455 -0.5189
  184SLPC   H7X21181   2.590   4.227   9.501 -1.0248  1.3601  1.3207
  184SLPC   H7Y21182   2.767   4.266   9.443  0.4612  1.0609  0.5884
  184SLPC   C3821183   2.634   4.387   9.363 -0.5070  0.5270 -0.3166
  184SLPC   H8X21184   2.703   4.474   9.364  0.8227 -0.5185  1.4906
  184SLPC   H8Y21185   2.530   4.424   9.372 -0.7346  0.2848 -1.7362
  184SLPC   C3921186   2.652   4.304   9.235 -0.0414  0.0926 -0.0656
  184SLPC   H9X21187   2.634   4.196   9.254 -3.3769  0.2841 -1.8275
  184SLPC   H9Y21188   2.758   4.318   9.205  0.2585  1.6672  1.5809
  184SLPC  C31021189   2.567   4.349   9.117  0.1279  0.4827  0.2465
  184SLPC  H10X21190   2.604   4.450   9.093  0.2661  0.1102 -1.1455
  184SLPC  H10Y21191   2.459   4.359   9.144 -0.7301  2.0797 -3.4246
  184SLPC  C31121192   2.582   4.266   8.988  0.0259  0.3244 -0.5723
  184SLPC  H11X21193   2.558   4.159   9.008  1.3381  0.5143  2.2631
  184SLPC  H11Y21194   2.691   4.268   8.964  0.4163  2.4409  1.2170
  184SLPC  C31221195   2.495   4.325   8.875  0.0958  0.2293 -0.6050
  184SLPC  H12X21196   2.505   4.436   8.867  0.8605  0.6612  4.6670
  184SLPC  H12Y21197   2.388   4.319   8.902 -0.0581 -1.7600 -1.5548
  184SLPC  C31321198   2.514   4.245   8.751  0.2698 -0.7074  1.4423
  184SLPC  H13X21199   2.422   4.242   8.688 -1.1085 -0.8907  3.4124
  184SLPC  H13Y21200   2.522   4.139   8.781 -1.4698 -0.8449  1.5004
  184SLPC  C31421201   2.638   4.288   8.663 -0.1781  0.1213  0.0959
  184SLPC  H14X21202   2.725   4.280   8.732 -1.4461 -0.6050  1.6119
  184SLPC  H14Y21203   2.637   4.392   8.622  0.1466 -0.5109 -1.5494
  184SLPC  C31521204   2.672   4.196   8.549  0.2618  0.7200  0.0968
  184SLPC  H15X21205   2.746   4.241   8.480  1.0586 -2.4862 -1.2216
  184SLPC  H15Y21206   2.582   4.171   8.489  0.6157 -0.9051  0.2383
  184SLPC  C31621207   2.744   4.075   8.615 -0.2586 -0.5111  0.0918
  184SLPC  H16X21208   2.667   4.033   8.683 -1.2364 -1.0595 -1.3202
  184SLPC  H16Y21209   2.839   4.102   8.666 -0.4921  1.4742 -0.5102
  184SLPC  C31721210   2.780   3.976   8.510  0.1737  0.7620  0.1069
  184SLPC  H17X21211   2.865   4.014   8.450  1.0034 -0.2013  0.6689
  184SLPC  H17Y21212   2.689   3.955   8.448 -1.0547  0.8048  1.8588
  184SLPC  C31821213   2.839   3.850   8.568 -0.0346 -0.0923  0.1124
  184SLPC  H18X21214   2.873   3.779   8.489  1.2430 -1.7286  2.1077
  184SLPC  H18Y21215   2.769   3.791   8.630 -0.4213 -1.3090 -1.4408
  184SLPC  H18Z21216   2.923   3.882   8.633  1.0633 -0.0255 -1.3015
  185SLPC     N21217   1.809   0.807   6.125 -0.1380 -0.2808 -0.0209
  185SLPC   C1321218   1.755   0.678   6.074  0.6779  0.0348 -0.2865
  185SLPC  H13A21219   1.776   0.664   5.969  2.8580 -1.7512  0.3435
  185SLPC  H13B21220   1.779   0.596   6.140  1.2254  0.3476 -0.0968
  185SLPC  H13C21221   1.647   0.683   6.080  0.6633  0.3054 -0.7789
  185SLPC   C1421222   1.770   0.907   6.022  0.6583  0.0984 -0.5825
  185SLPC  H14A21223   1.665   0.930   6.033  0.2091 -1.8565 -0.6716
  185SLPC  H14B21224   1.824   1.000   6.015  2.8198 -1.2720 -2.9860
  185SLPC  H14C21225   1.788   0.861   5.926 -0.4440  0.4648 -0.9697
  185SLPC   C1521226   1.957   0.802   6.124 -0.2384 -0.8497 -0.0970
  185SLPC  H15A21227   1.997   0.901   6.138 -1.8692 -0.0123 -1.0679
  185SLPC  H15B21228   1.992   0.743   6.207  1.2339  1.1740  0.7634
  185SLPC  H15C21229   2.000   0.758   6.035  0.5432  0.0234 -0.1512
  185SLPC   C1221230   1.749   0.844   6.264  0.1906 -0.0261  0.3594
  185SLPC  H12A21231   1.788   0.769   6.331 -2.6431 -1.6530  0.2783
  185SLPC  H12B21232   1.643   0.823   6.260 -0.4506  3.3394 -1.5954
  185SLPC   C1121233   1.768   0.986   6.327  0.7241 -0.2172 -0.0207
  185SLPC  H11A21234   1.714   0.981   6.424 -1.5953  0.5558 -1.2282
  185SLPC  H11B21235   1.724   1.069   6.268  4.2045 -0.9117 -3.8093
  185SLPC     P21236   1.985   0.924   6.455  0.3586 -0.7503 -0.0944
  185SLPC   O1321237   1.987   0.780   6.431  0.2895  0.6182  0.0371
  185SLPC   O1421238   2.120   0.987   6.470  0.1192 -0.5447 -0.3535
  185SLPC   O1221239   1.908   0.997   6.339 -0.0638  0.3459  0.0834
  185SLPC   O1121240   1.893   0.952   6.576 -0.1942 -0.6023 -0.0369
  185SLPC    C121241   1.878   1.082   6.633 -0.0248 -0.4612  0.3241
  185SLPC    HA21242   1.893   1.163   6.559  1.6240 -1.0707 -0.0035
  185SLPC    HB21243   1.773   1.086   6.671 -0.6039 -0.3643 -1.2680
  185SLPC    C221244   1.971   1.099   6.757  0.3027  0.3833  0.6609
  185SLPC    HS21245   2.077   1.102   6.726 -0.8505  0.2483 -3.6230
  185SLPC   O2121246   1.943   0.985   6.842  0.0492  0.3088 -0.0641
  185SLPC   C2121247   2.019   0.979   6.944 -0.0294  0.1312 -0.5425
  185SLPC   O2221248   2.117   1.051   6.964 -0.0288  0.2857 -0.0389
  185SLPC   C2221249   1.976   0.876   7.049  0.2412  0.0524  0.3449
  185SLPC   H2R21250   1.949   0.786   6.990 -2.4519  0.0616  1.4909
  185SLPC   H2S21251   2.060   0.851   7.117  1.5464  2.5434 -0.2775
  185SLPC    C321252   1.942   1.240   6.830 -0.1956 -0.3486 -0.0945
  185SLPC    HX21253   1.971   1.320   6.758  0.0893 -0.9293 -0.6373
  185SLPC    HY21254   2.015   1.255   6.912 -0.7329 -1.8858  0.6762
  185SLPC   O3121255   1.810   1.237   6.887 -0.1979 -0.0416  0.1598
  185SLPC   C3121256   1.763   1.350   6.932 -0.4328  0.6394 -0.0209
  185SLPC   O3221257   1.817   1.459   6.942 -0.1003 -0.1331 -0.0514
  185SLPC   C3221258   1.615   1.343   6.945 -0.5547  0.7270 -0.2393
  185SLPC   H2X21259   1.567   1.244   6.930 -1.0114  1.1433 -1.6001
  185SLPC   H2Y21260   1.565   1.403   6.866 -1.8403  1.0977  0.8261
  185SLPC   C2321261   1.853   0.932   7.128  0.5037  0.4594  1.0369
  185SLPC   H3R21262   1.801   1.000   7.057  0.8918  2.4526  2.6326
  185SLPC   H3S21263   1.887   1.000   7.209  0.8415  4.5566 -2.3584
  185SLPC   C2421264   1.757   0.835   7.184  0.3389 -0.0373 -0.4142
  185SLPC   H4R21265   1.812   0.771   7.256  0.3255  1.6060  1.0811
  185SLPC   H4S21266   1.715   0.761   7.112  1.8617 -0.8814 -0.4686
  185SLPC   C2521267   1.636   0.897   7.246  0.7340  0.4223 -0.3002
  185SLPC   H5R21268   1.556   0.823   7.267  0.7993  0.8827  1.6608
  185SLPC   H5S21269   1.595   0.965   7.168 -0.5546 -1.7798 -1.5986
  185SLPC   C2621270   1.651   0.977   7.384  0.0074 -0.4525  0.5055
  185SLPC   H6R21271   1.545   0.996   7.410 -0.5487 -2.6437 -0.0479
  185SLPC   H6S21272   1.700   1.073   7.360 -0.6615  0.3841  2.4231
  185SLPC   C2721273   1.735   0.904   7.491 -0.0027 -0.6881 -0.0388
  185SLPC   H7R21274   1.844   0.912   7.470 -0.4847 -0.5470 -2.6269
  185SLPC   H7S21275   1.720   0.795   7.474  0.2217 -0.5323 -1.2533
  185SLPC   C2821276   1.704   0.946   7.633 -0.3753  0.3665  0.4315
  185SLPC   H8R21277   1.666   1.049   7.645  0.4960  0.4957  2.1396
  185SLPC   H8S21278   1.797   0.938   7.693 -0.8772 -1.2014  1.0171
  185SLPC   C2921279   1.586   0.870   7.683 -0.6256  0.6554 -0.6580
  185SLPC   H9R21280   1.488   0.920   7.678  0.5233  3.1296  0.8072
  185SLPC  C21021281   1.596   0.743   7.740  0.0137  0.6690 -0.2678
  185SLPC  H10R21282   1.515   0.686   7.788 -0.2185  0.3928 -0.9695
  185SLPC  C21121283   1.725   0.676   7.779  0.2819 -0.0838  0.9053
  185SLPC  H11R21284   1.754   0.729   7.873  2.5811  1.2822 -0.5269
  185SLPC  H11S21285   1.812   0.707   7.718  1.3598 -0.8868  2.0311
  185SLPC  C21221286   1.705   0.522   7.790  0.0004 -0.6348 -0.1863
  185SLPC  H12R21287   1.686   0.482   7.690  0.2131 -0.5404 -0.2641
  185SLPC  C21321288   1.694   0.441   7.902  0.0419  1.1467  0.5977
  185SLPC  H13R21289   1.696   0.333   7.881  1.4055  0.8364  2.2281
  185SLPC  C21421290   1.701   0.484   8.045 -0.3582  0.6403 -0.0471
  185SLPC  H14R21291   1.724   0.591   8.067  1.3071  0.8229 -2.5671
  185SLPC  H14S21292   1.781   0.419   8.087 -0.7710  0.1835  0.0295
  185SLPC  C21521293   1.571   0.452   8.127 -0.2966  0.0178 -0.3688
  185SLPC  H15R21294   1.521   0.354   8.115  0.2496 -0.5106  1.4474
  185SLPC  H15S21295   1.502   0.531   8.091  1.9197  2.3307  0.2859
  185SLPC  C21621296   1.607   0.484   8.277 -0.8106 -0.1939  0.6689
  185SLPC  H16R21297   1.631   0.592   8.285  1.3163 -0.6982  1.4780
  185SLPC  H16S21298   1.703   0.434   8.304 -1.2607 -1.5073 -0.1424
  185SLPC  C21721299   1.503   0.438   8.385  0.1297 -0.3073 -0.3075
  185SLPC  H17R21300   1.498   0.327   8.379 -1.3527 -0.3099  0.6945
  185SLPC  H17S21301   1.402   0.480   8.368  0.4486  0.5753 -0.0749
  185SLPC  C21821302   1.554   0.473   8.525  0.1762 -0.2912  1.0079
  185SLPC  H18R21303   1.642   0.411   8.551  0.0973 -1.9721 -2.4679
  185SLPC  H18S21304   1.472   0.449   8.596 -0.4428  0.5880  0.6001
  185SLPC  H18T21305   1.568   0.583   8.536  0.0965 -0.1820  0.0794
  185SLPC   C3321306   1.563   1.415   7.077  0.1324 -0.2164 -0.1173
  185SLPC   H3X21307   1.454   1.424   7.058  0.1111  0.2153  0.2041
  185SLPC   H3Y21308   1.605   1.518   7.086 -2.2724  0.7627  0.4976
  185SLPC   C3421309   1.574   1.334   7.213 -0.1979  0.4711  0.0507
  185SLPC   H4X21310   1.683   1.332   7.235  0.6143  0.8695 -3.5256
  185SLPC   H4Y21311   1.547   1.228   7.196  0.0634  0.1922  1.3712
  185SLPC   C3521312   1.492   1.390   7.326  0.9421 -0.5387  0.2503
  185SLPC   H5X21313   1.384   1.390   7.299  0.9196 -2.1295  0.2515
  185SLPC   H5Y21314   1.515   1.497   7.342 -1.2403 -0.0600  0.2651
  185SLPC   C3621315   1.505   1.297   7.457 -0.3041 -0.2754  0.0302
  185SLPC   H6X21316   1.614   1.306   7.476 -0.3874 -0.0418  0.4114
  185SLPC   H6Y21317   1.487   1.190   7.437  2.1316 -1.2191  2.5556
  185SLPC   C3721318   1.434   1.358   7.583  0.0575  0.6723  0.6360
  185SLPC   H7X21319   1.325   1.359   7.560  0.2060  0.9009 -0.0683
  185SLPC   H7Y21320   1.462   1.465   7.596  2.2375  0.3631 -1.1947
  185SLPC   C3821321   1.453   1.271   7.711  0.3000  0.0819  0.2648
  185SLPC   H8X21322   1.417   1.167   7.701  1.8892 -0.3343 -1.3135
  185SLPC   H8Y21323   1.395   1.323   7.791 -0.6665  1.7955 -1.4960
  185SLPC   C3921324   1.596   1.278   7.761  0.2133 -0.0007  0.2144
  185SLPC   H9X21325   1.628   1.385   7.765  1.3496 -0.3531  0.6751
  185SLPC   H9Y21326   1.679   1.245   7.695  0.1378  2.7456 -1.3451
  185SLPC  C31021327   1.620   1.207   7.896  0.5355  0.0630  0.1506
  185SLPC  H10X21328   1.599   1.100   7.873  0.9768  0.5367 -2.6670
  185SLPC  H10Y21329   1.560   1.243   7.982  1.6286  0.3096  0.8119
  185SLPC  C31121330   1.762   1.230   7.943 -0.1418 -0.0915  0.0469
  185SLPC  H11X21331   1.829   1.242   7.855  0.5842  1.4185  0.7835
  185SLPC  H11Y21332   1.804   1.151   8.009 -0.8156 -0.2418  0.3004
  185SLPC  C31221333   1.789   1.363   8.020  0.3870  0.2035 -0.2911
  185SLPC  H12X21334   1.727   1.354   8.112  2.1854 -1.6968  0.7513
  185SLPC  H12Y21335   1.755   1.452   7.961  0.9966 -0.1351 -1.1587
  185SLPC  C31321336   1.935   1.400   8.057  0.2973 -0.7761  0.2510
  185SLPC  H13X21337   1.949   1.508   8.080 -0.6237 -0.7194  0.5441
  185SLPC  H13Y21338   1.989   1.373   7.963  0.6407  1.3943 -0.1968
  185SLPC  C31421339   1.984   1.335   8.184 -0.3499  0.4427  0.3127
  185SLPC  H14X21340   2.093   1.356   8.184 -0.0173 -1.0788  2.6587
  185SLPC  H14Y21341   1.974   1.224   8.181  2.9081  0.1210 -2.3544
  185SLPC  C31521342   1.910   1.377   8.317 -0.3074  0.4694  0.5976
  185SLPC  H15X21343   1.802   1.385   8.291 -0.0419 -1.5705 -1.3129
  185SLPC  H15Y21344   1.947   1.481   8.330 -0.5736  0.6755 -0.2544
  185SLPC  C31621345   1.934   1.284   8.433 -0.3522  0.7139  0.3014
  185SLPC  H16X21346   1.903   1.180   8.407  0.5132  1.1504 -2.6217
  185SLPC  H16Y21347   1.858   1.313   8.508 -1.8690 -1.5047 -0.3093
  185SLPC  C31721348   2.079   1.277   8.485  0.0866 -0.3558 -0.4419
  185SLPC  H17X21349   2.133   1.372   8.504  1.5549 -1.2553 -0.0731
  185SLPC  H17Y21350   2.141   1.219   8.414  0.5108 -2.0757  1.3027
  185SLPC  C31821351   2.089   1.190   8.613  0.1291  0.6207 -0.0447
  185SLPC  H18X21352   2.195   1.166   8.635  0.5899  1.9377 -0.8048
  185SLPC  H18Y21353   2.036   1.092   8.616  1.1122  0.0434 -1.0362
  185SLPC  H18Z21354   2.045   1.245   8.699  2.4970  3.1543 -0.3794
  186SLPC     N21355   1.862   3.507   6.179 -0.3467  0.7722  0.0857
  186SLPC   C1321356   1.741   3.457   6.105  0.1818 -0.3679 -0.3348
  186SLPC  H13A21357   1.656   3.523   6.106  1.4508  1.3068 -0.9007
  186SLPC  H13B21358   1.768   3.435   6.003  0.4262  3.2818 -1.1341
  186SLPC  H13C21359   1.698   3.366   6.145  0.8387 -0.6179 -0.2007
  186SLPC   C1421360   1.830   3.542   6.324 -0.3053  0.1776  0.3286
  186SLPC  H14A21361   1.788   3.461   6.382  0.7282 -1.3792 -1.0469
  186SLPC  H14B21362   1.921   3.588   6.358  1.4610 -2.7033 -0.3541
  186SLPC  H14C21363   1.759   3.623   6.326 -1.8275 -1.1311  3.9398
  186SLPC   C1521364   1.908   3.629   6.107  0.1139 -0.0874  0.1718
  186SLPC  H15A21365   1.928   3.607   6.004  0.5986  1.3548 -0.0587
  186SLPC  H15B21366   1.827   3.701   6.106 -0.0721 -0.3097 -0.4611
  186SLPC  H15C21367   2.002   3.675   6.134  0.4362 -0.2813 -0.6205
  186SLPC   C1221368   1.977   3.402   6.168  0.6541  0.5638  0.5225
  186SLPC  H12A21369   1.986   3.366   6.067  1.2932  0.9393  0.4425
  186SLPC  H12B21370   1.944   3.317   6.224 -0.0469  0.6827  0.2935
  186SLPC   C1121371   2.118   3.435   6.220  0.3962  0.1298 -0.5070
  186SLPC  H11A21372   2.163   3.506   6.147  0.8185 -0.9388 -1.3035
  186SLPC  H11B21373   2.180   3.342   6.211  1.5167  0.6515  1.3911
  186SLPC     P21374   2.187   3.617   6.397 -0.0963  0.0409 -0.3904
  186SLPC   O1321375   2.283   3.661   6.295 -0.3496  0.3450 -0.2368
  186SLPC   O1421376   2.078   3.711   6.437  0.1041 -0.3145  0.1986
  186SLPC   O1221377   2.117   3.473   6.358  0.6425 -0.5260  0.3388
  186SLPC   O1121378   2.273   3.578   6.530  0.0655 -0.1729 -0.4024
  186SLPC    C121379   2.199   3.545   6.655 -0.8999  0.4276  0.2768
  186SLPC    HA21380   2.163   3.638   6.703  2.5859  1.9252  0.1557
  186SLPC    HB21381   2.110   3.487   6.623 -1.2012  1.4279 -0.7097
  186SLPC    C221382   2.280   3.456   6.753  0.2325  0.8926 -0.0111
  186SLPC    HS21383   2.282   3.348   6.728  1.7345  1.1725 -1.1251
  186SLPC   O2121384   2.226   3.479   6.882  0.1977  0.1371 -0.6384
  186SLPC   C2121385   2.123   3.398   6.911 -0.1477  0.0160  0.5516
  186SLPC   O2221386   2.077   3.320   6.830  0.1244 -0.9313  0.4369
  186SLPC   C2221387   2.087   3.416   7.058  0.2572 -0.1655  0.4293
  186SLPC   H2R21388   2.174   3.406   7.125  0.7874 -1.4054 -0.4249
  186SLPC   H2S21389   2.054   3.522   7.073 -3.0542 -0.9725 -0.6611
  186SLPC    C321390   2.431   3.502   6.740 -0.3761  0.5868 -0.0552
  186SLPC    HX21391   2.446   3.609   6.714  1.0481  0.7291  1.2639
  186SLPC    HY21392   2.474   3.458   6.647 -0.5363  1.6802 -0.6576
  186SLPC   O3121393   2.520   3.484   6.853 -0.1456 -0.3816  0.6485
  186SLPC   C3121394   2.542   3.358   6.868 -0.3715 -0.0763  0.4322
  186SLPC   O3221395   2.517   3.269   6.789 -0.2180 -0.2468  0.0439
  186SLPC   C3221396   2.637   3.335   6.982  0.1917 -0.0644 -0.2926
  186SLPC   H2X21397   2.714   3.414   6.992  0.2645 -0.1160 -0.4500
  186SLPC   H2Y21398   2.689   3.242   6.950 -1.5003 -0.7485 -1.1154
  186SLPC   C2321399   1.963   3.329   7.099 -0.4741 -0.2197 -0.0932
  186SLPC   H3R21400   1.985   3.220   7.094 -0.7600 -0.3337  1.0069
  186SLPC   H3S21401   1.868   3.358   7.049  0.1763  1.4140 -0.3989
  186SLPC   C2421402   1.923   3.358   7.241 -0.0130  0.1153 -0.1522
  186SLPC   H4R21403   1.821   3.316   7.257  0.5803 -0.3581  2.5752
  186SLPC   H4S21404   1.906   3.467   7.244 -0.9179 -0.0382  0.9450
  186SLPC   C2521405   2.015   3.294   7.357 -0.0065  0.3219  0.5474
  186SLPC   H5R21406   2.115   3.342   7.356  0.1513 -0.0037 -0.7456
  186SLPC   H5S21407   2.025   3.186   7.331 -0.7730  0.3064  0.2993
  186SLPC   C2621408   1.947   3.309   7.490  0.3194  0.0192 -0.8673
  186SLPC   H6R21409   1.863   3.236   7.495  0.3385  0.0693  0.1577
  186SLPC   H6S21410   1.913   3.412   7.512 -1.7743 -1.1890  1.8740
  186SLPC   C2721411   2.042   3.283   7.607 -0.0830 -0.7073  0.8211
  186SLPC   H7R21412   1.987   3.277   7.704  2.4005  3.4507  2.6330
  186SLPC   H7S21413   2.102   3.374   7.628 -0.9123  0.6611 -2.4124
  186SLPC   C2821414   2.133   3.156   7.594 -1.3373  0.0547 -0.0568
  186SLPC   H8R21415   2.202   3.163   7.507  0.5208  1.7902  1.5273
  186SLPC   H8S21416   2.072   3.070   7.558  0.0544 -0.9296 -0.0611
  186SLPC   C2921417   2.208   3.128   7.720  0.3182  0.2105 -0.4283
  186SLPC   H9R21418   2.170   3.167   7.815  2.2829 -3.8547  2.1725
  186SLPC  C21021419   2.320   3.047   7.738 -0.3760 -0.3119  0.5547
  186SLPC  H10R21420   2.375   3.053   7.833 -0.1308  4.3482  0.2487
  186SLPC  C21121421   2.389   2.978   7.627 -0.2302  0.5003  0.5824
  186SLPC  H11R21422   2.314   2.918   7.570 -0.8865 -3.5516  5.4084
  186SLPC  H11S21423   2.458   2.904   7.673 -1.2142 -0.2034  0.9408
  186SLPC  C21221424   2.459   3.079   7.530  0.6247  0.2439 -0.1012
  186SLPC  H12R21425   2.486   3.177   7.572 -1.9889  1.9038 -2.0976
  186SLPC  C21321426   2.478   3.056   7.397 -0.1295  0.4300 -0.0980
  186SLPC  H13R21427   2.529   3.126   7.330  0.6780 -0.3628 -0.3112
  186SLPC  C21421428   2.440   2.941   7.317  0.7667 -0.1333  0.2994
  186SLPC  H14R21429   2.413   2.852   7.377 -1.5326  0.3303  0.0147
  186SLPC  H14S21430   2.524   2.922   7.247 -0.4576 -2.2422 -0.6271
  186SLPC  C21521431   2.313   2.984   7.236  0.1326 -0.4590 -0.1848
  186SLPC  H15R21432   2.342   3.076   7.181 -3.1558  0.3782 -0.5876
  186SLPC  H15S21433   2.222   3.006   7.296  1.1904  1.2076  0.8585
  186SLPC  C21621434   2.269   2.878   7.132  0.6274 -0.2382 -0.0976
  186SLPC  H16R21435   2.225   2.787   7.178  2.3481 -0.2252  1.6319
  186SLPC  H16S21436   2.352   2.833   7.074  1.0552 -0.1551  0.4496
  186SLPC  C21721437   2.163   2.938   7.033  0.3498  0.3585  0.3202
  186SLPC  H17R21438   2.220   3.021   6.987 -0.9026  0.5384 -0.9383
  186SLPC  H17S21439   2.081   2.980   7.095  0.1192  0.7135 -0.2264
  186SLPC  C21821440   2.108   2.844   6.924 -0.7476  0.2710 -0.0049
  186SLPC  H18R21441   2.031   2.782   6.975 -1.1735 -0.2823 -1.3142
  186SLPC  H18S21442   2.177   2.771   6.876  0.7441  1.1081  0.8194
  186SLPC  H18T21443   2.058   2.905   6.846 -0.6386 -0.4418 -0.6313
  186SLPC   C3321444   2.571   3.315   7.125 -0.2985  0.8320 -0.7070
  186SLPC   H3X21445   2.655   3.292   7.194 -2.1570 -0.0040  1.3473
  186SLPC   H3Y21446   2.497   3.232   7.129 -0.4742  1.0710  1.3448
  186SLPC   C3421447   2.500   3.442   7.172  0.4536 -0.3045 -0.0941
  186SLPC   H4X21448   2.436   3.482   7.091 -0.5583  0.7330  1.1820
  186SLPC   H4Y21449   2.571   3.526   7.185 -1.5501  1.4461 -0.3150
  186SLPC   C3521450   2.433   3.420   7.304  0.2652 -0.1203 -0.9289
  186SLPC   H5X21451   2.394   3.317   7.314 -0.8044  0.3257 -0.3214
  186SLPC   H5Y21452   2.339   3.479   7.312  0.8395  0.6292  0.6032
  186SLPC   C3621453   2.524   3.449   7.423  0.4451 -0.2813 -0.3767
  186SLPC   H6X21454   2.575   3.547   7.414  1.8788 -0.8757  0.9035
  186SLPC   H6Y21455   2.599   3.366   7.427 -0.3032 -0.9396  0.1223
  186SLPC   C3721456   2.456   3.437   7.561  1.0304  0.1351  0.5951
  186SLPC   H7X21457   2.391   3.349   7.578 -0.3042  0.9017 -0.4308
  186SLPC   H7Y21458   2.384   3.521   7.568 -0.1003 -0.7037 -0.6919
  186SLPC   C3821459   2.551   3.454   7.678 -0.3603  0.1269 -0.8662
  186SLPC   H8X21460   2.596   3.555   7.663 -0.4466  0.4939  1.1020
  186SLPC   H8Y21461   2.636   3.383   7.684 -0.8492 -0.4456 -0.6717
  186SLPC   C3921462   2.470   3.447   7.804 -0.7176  0.6889  0.0536
  186SLPC   H9X21463   2.415   3.351   7.806 -0.2048  0.4035  0.6506
  186SLPC   H9Y21464   2.399   3.532   7.800  0.6664  1.8138 -1.0700
  186SLPC  C31021465   2.558   3.464   7.926  0.7231 -0.0110  0.1391
  186SLPC  H10X21466   2.618   3.557   7.913  0.1281  0.4580  0.6893
  186SLPC  H10Y21467   2.636   3.385   7.918  1.9424  1.0817  0.9817
  186SLPC  C31121468   2.482   3.467   8.059  0.1179  0.0537  0.6960
  186SLPC  H11X21469   2.448   3.366   8.092 -3.0750  1.4755  1.9130
  186SLPC  H11Y21470   2.392   3.528   8.039  1.0256  1.8268  1.9196
  186SLPC  C31221471   2.563   3.522   8.175  0.3363 -0.0935 -0.4122
  186SLPC  H12X21472   2.489   3.541   8.257 -1.5755  1.6178 -2.4591
  186SLPC  H12Y21473   2.605   3.621   8.150  0.5292 -0.4562 -1.5250
  186SLPC  C31321474   2.676   3.428   8.228  0.2545  0.1230  1.0008
  186SLPC  H13X21475   2.750   3.413   8.147 -0.3941  1.1984  0.1903
  186SLPC  H13Y21476   2.633   3.325   8.225 -0.9724  0.6122  1.2216
  186SLPC  C31421477   2.733   3.460   8.369 -0.1979  0.3896  0.0611
  186SLPC  H14X21478   2.758   3.568   8.377 -0.0019  0.4425 -1.1523
  186SLPC  H14Y21479   2.830   3.411   8.390  0.3227  1.5669  0.4533
  186SLPC  C31521480   2.635   3.425   8.478  0.1805 -0.0850  0.1684
  186SLPC  H15X21481   2.597   3.323   8.458 -1.2771  0.4223  0.2686
  186SLPC  H15Y21482   2.550   3.497   8.478  0.4241  0.1987  1.1996
  186SLPC  C31621483   2.703   3.421   8.616  0.2006 -0.0442 -0.2438
  186SLPC  H16X21484   2.764   3.512   8.634 -1.4149  0.7708  1.2448
  186SLPC  H16Y21485   2.772   3.335   8.606  1.9922  1.4682 -1.1924
  186SLPC  C31721486   2.605   3.374   8.725  0.5128  0.0128  0.3142
  186SLPC  H17X21487   2.560   3.278   8.692 -0.5056 -0.3695  2.7242
  186SLPC  H17Y21488   2.526   3.451   8.734 -1.1165 -1.4753 -0.9969
  186SLPC  C31821489   2.670   3.366   8.861 -0.2615  0.2175  0.1045
  186SLPC  H18X21490   2.610   3.294   8.921  0.7566 -0.7190 -0.0066
  186SLPC  H18Y21491   2.677   3.464   8.914 -0.1350  1.8549 -2.8168
  186SLPC  H18Z21492   2.773   3.327   8.848  0.3338  1.2017  1.6546
  187SLPC     N21493   3.153   6.733   6.309  0.0763  0.4936  0.3070
  187SLPC   C1321494   3.036   6.803   6.262  0.7240 -0.0215 -0.0203
  187SLPC  H13A21495   2.945   6.752   6.291  0.0895  0.7092 -0.7075
  187SLPC  H13B21496   3.034   6.906   6.296 -0.9238 -0.0510  0.0183
  187SLPC  H13C21497   3.026   6.812   6.155  0.7465  2.6524  0.1819
  187SLPC   C1421498   3.278   6.797   6.266 -0.9204 -0.5033 -0.1409
  187SLPC  H14A21499   3.369   6.749   6.299 -0.6384 -0.0072 -0.1902
  187SLPC  H14B21500   3.279   6.809   6.159 -1.1089  3.7604  0.2773
  187SLPC  H14C21501   3.281   6.892   6.316  0.8545  0.1868 -1.5183
  187SLPC   C1521502   3.151   6.593   6.254  0.2288 -0.4325 -0.4915
  187SLPC  H15A21503   3.152   6.602   6.146 -0.4625  0.7809 -0.4134
  187SLPC  H15B21504   3.238   6.546   6.297 -0.0968 -0.6209 -0.0314
  187SLPC  H15C21505   3.059   6.541   6.278 -0.4503  1.8411  2.1474
  187SLPC   C1221506   3.142   6.733   6.458 -0.0207 -0.4223 -0.3111
  187SLPC  H12A21507   3.214   6.658   6.487 -0.3369 -0.4130  0.4930
  187SLPC  H12B21508   3.046   6.693   6.488  0.4174 -0.1092  1.5799
  187SLPC   C1121509   3.167   6.861   6.526  0.2426  0.0029 -0.2395
  187SLPC  H11A21510   3.134   6.874   6.631 -0.3602 -1.1659 -0.2763
  187SLPC  H11B21511   3.108   6.942   6.476  0.0304  0.8308  1.3157
  187SLPC     P21512   3.423   6.822   6.585 -0.1373  0.2308  0.3582
  187SLPC   O1321513   3.370   6.706   6.657  0.2195  0.1075  0.0895
  187SLPC   O1421514   3.512   6.787   6.468 -0.2714 -0.3613 -0.2201
  187SLPC   O1221515   3.300   6.908   6.529 -0.1656  0.5274  0.1222
  187SLPC   O1121516   3.500   6.927   6.674  0.1339 -0.1964  0.5104
  187SLPC    C121517   3.445   7.016   6.770 -0.4048  0.4378  0.9825
  187SLPC    HA21518   3.490   7.118   6.760 -1.0273  0.3780 -3.0890
  187SLPC    HB21519   3.336   7.026   6.754 -0.1517 -0.5856 -1.5065
  187SLPC    C221520   3.464   6.951   6.918 -0.1393 -0.3655 -0.0495
  187SLPC    HS21521   3.375   6.884   6.917 -0.7786  0.4764 -0.3968
  187SLPC   O2121522   3.470   7.053   7.024  0.1820  0.8082  0.5553
  187SLPC   C2121523   3.395   7.026   7.129  0.3526 -0.0700 -0.3963
  187SLPC   O2221524   3.326   6.924   7.139  0.4783  0.4023  0.5092
  187SLPC   C2221525   3.403   7.135   7.233  0.4454 -0.4894  0.1502
  187SLPC   H2R21526   3.488   7.201   7.202  0.8265 -2.1846 -2.6159
  187SLPC   H2S21527   3.306   7.188   7.238  1.2622  1.0053  0.4162
  187SLPC    C321528   3.596   6.867   6.929  0.0667 -0.6666  0.7024
  187SLPC    HX21529   3.681   6.937   6.916 -0.7856  0.1481 -0.6900
  187SLPC    HY21530   3.607   6.801   6.840  1.2218  1.0253 -0.4438
  187SLPC   O3121531   3.608   6.802   7.057 -0.0144  0.8875  0.0842
  187SLPC   C3121532   3.598   6.669   7.055  0.2864  0.1383  0.4023
  187SLPC   O3221533   3.598   6.599   6.953  0.1580  0.0378 -0.5117
  187SLPC   C3221534   3.585   6.615   7.196 -0.0622 -0.5304  0.4603
  187SLPC   H2X21535   3.672   6.652   7.254 -0.0572 -1.7081  1.2297
  187SLPC   H2Y21536   3.597   6.505   7.197  2.8756 -0.2408 -0.5261
  187SLPC   C2321537   3.439   7.085   7.377 -0.2977 -0.5786 -0.1055
  187SLPC   H3R21538   3.382   6.991   7.395  1.8693 -1.6415  1.4885
  187SLPC   H3S21539   3.411   7.158   7.456 -0.1811  0.5815 -1.1221
  187SLPC   C2421540   3.595   7.070   7.393  0.6195 -0.1213 -0.1662
  187SLPC   H4R21541   3.656   7.158   7.364  0.6003 -0.9477 -2.8435
  187SLPC   H4S21542   3.621   6.995   7.315  1.3961  0.0916 -0.1098
  187SLPC   C2521543   3.631   7.018   7.529 -0.3303 -0.1483  0.0757
  187SLPC   H5R21544   3.741   6.999   7.521 -0.6220 -1.7449 -0.1259
  187SLPC   H5S21545   3.582   6.920   7.541 -0.9957  0.2783  0.8832
  187SLPC   C2621546   3.599   7.110   7.640  0.0341  0.1199  0.2402
  187SLPC   H6R21547   3.490   7.120   7.659  0.3310  1.1579  1.4053
  187SLPC   H6S21548   3.631   7.214   7.617 -1.4931  0.1526 -1.9142
  187SLPC   C2721549   3.681   7.084   7.774  0.0937 -0.0836 -0.3830
  187SLPC   H7R21550   3.788   7.094   7.745  1.1100 -0.2464  3.0795
  187SLPC   H7S21551   3.668   6.982   7.816  0.7584  1.1236  2.9419
  187SLPC   C2821552   3.650   7.183   7.879 -0.1866 -0.2895  0.7197
  187SLPC   H8R21553   3.542   7.170   7.900 -0.5739 -2.2138 -2.1077
  187SLPC   H8S21554   3.658   7.282   7.830 -1.1640 -0.3363  0.4602
  187SLPC   C2921555   3.747   7.160   7.998 -0.5506 -0.5926  0.4532
  187SLPC   H9R21556   3.855   7.172   7.978 -0.4589 -0.1230  1.2520
  187SLPC  C21021557   3.713   7.131   8.125  0.5717  0.7850  0.6122
  187SLPC  H10R21558   3.789   7.132   8.206 -0.0411  1.5864  1.1801
  187SLPC  C21121559   3.569   7.121   8.171 -1.1873 -0.2371 -0.4702
  187SLPC  H11R21560   3.504   7.080   8.091 -0.0127  0.0942 -1.6237
  187SLPC  H11S21561   3.536   7.220   8.209 -3.3624  0.4402 -3.9478
  187SLPC  C21221562   3.554   7.009   8.279 -0.2565 -0.1377 -0.0968
  187SLPC  H12R21563   3.581   6.908   8.246 -0.8177 -0.1380 -0.5580
  187SLPC  C21321564   3.513   7.030   8.412  0.7661  0.2839 -0.0604
  187SLPC  H13R21565   3.510   6.942   8.478 -1.4677  1.7897  1.9238
  187SLPC  C21421566   3.465   7.151   8.478 -0.0462  0.1120  0.2311
  187SLPC  H14R21567   3.415   7.219   8.405 -0.2460  0.1939  0.4412
  187SLPC  H14S21568   3.550   7.203   8.527 -0.8705  1.4636  0.2569
  187SLPC  C21521569   3.363   7.106   8.588  0.5984  1.2179  0.3487
  187SLPC  H15R21570   3.406   7.042   8.668 -0.6689  1.9002  1.6047
  187SLPC  H15S21571   3.287   7.044   8.536  1.4126  0.7703 -0.3133
  187SLPC  C21621572   3.288   7.226   8.653  0.8299  0.3509 -0.1607
  187SLPC  H16R21573   3.257   7.292   8.569  1.1599 -1.7563 -1.9865
  187SLPC  H16S21574   3.360   7.278   8.719 -1.0209  1.2222  1.2053
  187SLPC  C21721575   3.185   7.178   8.760  0.3779  0.5727  0.5239
  187SLPC  H17R21576   3.127   7.269   8.786 -0.9521 -0.3265  0.7767
  187SLPC  H17S21577   3.243   7.165   8.854  1.4370  0.1223 -0.1922
  187SLPC  C21821578   3.091   7.068   8.717 -0.3685 -0.3606 -1.0288
  187SLPC  H18R21579   3.015   7.052   8.796  1.6978  3.1017  1.7788
  187SLPC  H18S21580   3.148   6.975   8.693 -0.6852 -1.3870  1.9709
  187SLPC  H18T21581   3.036   7.104   8.628  0.7023 -0.5973 -1.8018
  187SLPC   C3321582   3.473   6.670   7.272  1.0470 -0.1576 -0.5174
  187SLPC   H3X21583   3.382   6.661   7.208  1.8461 -0.3788 -1.6376
  187SLPC   H3Y21584   3.481   6.779   7.295 -0.1883 -0.1059 -0.2658
  187SLPC   C3421585   3.454   6.606   7.406 -0.3467 -0.6291 -0.3750
  187SLPC   H4X21586   3.410   6.506   7.389 -2.8032  0.9181 -3.5698
  187SLPC   H4Y21587   3.373   6.664   7.455 -0.4259 -0.1663 -1.0498
  187SLPC   C3521588   3.590   6.602   7.492  0.5979  0.2065 -0.3603
  187SLPC   H5X21589   3.650   6.694   7.474 -1.6669  1.6368 -0.7489
  187SLPC   H5Y21590   3.652   6.513   7.467 -0.2372  0.0919 -2.1151
  187SLPC   C3621591   3.550   6.589   7.639 -0.1233 -0.0150 -0.4398
  187SLPC   H6X21592   3.490   6.497   7.658  1.3832 -1.1096 -0.8705
  187SLPC   H6Y21593   3.485   6.677   7.660  1.3872  0.7370  1.2346
  187SLPC   C3721594   3.674   6.587   7.731  0.1606  0.3467  0.1783
  187SLPC   H7X21595   3.696   6.480   7.753  0.4835  0.8062  2.1772
  187SLPC   H7Y21596   3.762   6.636   7.685 -0.7595  1.7076 -0.1639
  187SLPC   C3821597   3.645   6.663   7.859  0.1959  0.1566  0.7419
  187SLPC   H8X21598   3.549   6.635   7.908  0.9178 -0.2523  1.9627
  187SLPC   H8Y21599   3.630   6.772   7.844 -0.8797  0.0564  1.0069
  187SLPC   C3921600   3.764   6.655   7.963  0.7429 -0.3595 -0.3108
  187SLPC   H9X21601   3.858   6.697   7.922  0.2707  0.4389 -0.5878
  187SLPC   H9Y21602   3.796   6.551   7.983 -1.3999 -0.9348  0.2448
  187SLPC  C31021603   3.724   6.717   8.100  0.0450 -0.1525 -0.5313
  187SLPC  H10X21604   3.631   6.664   8.128  0.7437 -0.8194  0.5669
  187SLPC  H10Y21605   3.704   6.825   8.082 -0.5129 -0.2088 -0.2383
  187SLPC  C31121606   3.831   6.683   8.205  0.5115  0.4504  0.5772
  187SLPC  H11X21607   3.931   6.696   8.158  1.1174  0.7262  1.9031
  187SLPC  H11Y21608   3.820   6.573   8.213 -2.0309  0.6013 -0.5605
  187SLPC  C31221609   3.819   6.760   8.332  0.1115 -0.2844  1.1255
  187SLPC  H12X21610   3.737   6.721   8.397 -0.3727  0.6320  1.0681
  187SLPC  H12Y21611   3.802   6.866   8.305  0.3673 -0.8122 -1.1544
  187SLPC  C31321612   3.941   6.755   8.424  0.6140 -0.7587  0.1008
  187SLPC  H13X21613   4.025   6.768   8.352  0.8260 -1.6550  0.1830
  187SLPC  H13Y21614   3.944   6.652   8.464 -0.7614 -1.5693 -1.8042
  187SLPC  C31421615   3.941   6.854   8.546  0.2311 -0.2703 -0.6776
  187SLPC  H14X21616   3.841   6.869   8.592  1.2968 -1.1585  2.0487
  187SLPC  H14Y21617   3.963   6.950   8.494  0.3776 -0.2384 -0.5580
  187SLPC  C31521618   4.058   6.828   8.643 -0.0625  0.0064  0.4243
  187SLPC  H15X21619   4.071   6.918   8.708  1.0587 -1.2705  2.0174
  187SLPC  H15Y21620   4.144   6.804   8.577  0.1993 -0.5533  0.9701
  187SLPC  C31621621   4.042   6.703   8.733 -0.0237  0.5694  0.1279
  187SLPC  H16X21622   3.981   6.634   8.671 -0.5903  1.6181 -0.4802
  187SLPC  H16Y21623   3.977   6.735   8.817 -1.0901 -4.2108  1.2640
  187SLPC  C31721624   4.176   6.647   8.782 -0.2691 -0.0962 -0.2533
  187SLPC  H17X21625   4.227   6.717   8.852  0.2108 -2.8759  2.2502
  187SLPC  H17Y21626   4.249   6.626   8.702 -0.6821  0.2329 -0.7221
  187SLPC  C31821627   4.155   6.513   8.858 -0.3435 -0.0725  0.1326
  187SLPC  H18X21628   4.108   6.442   8.787  0.4318  1.0879 -1.5581
  187SLPC  H18Y21629   4.086   6.512   8.946 -2.2245  0.4779 -1.2984
  187SLPC  H18Z21630   4.254   6.473   8.887  0.9481  1.4106 -2.0928
  188SLPC     N21631   3.635   1.511   6.338 -0.0866  0.1668 -0.1072
  188SLPC   C1321632   3.491   1.479   6.345 -0.3448 -0.4426  0.2154
  188SLPC  H13A21633   3.465   1.401   6.274  3.4448 -0.1998 -1.5740
  188SLPC  H13B21634   3.461   1.425   6.433  0.3316  0.6522  1.1192
  188SLPC  H13C21635   3.424   1.563   6.337 -0.2252 -0.4613 -1.2756
  188SLPC   C1421636   3.677   1.581   6.460 -0.2056  0.1174 -0.0087
  188SLPC  H14A21637   3.628   1.676   6.475 -0.8580 -0.4457  1.4827
  188SLPC  H14B21638   3.652   1.523   6.547  2.0330  0.6494  1.0297
  188SLPC  H14C21639   3.785   1.594   6.456 -0.2068 -0.4516 -2.7628
  188SLPC   C1521640   3.648   1.601   6.224 -0.1958 -0.1340  0.5537
  188SLPC  H15A21641   3.751   1.628   6.211 -0.8193  3.3528  2.2867
  188SLPC  H15B21642   3.622   1.556   6.129  0.4581  0.2623  0.1889
  188SLPC  H15C21643   3.584   1.687   6.232 -0.9174 -0.8017  2.2789
  188SLPC   C1221644   3.711   1.384   6.336 -0.0750 -0.0830 -0.1829
  188SLPC  H12A21645   3.670   1.321   6.259 -0.5885 -4.0681  3.1981
  188SLPC  H12B21646   3.699   1.325   6.426  1.4602  0.6351  0.5110
  188SLPC   C1121647   3.867   1.406   6.325 -0.1195 -0.4017  0.1084
  188SLPC  H11A21648   3.891   1.495   6.264  1.0005  0.1337  1.3093
  188SLPC  H11B21649   3.917   1.315   6.287 -3.2491 -1.2765 -2.1372
  188SLPC     P21650   4.092   1.480   6.433  0.2102  0.0105 -0.5430
  188SLPC   O1321651   4.179   1.364   6.409 -0.0459  0.0072  0.8116
  188SLPC   O1421652   4.097   1.594   6.336  0.3312 -0.0948 -0.0653
  188SLPC   O1221653   3.933   1.432   6.451  0.4394  0.7323 -0.0513
  188SLPC   O1121654   4.118   1.545   6.577 -0.6407 -0.6669  0.0273
  188SLPC    C121655   4.103   1.462   6.695  0.0580 -0.0945  0.0948
  188SLPC    HA21656   4.008   1.405   6.689  0.6757 -1.3161  1.4929
  188SLPC    HB21657   4.191   1.394   6.692  0.2161  0.1562 -0.8625
  188SLPC    C221658   4.089   1.556   6.825  0.0794  0.0216  0.4214
  188SLPC    HS21659   4.180   1.619   6.832  0.0320  0.0512  0.7550
  188SLPC   O2121660   4.085   1.484   6.945  0.3377 -0.2249 -0.2427
  188SLPC   C2121661   4.194   1.408   6.968  0.4563 -0.5883  0.3579
  188SLPC   O2221662   4.286   1.389   6.892  0.1789  0.5778 -0.4628
  188SLPC   C2221663   4.177   1.349   7.109  0.3226  0.4654  0.9888
  188SLPC   H2R21664   4.135   1.433   7.168 -0.3556 -0.2843  1.5854
  188SLPC   H2S21665   4.089   1.281   7.105 -0.1660  1.1990 -2.9000
  188SLPC    C321666   3.964   1.653   6.810 -0.5155 -0.0598  1.0480
  188SLPC    HX21667   3.877   1.588   6.789 -1.1472  0.6280  1.4791
  188SLPC    HY21668   3.979   1.717   6.720 -0.8333 -1.0801  0.2688
  188SLPC   O3121669   3.946   1.734   6.930 -0.0007 -0.5100 -0.6807
  188SLPC   C3121670   4.018   1.843   6.945 -0.1618 -0.0488  0.4387
  188SLPC   O3221671   4.099   1.885   6.864  0.2773 -0.8310 -0.2638
  188SLPC   C3221672   4.005   1.898   7.086 -0.1118 -0.0813 -0.2748
  188SLPC   H2X21673   3.937   1.828   7.138 -2.0610 -0.1609 -2.8319
  188SLPC   H2Y21674   3.956   1.998   7.088  1.3030  0.6155  1.2521
  188SLPC   C2321675   4.292   1.271   7.167 -0.2681 -0.4856 -1.2714
  188SLPC   H3R21676   4.378   1.341   7.172 -0.1445 -0.7043 -0.0415
  188SLPC   H3S21677   4.327   1.199   7.091  0.8471 -0.7804 -0.4851
  188SLPC   C2421678   4.256   1.189   7.293 -0.1059 -0.7766 -0.5254
  188SLPC   H4R21679   4.353   1.169   7.343 -0.2503 -2.9479 -1.0909
  188SLPC   H4S21680   4.213   1.098   7.247 -0.6981 -0.5575 -0.4137
  188SLPC   C2521681   4.161   1.253   7.400 -0.2647  0.1090 -0.1986
  188SLPC   H5R21682   4.056   1.272   7.370 -0.6287  0.5307  1.2618
  188SLPC   H5S21683   4.200   1.354   7.427  3.3629 -0.9949 -1.0233
  188SLPC   C2621684   4.160   1.166   7.519 -0.2403  0.1422  0.1992
  188SLPC   H6R21685   4.263   1.140   7.553 -1.1368 -3.7252  0.1499
  188SLPC   H6S21686   4.131   1.063   7.489 -0.8895 -0.1912  1.9181
  188SLPC   C2721687   4.089   1.219   7.648  0.7533 -0.3982  0.8749
  188SLPC   H7R21688   3.993   1.258   7.608  0.1426  0.2999  2.9674
  188SLPC   H7S21689   4.140   1.309   7.688  1.8912  0.1520 -1.6930
  188SLPC   C2821690   4.067   1.115   7.761  0.9530 -0.3646 -0.1572
  188SLPC   H8R21691   3.980   1.054   7.729  1.1806  0.7106 -2.9705
  188SLPC   H8S21692   4.039   1.171   7.852 -0.8502  0.0115 -0.9289
  188SLPC   C2921693   4.188   1.034   7.789 -0.6476 -0.2849 -0.7629
  188SLPC   H9R21694   4.209   0.959   7.710  1.9124 -0.6717  0.2456
  188SLPC  C21021695   4.266   1.020   7.902 -0.2443 -0.4698 -1.0600
  188SLPC  H10R21696   4.339   0.939   7.901  1.4219  0.9618  0.5169
  188SLPC  C21121697   4.249   1.099   8.031  0.1878  0.0510  0.7107
  188SLPC  H11R21698   4.183   1.035   8.094  2.8758 -1.3163  2.2378
  188SLPC  H11S21699   4.210   1.202   8.018 -0.3630 -0.1890  0.4079
  188SLPC  C21221700   4.376   1.105   8.111  0.0670 -0.8016  0.5097
  188SLPC  H12R21701   4.470   1.104   8.054 -0.5586  2.4582 -0.6535
  188SLPC  C21321702   4.390   1.093   8.244  0.0643  0.1302 -0.2617
  188SLPC  H13R21703   4.495   1.091   8.279  0.9818  0.1774 -2.9431
  188SLPC  C21421704   4.285   1.077   8.339 -0.3954 -0.3128  0.5393
  188SLPC  H14R21705   4.186   1.062   8.291 -0.2417 -2.2852  0.7743
  188SLPC  H14S21706   4.272   1.164   8.407 -2.3128 -0.1943  0.0584
  188SLPC  C21521707   4.308   0.955   8.428 -0.7874  0.1600 -0.3213
  188SLPC  H15R21708   4.411   0.962   8.469 -1.9344  0.4283  2.5688
  188SLPC  H15S21709   4.283   0.874   8.355  0.6818 -0.5175 -0.1061
  188SLPC  C21621710   4.214   0.961   8.554  0.1690  0.3219  0.6200
  188SLPC  H16R21711   4.109   0.970   8.520  0.6646  1.5629 -0.6231
  188SLPC  H16S21712   4.244   1.038   8.628 -0.5033  0.8605  0.3391
  188SLPC  C21721713   4.223   0.828   8.631  0.5925  0.5077  0.2143
  188SLPC  H17R21714   4.322   0.823   8.680  1.4196  1.1875 -1.3551
  188SLPC  H17S21715   4.239   0.746   8.558 -0.6172 -1.1047  1.7351
  188SLPC  C21821716   4.108   0.814   8.725  0.0209  0.2776 -0.3254
  188SLPC  H18R21717   4.010   0.807   8.674  0.2606  1.8000 -1.0028
  188SLPC  H18S21718   4.088   0.909   8.779 -2.3986  0.3855 -1.3632
  188SLPC  H18T21719   4.126   0.733   8.800  0.7728  1.0601  0.3492
  188SLPC   C3321720   4.138   1.904   7.172 -0.4554  0.1828 -0.5471
  188SLPC   H3X21721   4.214   1.965   7.118  1.3968 -2.2557 -0.7847
  188SLPC   H3Y21722   4.166   1.796   7.171  0.3434  0.3902 -0.6352
  188SLPC   C3421723   4.121   1.947   7.313  0.3455  0.5921  0.9183
  188SLPC   H4X21724   4.097   2.056   7.318 -0.6397  0.5131 -1.2309
  188SLPC   H4Y21725   4.219   1.936   7.364 -0.4498 -1.1135  2.0930
  188SLPC   C3521726   4.026   1.866   7.403 -0.5985 -0.1854  0.3962
  188SLPC   H5X21727   4.052   1.765   7.366  0.9713 -0.4578  2.1578
  188SLPC   H5Y21728   3.921   1.884   7.370 -0.0813 -1.0974 -1.8542
  188SLPC   C3621729   4.053   1.892   7.553 -0.3366  0.3552  0.0113
  188SLPC   H6X21730   4.025   1.998   7.570 -1.9993 -0.2857  1.5173
  188SLPC   H6Y21731   4.163   1.881   7.566 -0.3294 -0.0586 -0.4001
  188SLPC   C3721732   3.973   1.790   7.642 -0.0806 -0.2214 -0.0996
  188SLPC   H7X21733   3.867   1.791   7.608  0.0439 -1.1025 -0.5333
  188SLPC   H7Y21734   3.971   1.817   7.750 -0.5475  0.7729 -0.3472
  188SLPC   C3821735   4.030   1.644   7.643 -0.8497  0.3621  0.1843
  188SLPC   H8X21736   4.133   1.657   7.685 -1.1921  0.8271  0.8947
  188SLPC   H8Y21737   4.042   1.613   7.537  0.4067  0.2819  0.3391
  188SLPC   C3921738   3.954   1.543   7.729 -0.4399 -0.0756  0.1593
  188SLPC   H9X21739   3.990   1.546   7.834 -0.0053  0.6792 -0.0077
  188SLPC   H9Y21740   3.980   1.445   7.685  1.2669  0.3072  0.2882
  188SLPC  C31021741   3.801   1.556   7.740  0.0276 -0.0863 -0.1134
  188SLPC  H10X21742   3.755   1.455   7.734  2.0027 -0.8951 -2.2828
  188SLPC  H10Y21743   3.762   1.606   7.649 -0.0224  1.1552  0.5762
  188SLPC  C31121744   3.759   1.628   7.867  0.2464  0.4357  0.2912
  188SLPC  H11X21745   3.787   1.735   7.878 -2.8100  1.5024 -1.6224
  188SLPC  H11Y21746   3.811   1.584   7.955 -1.1372  3.3617  2.6361
  188SLPC  C31221747   3.603   1.632   7.890 -0.8524  0.2690 -0.3841
  188SLPC  H12X21748   3.550   1.639   7.793  0.0576 -1.5536 -1.0461
  188SLPC  H12Y21749   3.573   1.717   7.955  0.0391  1.0000 -0.9123
  188SLPC  C31321750   3.540   1.504   7.950 -0.7083 -0.2915  0.3177
  188SLPC  H13X21751   3.624   1.432   7.953 -1.5732 -1.4158 -1.3536
  188SLPC  H13Y21752   3.464   1.469   7.877 -2.1906  1.9778  0.6942
  188SLPC  C31421753   3.474   1.527   8.083  0.8517  0.0649  0.2250
  188SLPC  H14X21754   3.394   1.604   8.081 -0.1378 -0.9735 -2.8265
  188SLPC  H14Y21755   3.545   1.575   8.154 -1.4387  0.0615  2.5860
  188SLPC  C31521756   3.432   1.393   8.142  0.5133  0.4346  0.0478
  188SLPC  H15X21757   3.521   1.327   8.138  0.4573  0.2923  1.0034
  188SLPC  H15Y21758   3.359   1.342   8.077  0.3731 -1.3499  1.5422
  188SLPC  C31621759   3.367   1.403   8.288 -0.3599 -0.8868 -0.3068
  188SLPC  H16X21760   3.304   1.495   8.285 -1.6779 -1.6770  1.9950
  188SLPC  H16Y21761   3.453   1.423   8.356 -0.8433 -2.7477  0.8914
  188SLPC  C31721762   3.274   1.283   8.307  0.5479  0.0183  0.5021
  188SLPC  H17X21763   3.336   1.203   8.259 -1.0885 -1.5996  1.0264
  188SLPC  H17Y21764   3.185   1.295   8.242  0.3168 -0.7295  0.6683
  188SLPC  C31821765   3.250   1.232   8.454  0.1692  0.0930  0.2709
  188SLPC  H18X21766   3.339   1.268   8.510 -0.9399  2.8303  0.3147
  188SLPC  H18Y21767   3.227   1.123   8.450 -1.1546  0.3725  0.0903
  188SLPC  H18Z21768   3.156   1.273   8.497  0.8092 -0.3234  2.1113
  189SLPC     N21769   6.437   4.384   6.446  0.0279  0.7828  0.9959
  189SLPC   C1321770   6.484   4.462   6.560  0.3821 -0.5704 -0.4895
  189SLPC  H13A21771   6.406   4.483   6.631 -1.3854 -0.9243 -2.3097
  189SLPC  H13B21772   6.555   4.403   6.616 -0.6700 -1.5943 -0.2211
  189SLPC  H13C21773   6.523   4.556   6.524 -1.2922  0.7894  1.1612
  189SLPC   C1421774   6.362   4.459   6.345  0.2356  0.1011 -0.5183
  189SLPC  H14A21775   6.285   4.404   6.294  1.0544  0.9185 -2.7090
  189SLPC  H14B21776   6.310   4.536   6.398 -0.2430 -1.7305  1.7524
  189SLPC  H14C21777   6.435   4.493   6.273  1.8905  0.8422  1.4746
  189SLPC   C1521778   6.359   4.262   6.488 -0.1397  0.0422 -0.4142
  189SLPC  H15A21779   6.257   4.293   6.509  1.0545  2.1566  2.7489
  189SLPC  H15B21780   6.363   4.191   6.408  0.9905  0.0335 -0.3597
  189SLPC  H15C21781   6.406   4.221   6.576 -2.7278  1.4806  1.7188
  189SLPC   C1221782   6.562   4.332   6.368  0.1636 -0.2445 -0.4901
  189SLPC  H12A21783   6.621   4.417   6.335 -0.9834  0.1963 -1.4473
  189SLPC  H12B21784   6.537   4.279   6.278 -1.4042 -1.5973  0.7324
  189SLPC   C1121785   6.658   4.228   6.445  0.0537  0.6904 -0.1455
  189SLPC  H11A21786   6.692   4.271   6.541  1.1636  2.2531 -1.2176
  189SLPC  H11B21787   6.740   4.223   6.371  1.6880  1.0109  1.6101
  189SLPC     P21788   6.569   3.981   6.367 -0.1476  0.0820 -0.1811
  189SLPC   O1321789   6.449   4.013   6.290  0.7203  0.1163 -0.1441
  189SLPC   O1421790   6.681   3.941   6.282 -0.2395 -0.3518  0.5097
  189SLPC   O1221791   6.599   4.096   6.467  0.2598 -0.4885 -0.5247
  189SLPC   O1121792   6.541   3.854   6.457  0.1807  0.0807 -0.5882
  189SLPC    C121793   6.547   3.865   6.596 -0.7538  0.1485 -0.1001
  189SLPC    HA21794   6.591   3.770   6.634  1.4350  1.2110  0.1066
  189SLPC    HB21795   6.617   3.941   6.637  0.5959 -0.7282 -0.7850
  189SLPC    C221796   6.410   3.875   6.666 -0.0251  0.6371  0.3189
  189SLPC    HS21797   6.367   3.975   6.644 -0.9490  0.1009 -0.3617
  189SLPC   O2121798   6.424   3.845   6.810 -0.7322 -0.1251  0.1811
  189SLPC   C2121799   6.342   3.918   6.882  0.6633  0.1538  0.4153
  189SLPC   O2221800   6.240   3.981   6.847 -0.4179 -0.5536 -0.2964
  189SLPC   C2221801   6.401   3.923   7.020  0.0875  0.8651 -0.2704
  189SLPC   H2R21802   6.437   3.818   7.033  2.3102  1.5631 -0.6699
  189SLPC   H2S21803   6.482   3.997   7.007 -0.2822  1.0821 -1.3414
  189SLPC    C321804   6.312   3.777   6.587  0.6379 -0.5175  0.2769
  189SLPC    HX21805   6.357   3.681   6.620 -0.2463 -0.2468  2.3393
  189SLPC    HY21806   6.314   3.791   6.477  1.7475  0.3309  0.3900
  189SLPC   O3121807   6.177   3.784   6.637 -0.4371  0.2644 -0.0801
  189SLPC   C3121808   6.108   3.886   6.598  0.3251  0.3790 -0.7405
  189SLPC   O3221809   6.151   3.976   6.526 -0.0926 -0.8618 -0.1562
  189SLPC   C3221810   5.968   3.851   6.629  0.3599  0.5201 -0.2039
  189SLPC   H2X21811   5.960   3.746   6.594 -1.1834  0.5363  0.0648
  189SLPC   H2Y21812   5.897   3.918   6.576  1.5481  2.9779  1.2165
  189SLPC   C2321813   6.293   3.957   7.122 -0.5165 -0.2728 -0.3423
  189SLPC   H3R21814   6.235   4.047   7.092  0.9882  0.4946 -0.9744
  189SLPC   H3S21815   6.351   3.987   7.212 -1.3786  0.6668 -0.0892
  189SLPC   C2421816   6.192   3.835   7.154 -0.4307 -0.6556 -0.0568
  189SLPC   H4R21817   6.219   3.756   7.081 -0.4943  0.5219 -1.3883
  189SLPC   H4S21818   6.087   3.868   7.138 -0.4366  0.1097  1.4409
  189SLPC   C2521819   6.200   3.790   7.300  0.5162  0.1229  0.2816
  189SLPC   H5R21820   6.195   3.889   7.349  0.4813  0.0705  0.3836
  189SLPC   H5S21821   6.294   3.733   7.309  0.7178  0.0057 -2.0820
  189SLPC   C2621822   6.070   3.714   7.336  0.3795 -0.2464  0.0697
  189SLPC   H6R21823   6.054   3.632   7.263  1.1189  0.0691 -0.4454
  189SLPC   H6S21824   5.981   3.781   7.328 -0.4718 -1.3710  0.0286
  189SLPC   C2721825   6.086   3.652   7.478  0.7059  0.5481  0.0987
  189SLPC   H7R21826   6.171   3.581   7.472 -0.7604 -1.4659  2.3217
  189SLPC   H7S21827   5.993   3.593   7.496 -0.8606  2.6458 -0.7899
  189SLPC   C2821828   6.101   3.758   7.587 -0.2939 -0.7935 -0.6673
  189SLPC   H8R21829   6.024   3.838   7.586  0.8937  0.3725  0.1147
  189SLPC   H8S21830   6.196   3.813   7.574 -0.1529 -0.9565 -0.3411
  189SLPC   C2921831   6.090   3.693   7.723 -0.2053 -0.4626 -0.4004
  189SLPC   H9R21832   5.986   3.658   7.737 -0.1500 -1.0530 -1.4348
  189SLPC  C21021833   6.187   3.677   7.819 -0.1942 -1.3139  0.4028
  189SLPC  H10R21834   6.182   3.610   7.906  1.8286 -0.6708  1.0340
  189SLPC  C21121835   6.327   3.722   7.794  0.7866 -0.5807  0.0878
  189SLPC  H11R21836   6.339   3.705   7.685 -1.7867 -0.1856 -0.2734
  189SLPC  H11S21837   6.407   3.660   7.840 -0.9675 -1.5512  1.8960
  189SLPC  C21221838   6.335   3.871   7.831  0.1079  0.2064 -0.2118
  189SLPC  H12R21839   6.292   3.942   7.759  0.0049 -0.3046 -0.6470
  189SLPC  C21321840   6.366   3.924   7.951  0.0120  0.3878  0.3273
  189SLPC  H13R21841   6.360   4.033   7.963 -2.0743  0.0963  2.3917
  189SLPC  C21421842   6.414   3.846   8.071 -0.7847  0.9414 -0.4631
  189SLPC  H14R21843   6.393   3.737   8.061  0.1589  0.7489 -0.4197
  189SLPC  H14S21844   6.351   3.888   8.152  0.2251  1.3605  0.1130
  189SLPC  C21521845   6.563   3.864   8.102 -0.3745  0.0638 -0.2192
  189SLPC  H15R21846   6.602   3.967   8.118 -0.3218  0.3507 -2.0073
  189SLPC  H15S21847   6.642   3.819   8.037 -1.6111 -1.5867 -0.6142
  189SLPC  C21621848   6.602   3.787   8.234  0.3960 -0.1662 -0.3359
  189SLPC  H16R21849   6.713   3.779   8.232  0.3824 -0.9400  1.0042
  189SLPC  H16S21850   6.568   3.681   8.225 -1.2411  0.2890  0.3606
  189SLPC  C21721851   6.551   3.845   8.370  0.2037  0.5092 -0.0025
  189SLPC  H17R21852   6.441   3.843   8.386  0.5032 -1.9091  2.0536
  189SLPC  H17S21853   6.586   3.950   8.363 -1.0715  0.8855 -0.7752
  189SLPC  C21821854   6.619   3.793   8.496 -0.1693  0.3781 -0.4977
  189SLPC  H18R21855   6.608   3.684   8.514 -0.0502  0.4809  0.2091
  189SLPC  H18S21856   6.598   3.834   8.597 -0.6039  0.3967 -0.5957
  189SLPC  H18T21857   6.730   3.803   8.496 -0.0193 -1.0716 -1.5051
  189SLPC   C3321858   5.934   3.879   6.775 -0.4209  0.6202 -0.6572
  189SLPC   H3X21859   5.946   3.986   6.802 -1.5168  0.4885  0.3888
  189SLPC   H3Y21860   6.004   3.826   6.843 -0.5889 -0.5908 -1.4230
  189SLPC   C3421861   5.795   3.831   6.817  0.0883  0.1832 -0.0793
  189SLPC   H4X21862   5.770   3.729   6.782  0.8877 -0.0480  0.0217
  189SLPC   H4Y21863   5.720   3.897   6.768  2.5289  1.3187 -2.4231
  189SLPC   C3521864   5.782   3.827   6.975  0.3748 -0.0844 -0.0163
  189SLPC   H5X21865   5.865   3.770   7.021  0.2244 -0.5502 -0.3155
  189SLPC   H5Y21866   5.685   3.774   6.988 -0.4969  1.2838 -0.8019
  189SLPC   C3621867   5.775   3.966   7.047  0.2042 -0.5920  0.3331
  189SLPC   H6X21868   5.697   4.034   7.006 -0.1137 -1.0005  0.2581
  189SLPC   H6Y21869   5.873   4.016   7.029 -0.0556  0.6455  2.2333
  189SLPC   C3721870   5.754   3.956   7.197 -0.3660 -0.0134  0.3068
  189SLPC   H7X21871   5.800   4.044   7.246  1.4690 -0.4472 -0.5544
  189SLPC   H7Y21872   5.822   3.872   7.225  3.1095  2.6439  0.2078
  189SLPC   C3821873   5.610   3.926   7.257 -0.7626  0.3707 -0.1857
  189SLPC   H8X21874   5.556   3.846   7.201 -0.8338 -1.0547  1.8607
  189SLPC   H8Y21875   5.554   4.021   7.263  0.3876  0.9859  0.8187
  189SLPC   C3921876   5.625   3.892   7.405 -0.5772 -0.5107  0.2122
  189SLPC   H9X21877   5.708   3.951   7.448 -2.6797  1.0447  2.2562
  189SLPC   H9Y21878   5.651   3.785   7.421  0.2011 -0.4480 -0.5904
  189SLPC  C31021879   5.495   3.924   7.484  0.6808  0.2096 -0.2754
  189SLPC  H10X21880   5.405   3.904   7.421  0.1477  1.1436  0.1839
  189SLPC  H10Y21881   5.490   4.033   7.503 -0.7250  0.0258  0.5143
  189SLPC  C31121882   5.503   3.856   7.616  0.5883  0.3410 -0.3372
  189SLPC  H11X21883   5.532   3.751   7.597  1.2202  0.6240 -0.9737
  189SLPC  H11Y21884   5.401   3.855   7.660  0.9764  0.8286  0.5835
  189SLPC  C31221885   5.605   3.911   7.713  0.1385 -0.5643  0.1076
  189SLPC  H12X21886   5.558   4.001   7.759 -0.1020 -0.5580 -0.1485
  189SLPC  H12Y21887   5.696   3.942   7.657 -0.9319 -0.5101 -1.6604
  189SLPC  C31321888   5.642   3.815   7.826 -0.2322  0.1322  0.4785
  189SLPC  H13X21889   5.703   3.733   7.783 -0.3412 -0.8708  2.2062
  189SLPC  H13Y21890   5.547   3.779   7.871 -1.0543  1.5459 -0.0938
  189SLPC  C31421891   5.723   3.884   7.937 -0.3300 -0.1473  0.2089
  189SLPC  H14X21892   5.673   3.968   7.991 -0.3539  2.0069 -3.0059
  189SLPC  H14Y21893   5.819   3.928   7.900 -0.6235  0.2705 -0.0639
  189SLPC  C31521894   5.746   3.784   8.055 -0.3400 -0.6371  0.1882
  189SLPC  H15X21895   5.773   3.682   8.018 -1.3220 -0.7938 -0.1175
  189SLPC  H15Y21896   5.651   3.765   8.110  0.2823 -0.6004  1.2957
  189SLPC  C31621897   5.840   3.833   8.163 -0.1200 -0.1819  0.0311
  189SLPC  H16X21898   5.916   3.904   8.121 -0.6101 -0.2939 -1.0524
  189SLPC  H16Y21899   5.885   3.752   8.224  0.7330 -0.7146 -1.2976
  189SLPC  C31721900   5.765   3.913   8.278 -0.5193  0.3117 -0.2195
  189SLPC  H17X21901   5.688   3.850   8.327 -2.9948  1.3577 -2.6370
  189SLPC  H17Y21902   5.706   3.984   8.216  0.8125  0.1871 -1.6488
  189SLPC  C31821903   5.862   3.979   8.373 -0.7657 -0.3029  0.2297
  189SLPC  H18X21904   5.910   3.906   8.441 -1.7427  2.1183  3.6328
  189SLPC  H18Y21905   5.810   4.062   8.426 -0.1725 -0.1387  0.5578
  189SLPC  H18Z21906   5.940   4.028   8.309 -0.7498  0.4548  0.8238
  190SLPC     N21907   6.666   2.719   5.979 -0.7034 -0.5050  0.2983
  190SLPC   C1321908   6.739   2.600   5.935  0.3060  0.2197  0.1108
  190SLPC  H13A21909   6.843   2.623   5.917 -0.0651  2.5698  0.8617
  190SLPC  H13B21910   6.732   2.515   6.002  0.3448 -1.3029 -1.7575
  190SLPC  H13C21911   6.705   2.567   5.838  1.6269 -0.8232 -0.0205
  190SLPC   C1421912   6.518   2.693   5.975 -0.2838  0.7414 -0.5823
  190SLPC  H14A21913   6.494   2.611   6.041 -0.6107  0.1094 -1.4799
  190SLPC  H14B21914   6.451   2.769   6.012 -0.1605  0.0943  1.0075
  190SLPC  H14C21915   6.475   2.655   5.884 -0.8979 -0.1414  0.0716
  190SLPC   C1521916   6.694   2.834   5.885 -0.2138  0.8376 -0.1515
  190SLPC  H15A21917   6.801   2.842   5.873 -0.1215  1.2084  0.9001
  190SLPC  H15B21918   6.646   2.808   5.792 -1.3694  0.8497  0.4438
  190SLPC  H15C21919   6.657   2.921   5.937 -0.0785  0.4055  0.6779
  190SLPC   C1221920   6.708   2.740   6.121 -0.0733 -0.7296  0.9051
  190SLPC  H12A21921   6.815   2.756   6.117 -0.1510  0.4655  2.8347
  190SLPC  H12B21922   6.679   2.653   6.178 -0.2882 -0.8915  0.5486
  190SLPC   C1121923   6.655   2.849   6.205  0.2899  0.0828  1.1304
  190SLPC  H11A21924   6.682   2.946   6.158 -3.1762  0.0180 -1.1384
  190SLPC  H11B21925   6.706   2.842   6.304  1.3741  0.4275  0.6010
  190SLPC     P21926   6.440   2.743   6.324  0.0765 -0.5847  0.4806
  190SLPC   O1321927   6.294   2.747   6.306 -0.2898 -0.1509 -0.1611
  190SLPC   O1421928   6.500   2.611   6.291 -0.8589 -0.0895 -0.3353
  190SLPC   O1221929   6.514   2.843   6.228 -0.4293 -0.3117 -0.5594
  190SLPC   O1121930   6.474   2.797   6.467 -0.1924  0.1553 -0.4064
  190SLPC    C121931   6.484   2.932   6.502  0.0043 -0.4208  0.3899
  190SLPC    HA21932   6.593   2.953   6.513  0.1229 -0.3564 -0.8312
  190SLPC    HB21933   6.444   2.998   6.421  0.2444  1.4872  1.7900
  190SLPC    C221934   6.415   2.978   6.632  0.5982 -0.6626  0.0647
  190SLPC    HS21935   6.454   3.078   6.663 -1.5952  0.8377 -1.8724
  190SLPC   O2121936   6.442   2.880   6.735  0.2123 -0.1504 -0.2266
  190SLPC   C2121937   6.564   2.880   6.788 -0.0057 -0.9849  0.6366
  190SLPC   O2221938   6.654   2.956   6.752 -0.3113  0.2533  0.3115
  190SLPC   C2221939   6.576   2.781   6.909 -0.0279 -0.4718 -0.1770
  190SLPC   H2R21940   6.484   2.718   6.913 -1.2543  0.9563 -3.9842
  190SLPC   H2S21941   6.677   2.736   6.899 -0.1714 -0.6641 -0.7443
  190SLPC    C321942   6.261   2.977   6.611  0.4416  1.2041 -0.0284
  190SLPC    HX21943   6.225   2.882   6.566  0.5815  0.0717  2.1776
  190SLPC    HY21944   6.235   3.050   6.531 -0.0187  0.7638 -0.2864
  190SLPC   O3121945   6.192   3.017   6.734  0.2660 -0.1014  0.1463
  190SLPC   C3121946   6.154   2.913   6.804  0.1412 -0.2178  0.1748
  190SLPC   O3221947   6.170   2.796   6.768 -0.2589  0.5094  0.1689
  190SLPC   C3221948   6.067   2.963   6.925 -0.2263 -0.2247 -0.4151
  190SLPC   H2X21949   5.962   2.941   6.898 -0.2039  1.5496 -2.0409
  190SLPC   H2Y21950   6.082   3.073   6.931 -2.3014  0.1934 -2.4806
  190SLPC   C2321951   6.575   2.860   7.038  0.4887 -0.3723  0.3726
  190SLPC   H3R21952   6.478   2.908   7.068 -0.2775 -1.3847 -0.4706
  190SLPC   H3S21953   6.655   2.934   7.018  1.6619 -1.4040  1.1931
  190SLPC   C2421954   6.625   2.772   7.156  0.2025 -0.5531 -0.3402
  190SLPC   H4R21955   6.665   2.842   7.233  0.5732 -1.8077  0.6191
  190SLPC   H4S21956   6.707   2.700   7.134  0.8717  0.5183 -1.4374
  190SLPC   C2521957   6.510   2.692   7.211  0.2036  0.4554 -0.2949
  190SLPC   H5R21958   6.476   2.608   7.147  0.7043  0.0929 -0.0885
  190SLPC   H5S21959   6.422   2.758   7.231  0.9059  1.6950 -1.2264
  190SLPC   C2621960   6.538   2.622   7.341  0.0597 -0.3657 -0.0626
  190SLPC   H6R21961   6.629   2.561   7.322  0.8101  1.0079 -1.0476
  190SLPC   H6S21962   6.454   2.555   7.367  0.8851 -1.1218  0.6814
  190SLPC   C2721963   6.540   2.718   7.464 -0.7031 -0.2548  0.3667
  190SLPC   H7R21964   6.436   2.748   7.487 -0.1599  0.9721  1.3163
  190SLPC   H7S21965   6.596   2.810   7.436 -0.5808 -0.5336 -0.3169
  190SLPC   C2821966   6.606   2.661   7.587 -1.2009  0.5870 -0.2872
  190SLPC   H8R21967   6.712   2.647   7.560 -0.9401  1.5871  0.1968
  190SLPC   H8S21968   6.573   2.559   7.616  2.2542 -0.4155  0.2805
  190SLPC   C2921969   6.604   2.759   7.700 -0.2848  0.2598 -0.2183
  190SLPC   H9R21970   6.668   2.848   7.688  0.4028  0.0028  1.3777
  190SLPC  C21021971   6.536   2.745   7.813  0.7292  0.4020  0.5273
  190SLPC  H10R21972   6.527   2.830   7.882 -0.2171  1.1744 -0.5227
  190SLPC  C21121973   6.441   2.630   7.843 -0.7488  0.8417  0.6729
  190SLPC  H11R21974   6.465   2.537   7.787 -1.0342  1.4701 -0.5214
  190SLPC  H11S21975   6.339   2.646   7.802 -1.4058 -2.0108  1.1200
  190SLPC  C21221976   6.416   2.606   7.991 -0.2721 -0.7076 -1.0240
  190SLPC  H12R21977   6.462   2.515   8.034 -0.9124 -0.0291  1.1507
  190SLPC  C21321978   6.342   2.678   8.078  0.5546  0.2881  0.2983
  190SLPC  H13R21979   6.341   2.631   8.177 -0.5355  0.1700  0.2386
  190SLPC  C21421980   6.263   2.802   8.041  1.0358 -0.7494  0.0646
  190SLPC  H14R21981   6.157   2.768   8.043  1.1369 -1.0753 -0.0776
  190SLPC  H14S21982   6.277   2.832   7.935  2.0633 -0.3789  0.3087
  190SLPC  C21521983   6.262   2.923   8.133 -0.4029  0.5612 -0.0064
  190SLPC  H15R21984   6.204   3.004   8.084 -1.8552  0.6686  1.8330
  190SLPC  H15S21985   6.364   2.968   8.137  1.0421 -2.5323 -0.1996
  190SLPC  C21621986   6.213   2.896   8.280 -0.3257  0.0104  0.7138
  190SLPC  H16R21987   6.284   2.818   8.314  2.0012  1.7143 -0.0467
  190SLPC  H16S21988   6.112   2.851   8.272 -1.4653  2.5522  0.3106
  190SLPC  C21721989   6.222   3.007   8.380  0.0740 -0.9610 -0.2968
  190SLPC  H17R21990   6.321   3.054   8.362  0.0961 -1.2511 -0.9436
  190SLPC  H17S21991   6.202   2.969   8.483  0.7974 -0.3424  0.0765
  190SLPC  C21821992   6.118   3.116   8.344 -0.0791 -0.6692  1.1030
  190SLPC  H18R21993   6.024   3.057   8.343 -0.0670 -0.7044 -0.8380
  190SLPC  H18S21994   6.128   3.155   8.241 -1.2597 -2.5565  0.2334
  190SLPC  H18T21995   6.126   3.203   8.412  1.2777 -1.5420  2.0732
  190SLPC   C3321996   6.112   2.894   7.059  0.0782  0.0340 -0.3380
  190SLPC   H3X21997   6.222   2.882   7.066  0.0658 -0.7507 -1.3711
  190SLPC   H3Y21998   6.071   2.792   7.046 -0.2616  0.3627 -2.0589
  190SLPC   C3421999   6.049   2.962   7.180  0.2086 -0.0724  0.5792
  190SLPC   H4X22000   5.942   2.977   7.153  0.4044  1.2687  0.5302
  190SLPC   H4Y22001   6.097   3.061   7.196  2.2107 -0.5135 -2.4188
  190SLPC   C3522002   6.057   2.879   7.308  0.3072 -0.2186 -1.6103
  190SLPC   H5X22003   6.166   2.882   7.329 -0.1074  0.0761  0.6803
  190SLPC   H5Y22004   6.026   2.773   7.293  0.1107 -0.7753  2.1688
  190SLPC   C3622005   5.968   2.943   7.419  0.8705 -0.1187  0.1733
  190SLPC   H6X22006   5.861   2.915   7.403  1.4513 -0.6546 -3.2679
  190SLPC   H6Y22007   5.977   3.053   7.408 -0.6219  0.1123  1.1311
  190SLPC   C3722008   6.003   2.897   7.560 -0.1901 -0.2053 -0.1469
  190SLPC   H7X22009   6.098   2.935   7.603  0.4166  1.2364 -2.6333
  190SLPC   H7Y22010   6.002   2.787   7.576  0.6069 -0.3100 -0.7588
  190SLPC   C3822011   5.888   2.932   7.653 -0.5097 -0.1169 -0.1345
  190SLPC   H8X22012   5.797   2.900   7.599  1.5459 -3.2812 -1.9507
  190SLPC   H8Y22013   5.895   3.042   7.659  0.6264 -0.1299 -1.0778
  190SLPC   C3922014   5.913   2.880   7.788 -0.0674  0.4271 -0.0683
  190SLPC   H9X22015   5.998   2.934   7.837  0.8250  0.2400 -1.3821
  190SLPC   H9Y22016   5.945   2.775   7.775 -0.1059  0.5412 -1.1164
  190SLPC  C31022017   5.792   2.884   7.886 -0.2964  0.6327  0.3939
  190SLPC  H10X22018   5.713   2.853   7.815  0.1208 -3.2243  1.4940
  190SLPC  H10Y22019   5.779   2.989   7.918 -0.7616  0.7107 -0.0348
  190SLPC  C31122020   5.802   2.790   8.015 -0.2107  0.0041  0.3814
  190SLPC  H11X22021   5.878   2.837   8.081 -0.7528  2.2339 -0.5591
  190SLPC  H11Y22022   5.844   2.688   7.999 -1.0967 -0.1073 -1.3979
  190SLPC  C31222023   5.666   2.777   8.092  0.1364 -0.2083  0.6127
  190SLPC  H12X22024   5.679   2.689   8.158 -1.5328  0.6142  2.0789
  190SLPC  H12Y22025   5.591   2.741   8.019  0.3726  0.6130 -0.0401
  190SLPC  C31322026   5.608   2.900   8.167 -0.6543 -0.0410 -0.1457
  190SLPC  H13X22027   5.505   2.880   8.205 -1.3112  0.7690 -1.4705
  190SLPC  H13Y22028   5.603   2.992   8.105 -0.3942  1.6456  2.2591
  190SLPC  C31422029   5.699   2.939   8.287 -0.0099  0.1756 -0.8852
  190SLPC  H14X22030   5.675   3.040   8.325  1.1151  0.6620 -1.4417
  190SLPC  H14Y22031   5.802   2.954   8.249  0.2561  0.8543  0.0935
  190SLPC  C31522032   5.705   2.839   8.401  0.0553  0.6907 -1.1417
  190SLPC  H15X22033   5.741   2.740   8.368 -0.4030  0.3318 -0.5837
  190SLPC  H15Y22034   5.601   2.827   8.439 -0.0388 -0.4906 -1.7769
  190SLPC  C31622035   5.807   2.880   8.514 -0.0199 -0.4902 -0.7822
  190SLPC  H16X22036   5.782   2.982   8.550 -0.9985 -1.5298  1.6178
  190SLPC  H16Y22037   5.905   2.877   8.462 -0.3625 -3.7617 -1.3370
  190SLPC  C31722038   5.813   2.784   8.636  0.4972  0.5416 -0.3007
  190SLPC  H17X22039   5.803   2.678   8.604  0.9508  0.5413 -0.4438
  190SLPC  H17Y22040   5.717   2.793   8.692  1.3116  0.4938  1.1121
  190SLPC  C31822041   5.933   2.808   8.727  1.2363  0.8464  0.4594
  190SLPC  H18X22042   5.948   2.918   8.729  1.8093  0.7541  1.4419
  190SLPC  H18Y22043   6.021   2.761   8.678 -0.2303 -3.3629  1.6481
  190SLPC  H18Z22044   5.923   2.773   8.832  2.2013  0.1643  0.3331
  191SLPC     N22045   5.677   4.990   5.676 -0.5636 -0.0313  0.5375
  191SLPC   C1322046   5.759   5.091   5.613  0.3649 -0.4396 -0.8818
  191SLPC  H13A22047   5.816   5.139   5.691 -1.5163  0.4672 -0.0268
  191SLPC  H13B22048   5.825   5.048   5.539 -0.2354 -0.4526 -1.4148
  191SLPC  H13C22049   5.703   5.171   5.565 -2.0504 -1.7458 -0.3255
  191SLPC   C1422050   5.764   4.869   5.705  0.3592 -0.3765  0.6656
  191SLPC  H14A22051   5.851   4.892   5.765 -0.8280  2.2411  1.4646
  191SLPC  H14B22052   5.702   4.787   5.739  1.3217 -1.2720  0.2986
  191SLPC  H14C22053   5.807   4.831   5.613  1.8991  0.2875  1.1025
  191SLPC   C1522054   5.574   4.949   5.583 -0.1482  0.2211  0.1409
  191SLPC  H15A22055   5.620   4.892   5.503  0.1988  0.3644  0.2381
  191SLPC  H15B22056   5.493   4.893   5.627 -0.4316  0.2908 -0.2898
  191SLPC  H15C22057   5.528   5.032   5.532  3.1161  2.5461  0.7930
  191SLPC   C1222058   5.617   5.058   5.801 -0.2972 -0.5984  0.7665
  191SLPC  H12A22059   5.533   5.002   5.837 -2.0530  1.3710 -0.1413
  191SLPC  H12B22060   5.588   5.155   5.763  0.7015 -0.3810  0.5391
  191SLPC   C1122061   5.716   5.074   5.919 -0.5922 -0.2032 -0.0493
  191SLPC  H11A22062   5.757   4.978   5.958 -1.1619 -0.3149  0.2797
  191SLPC  H11B22063   5.653   5.110   6.003  1.5012  1.2318  0.9403
  191SLPC     P22064   5.824   5.315   5.941 -0.3806 -0.1049  0.0855
  191SLPC   O1322065   5.958   5.369   5.907  0.2300 -0.4972 -0.7359
  191SLPC   O1422066   5.709   5.398   5.897  0.4095 -0.2285 -0.5569
  191SLPC   O1222067   5.810   5.170   5.885 -0.0583  0.1488 -0.1815
  191SLPC   O1122068   5.817   5.293   6.092 -0.0729  0.3562 -0.2017
  191SLPC    C122069   5.907   5.207   6.159  0.5477  0.5637  0.1892
  191SLPC    HA22070   5.868   5.105   6.139  1.9759 -0.1965  1.2111
  191SLPC    HB22071   6.012   5.206   6.122  0.5833 -1.1287  0.3167
  191SLPC    C222072   5.899   5.230   6.315 -0.4009  0.0550 -0.3431
  191SLPC    HS22073   5.904   5.131   6.366 -0.3057  0.2694  0.0597
  191SLPC   O2122074   5.775   5.292   6.351  0.2377  0.0304 -0.4734
  191SLPC   C2122075   5.669   5.227   6.330  0.5245  0.0760 -0.4757
  191SLPC   O2222076   5.657   5.108   6.294  0.0202 -0.2031  0.6639
  191SLPC   C2222077   5.551   5.326   6.349  0.3043  0.4441 -0.0894
  191SLPC   H2R22078   5.591   5.410   6.409 -0.9104 -0.8440  2.6022
  191SLPC   H2S22079   5.516   5.358   6.248 -2.7448  1.3889  1.2115
  191SLPC    C322080   6.024   5.308   6.376  0.2519  0.7018  0.3711
  191SLPC    HX22081   6.024   5.419   6.364  0.3653  0.4833 -1.8559
  191SLPC    HY22082   6.110   5.266   6.318 -0.3359 -0.8703  0.6131
  191SLPC   O3122083   6.031   5.267   6.513 -0.7684 -0.1477  0.2366
  191SLPC   C3122084   5.974   5.352   6.602  0.0066  0.4414 -0.1039
  191SLPC   O3222085   5.905   5.443   6.560 -0.0963 -0.0456  0.0322
  191SLPC   C3222086   5.988   5.292   6.749  0.2939  0.0855  0.9440
  191SLPC   H2X22087   6.079   5.229   6.747  0.6106  0.5469  0.8923
  191SLPC   H2Y22088   5.891   5.239   6.762 -1.2291  2.0047 -1.9816
  191SLPC   C2322089   5.442   5.252   6.422 -0.1498 -0.7651 -0.3265
  191SLPC   H3R22090   5.397   5.167   6.367  2.0170 -1.7305 -0.6654
  191SLPC   H3S22091   5.360   5.326   6.437  2.4661  1.9016  1.4994
  191SLPC   C2422092   5.487   5.203   6.565  0.4455  0.3894  0.5980
  191SLPC   H4R22093   5.560   5.275   6.607  1.2578  0.8097 -1.4896
  191SLPC   H4S22094   5.542   5.107   6.549 -2.0392 -1.3122  1.8593
  191SLPC   C2522095   5.370   5.173   6.664 -0.4060  0.1854  0.1055
  191SLPC   H5R22096   5.315   5.093   6.611  1.1960  0.3506 -1.8550
  191SLPC   H5S22097   5.319   5.271   6.681 -2.1981 -0.7295  0.1158
  191SLPC   C2622098   5.434   5.127   6.796 -0.1006  0.1284 -0.3270
  191SLPC   H6R22099   5.501   5.205   6.838  0.1792  0.1399 -0.7985
  191SLPC   H6S22100   5.498   5.037   6.784  2.2982  1.8970 -1.0097
  191SLPC   C2722101   5.328   5.085   6.896  0.3588 -0.5475 -1.2797
  191SLPC   H7R22102   5.267   5.000   6.859 -0.6334 -0.5020  0.2304
  191SLPC   H7S22103   5.264   5.174   6.913  1.8417  0.1580  0.7285
  191SLPC   C2822104   5.392   5.038   7.029 -0.8447 -0.0699  0.2728
  191SLPC   H8R22105   5.453   4.946   7.023  0.4992  0.7861  0.5715
  191SLPC   H8S22106   5.311   5.003   7.097 -1.1567 -0.2873 -0.2101
  191SLPC   C2922107   5.498   5.125   7.098  0.1090  0.0823  0.6440
  191SLPC   H9R22108   5.568   5.177   7.031  0.7845 -0.6194  0.8020
  191SLPC  C21022109   5.503   5.154   7.234  0.1857 -0.5374 -0.6678
  191SLPC  H10R22110   5.583   5.221   7.269  0.0414 -1.0442  0.6495
  191SLPC  C21122111   5.403   5.101   7.333 -0.6206 -0.1919 -0.2126
  191SLPC  H11R22112   5.457   5.030   7.401  0.4207 -0.7317 -1.5764
  191SLPC  H11S22113   5.320   5.045   7.285  0.4573 -0.6508 -1.5674
  191SLPC  C21222114   5.328   5.198   7.415 -0.1233 -0.3699  0.2391
  191SLPC  H12R22115   5.300   5.287   7.357  0.2194 -0.4312 -0.0163
  191SLPC  C21322116   5.294   5.190   7.546 -0.0886  0.2769  0.4766
  191SLPC  H13R22117   5.247   5.280   7.588 -1.0760 -0.1737  0.3400
  191SLPC  C21422118   5.327   5.091   7.652 -0.7624  0.2714 -0.5325
  191SLPC  H14R22119   5.377   5.147   7.734 -1.6902  1.5724 -0.8501
  191SLPC  H14S22120   5.401   5.022   7.606 -0.4139 -0.7358  1.5033
  191SLPC  C21522121   5.196   5.036   7.708 -0.1686  0.2722 -0.4444
  191SLPC  H15R22122   5.146   4.975   7.630  1.4471 -0.2288 -1.0939
  191SLPC  H15S22123   5.124   5.112   7.745  0.2989 -0.2051  1.5101
  191SLPC  C21622124   5.230   4.941   7.823  0.2676  0.1100 -0.0696
  191SLPC  H16R22125   5.278   4.995   7.907 -0.3562  1.2681 -0.4383
  191SLPC  H16S22126   5.301   4.863   7.789  1.6030  1.7431 -1.1647
  191SLPC  C21722127   5.114   4.862   7.887  0.5259 -0.6848  0.4424
  191SLPC  H17R22128   5.049   4.814   7.810 -0.1613  0.4872  0.2784
  191SLPC  H17S22129   5.040   4.937   7.923  0.1346 -0.7042 -0.2991
  191SLPC  C21822130   5.165   4.762   7.989 -0.8805 -0.1862  0.0121
  191SLPC  H18R22131   5.078   4.711   8.036 -1.1086  0.0997 -0.0995
  191SLPC  H18S22132   5.223   4.820   8.064 -1.7613  2.6617 -1.4522
  191SLPC  H18T22133   5.235   4.690   7.941 -1.0033 -0.9460  0.9550
  191SLPC   C3322134   5.994   5.415   6.844 -0.4574  0.2737 -0.0700
  191SLPC   H3X22135   5.892   5.456   6.862 -0.7039 -0.5837  0.5547
  191SLPC   H3Y22136   6.041   5.502   6.794  0.3820  0.4039  0.9404
  191SLPC   C3422137   6.067   5.395   6.976  0.2992  0.3937 -0.6809
  191SLPC   H4X22138   6.174   5.394   6.949  0.7388 -0.2753  1.0250
  191SLPC   H4Y22139   6.033   5.307   7.036 -1.3500  1.4288 -0.0477
  191SLPC   C3522140   6.037   5.517   7.063  0.0296  0.1673 -0.1324
  191SLPC   H5X22141   5.930   5.517   7.093  0.0478 -0.8032 -0.0332
  191SLPC   H5Y22142   6.054   5.604   6.996 -0.2367 -0.9667 -1.7008
  191SLPC   C3622143   6.139   5.530   7.177  0.1966 -0.5882  0.6112
  191SLPC   H6X22144   6.132   5.633   7.218  0.9125  0.2060 -1.2058
  191SLPC   H6Y22145   6.242   5.512   7.140  0.1540  1.3383 -0.4998
  191SLPC   C3722146   6.122   5.425   7.293 -0.6562 -0.2666  0.5469
  191SLPC   H7X22147   6.183   5.452   7.381 -1.6495 -2.4743  1.9725
  191SLPC   H7Y22148   6.165   5.332   7.250  0.2530  0.8051 -0.8904
  191SLPC   C3822149   5.975   5.413   7.344  0.4128 -0.3551 -0.2786
  191SLPC   H8X22150   5.934   5.344   7.266 -2.0852  0.1952  0.4970
  191SLPC   H8Y22151   5.923   5.511   7.349  1.4731  0.1839  0.1626
  191SLPC   C3922152   5.967   5.354   7.482  0.5249  0.1112  0.2216
  191SLPC   H9X22153   6.005   5.434   7.550  0.5271  0.7466 -0.5147
  191SLPC   H9Y22154   6.044   5.274   7.480 -0.7714 -1.1219 -1.6947
  191SLPC  C31022155   5.844   5.292   7.540 -0.4137  0.2086 -0.5269
  191SLPC  H10X22156   5.815   5.206   7.476 -0.3685  1.0507 -1.6862
  191SLPC  H10Y22157   5.758   5.363   7.539 -0.0713  0.6102 -1.5517
  191SLPC  C31122158   5.867   5.233   7.680 -0.4357  0.4942  0.1485
  191SLPC  H11X22159   5.904   5.315   7.745  1.1458 -1.1933  1.4535
  191SLPC  H11Y22160   5.939   5.148   7.678 -0.8086  0.1830 -0.7709
  191SLPC  C31222161   5.735   5.187   7.747 -0.4436 -0.0856  0.2231
  191SLPC  H12X22162   5.690   5.095   7.703  0.0573  0.2771 -1.0941
  191SLPC  H12Y22163   5.672   5.278   7.738 -0.8264 -0.3897 -0.1916
  191SLPC  C31322164   5.749   5.164   7.899  0.1556  0.4405 -0.5716
  191SLPC  H13X22165   5.799   5.252   7.944 -1.3107  1.2874 -0.5622
  191SLPC  H13Y22166   5.824   5.083   7.911 -1.0681 -0.7230 -0.7194
  191SLPC  C31422167   5.612   5.146   7.969 -0.1646  0.0596 -0.1706
  191SLPC  H14X22168   5.554   5.073   7.909  0.0430  1.8160 -2.5977
  191SLPC  H14Y22169   5.554   5.241   7.965 -0.6618 -0.2104  0.5340
  191SLPC  C31522170   5.610   5.089   8.116  0.0205 -0.0962 -0.2867
  191SLPC  H15X22171   5.668   5.155   8.184 -2.6984  2.2002 -0.0917
  191SLPC  H15Y22172   5.660   4.990   8.113  1.8686  0.8303 -1.0530
  191SLPC  C31622173   5.470   5.064   8.174  1.9315  0.3661 -0.0671
  191SLPC  H16X22174   5.417   4.984   8.119 -1.9557  0.4028  3.3815
  191SLPC  H16Y22175   5.412   5.158   8.167 -0.3244 -1.0761 -1.3601
  191SLPC  C31722176   5.477   5.007   8.317  0.1467 -0.4969 -0.3115
  191SLPC  H17X22177   5.548   5.069   8.376 -1.7827  2.5498 -1.0671
  191SLPC  H17Y22178   5.522   4.906   8.323 -1.6409 -1.3427 -1.0772
  191SLPC  C31822179   5.337   5.013   8.371  0.4372 -0.3524 -0.0159
  191SLPC  H18X22180   5.295   5.116   8.369 -1.5558 -1.0814  2.1944
  191SLPC  H18Y22181   5.310   4.953   8.460 -1.5151  0.6008  0.0595
  191SLPC  H18Z22182   5.289   4.950   8.293  4.1351 -1.5166 -1.4698
  192SLPC     N22183   5.839   5.918   6.151  0.2417  0.0179 -0.7568
  192SLPC   C1322184   5.877   6.039   6.071  0.0686  0.3559 -0.2374
  192SLPC  H13A22185   5.827   6.039   5.976 -0.8219  2.2192  0.2186
  192SLPC  H13B22186   5.856   6.126   6.132  2.0008  1.7492 -1.5284
  192SLPC  H13C22187   5.985   6.047   6.066  0.1734 -0.3538  0.5322
  192SLPC   C1422188   5.885   5.793   6.085 -0.7858  0.5485  0.6076
  192SLPC  H14A22189   5.899   5.710   6.153  4.5627  1.7254  1.1714
  192SLPC  H14B22190   5.820   5.760   6.006  1.5562  2.9633 -2.4274
  192SLPC  H14C22191   5.983   5.811   6.045 -0.7852  1.8448  1.1510
  192SLPC   C1522192   5.686   5.917   6.164  0.5806 -0.5528 -0.3362
  192SLPC  H15A22193   5.633   5.925   6.070  0.5877  0.2107 -0.2837
  192SLPC  H15B22194   5.647   5.823   6.198 -1.0009 -0.1294 -0.9733
  192SLPC  H15C22195   5.660   6.004   6.223 -0.1203 -1.4387  0.6549
  192SLPC   C1222196   5.896   5.921   6.287  0.9615  1.5001  0.8817
  192SLPC  H12A22197   6.000   5.894   6.286  0.7336  0.5220  2.5622
  192SLPC  H12B22198   5.869   5.829   6.335  3.2424  0.6671  0.6366
  192SLPC   C1122199   5.872   6.034   6.392 -0.5629 -0.2904 -0.3257
  192SLPC  H11A22200   5.949   6.014   6.469  1.3610 -0.3223 -2.1922
  192SLPC  H11B22201   5.776   6.014   6.443 -0.4194 -2.0166 -0.6948
  192SLPC     P22202   6.013   6.250   6.340 -0.0187 -0.1139  0.3341
  192SLPC   O1322203   6.119   6.156   6.308 -0.0138  0.1725  0.2683
  192SLPC   O1422204   5.997   6.373   6.258  0.3876 -0.3910 -0.2036
  192SLPC   O1222205   5.875   6.167   6.342 -0.4063  0.1446  0.4939
  192SLPC   O1122206   6.028   6.294   6.499 -0.3331 -0.7837 -0.2391
  192SLPC    C122207   5.929   6.377   6.556  0.2790 -0.7112  0.5770
  192SLPC    HA22208   5.962   6.481   6.531  0.7070 -1.2123 -0.9650
  192SLPC    HB22209   5.827   6.371   6.513 -0.0985  3.0950  0.7097
  192SLPC    C222210   5.925   6.361   6.707  0.1759  0.4667 -0.3490
  192SLPC    HS22211   6.027   6.343   6.748  0.5871 -1.4610 -2.1086
  192SLPC   O2122212   5.833   6.252   6.726  0.5339  0.5816  1.5255
  192SLPC   C2122213   5.886   6.134   6.764  0.1684 -0.8702  0.2109
  192SLPC   O2222214   6.002   6.096   6.752  0.2792  0.4083 -0.2075
  192SLPC   C2222215   5.785   6.059   6.849  0.5639  0.1665 -0.2882
  192SLPC   H2R22216   5.708   6.126   6.893  0.3383 -0.5375  0.3968
  192SLPC   H2S22217   5.737   6.001   6.768  2.7236 -0.4972 -1.1419
  192SLPC    C322218   5.862   6.483   6.769 -1.3551 -0.4208  0.0026
  192SLPC    HX22219   5.774   6.518   6.712 -0.4647  1.2244 -0.3997
  192SLPC    HY22220   5.941   6.561   6.762 -1.9167  0.1907  0.4253
  192SLPC   O3122221   5.826   6.465   6.907  0.7752  0.1097  0.1183
  192SLPC   C3122222   5.917   6.454   6.995 -0.1429  1.0647  0.4074
  192SLPC   O3222223   6.036   6.446   6.977  0.1458  1.2832  0.1371
  192SLPC   C3222224   5.853   6.476   7.134  0.0670  0.2038 -0.4041
  192SLPC   H2X22225   5.742   6.474   7.122  0.2568  2.1523 -3.0061
  192SLPC   H2Y22226   5.883   6.577   7.171 -2.4488  0.3510  1.3155
  192SLPC   C2322227   5.849   5.967   6.952 -0.3208  0.6547 -0.1607
  192SLPC   H3R22228   5.914   5.892   6.902 -0.5865 -0.4897  1.1990
  192SLPC   H3S22229   5.766   5.909   6.997  2.0923 -0.9595  2.4047
  192SLPC   C2422230   5.917   6.038   7.070  0.7776  0.2884  0.5329
  192SLPC   H4R22231   5.842   6.105   7.119  0.5667  0.1815  0.3585
  192SLPC   H4S22232   5.991   6.102   7.017 -0.8216  1.2740 -0.5470
  192SLPC   C2522233   6.001   5.953   7.172  0.3832 -0.1186  0.0933
  192SLPC   H5R22234   6.093   6.008   7.201  0.0319  0.7915 -0.5107
  192SLPC   H5S22235   6.029   5.851   7.138 -0.6333 -0.4478  0.2182
  192SLPC   C2622236   5.921   5.913   7.305  0.3544 -0.1475  0.1605
  192SLPC   H6R22237   5.816   5.897   7.273  0.6943 -1.6424 -0.2595
  192SLPC   H6S22238   5.928   6.005   7.367 -1.2873  1.0207 -1.3559
  192SLPC   C2722239   5.961   5.782   7.372 -0.5008 -0.0328  0.4511
  192SLPC   H7R22240   6.068   5.779   7.402  0.3514  2.3341 -2.1077
  192SLPC   H7S22241   5.954   5.703   7.294 -1.6837 -1.2256  1.7199
  192SLPC   C2822242   5.875   5.746   7.492  0.1950  0.9248  0.0441
  192SLPC   H8R22243   5.905   5.647   7.533 -1.8295  0.5433  0.6243
  192SLPC   H8S22244   5.772   5.731   7.453  1.4458  0.8013 -3.4200
  192SLPC   C2922245   5.896   5.847   7.598  0.0751 -1.2113  0.1394
  192SLPC   H9R22246   5.874   5.953   7.575  1.3372 -0.8319  0.6317
  192SLPC  C21022247   5.930   5.813   7.722  0.1871 -0.0159 -0.5842
  192SLPC  H10R22248   5.943   5.889   7.800 -1.0731 -1.8412  1.4379
  192SLPC  C21122249   5.956   5.679   7.782  0.2898  0.1631  0.2808
  192SLPC  H11R22250   6.022   5.694   7.869  0.4169  1.5995 -0.0590
  192SLPC  H11S22251   6.004   5.608   7.711  1.2282 -0.2976  1.3699
  192SLPC  C21222252   5.810   5.626   7.815 -0.2392 -0.2154 -0.3404
  192SLPC  H12R22253   5.736   5.630   7.734 -0.0648  0.7003 -0.4545
  192SLPC  C21322254   5.762   5.591   7.940  0.3469 -0.9067 -0.2781
  192SLPC  H13R22255   5.655   5.571   7.955  0.3375  0.4282  1.6091
  192SLPC  C21422256   5.853   5.593   8.066  0.0669  0.6164 -0.2762
  192SLPC  H14R22257   5.852   5.692   8.116  0.8169  1.2022 -1.3949
  192SLPC  H14S22258   5.956   5.555   8.046 -0.4438 -0.5264 -0.7613
  192SLPC  C21522259   5.812   5.502   8.184  0.0542  0.5029 -0.0393
  192SLPC  H15R22260   5.815   5.396   8.152 -0.3889 -0.4712  2.9542
  192SLPC  H15S22261   5.709   5.533   8.213  0.3986  2.8083 -1.1103
  192SLPC  C21622262   5.909   5.516   8.301  0.0819  0.1261  0.0787
  192SLPC  H16R22263   5.915   5.622   8.336  1.1953  0.2285 -0.3962
  192SLPC  H16S22264   6.010   5.485   8.265  0.0107  0.6385 -0.5803
  192SLPC  C21722265   5.883   5.434   8.430  0.2432  0.3385  0.5950
  192SLPC  H17R22266   5.960   5.462   8.505  0.0421 -0.7174  1.2006
  192SLPC  H17S22267   5.789   5.459   8.484 -0.0862  0.0308  0.1722
  192SLPC  C21822268   5.885   5.286   8.407  0.4823  0.4569  0.5476
  192SLPC  H18R22269   5.982   5.242   8.375  1.2296  1.9757  0.6695
  192SLPC  H18S22270   5.800   5.264   8.338 -0.2192 -1.2340  1.8946
  192SLPC  H18T22271   5.857   5.236   8.502 -2.0459  1.6288  0.4551
  192SLPC   C3322272   5.903   6.378   7.239 -0.1382  0.2132 -0.5458
  192SLPC   H3X22273   5.999   6.335   7.202  0.8625  1.1247  0.9366
  192SLPC   H3Y22274   5.827   6.298   7.251  0.4304 -0.1676  0.5333
  192SLPC   C3422275   5.927   6.438   7.378  0.1005 -0.1569 -0.6055
  192SLPC   H4X22276   5.849   6.513   7.404  1.5626  1.5125 -0.9052
  192SLPC   H4Y22277   6.024   6.492   7.379  0.5018 -0.8725  1.3882
  192SLPC   C3522278   5.933   6.327   7.484  0.2331  0.7625  0.1174
  192SLPC   H5X22279   5.998   6.247   7.442 -1.2190 -0.2299 -0.2965
  192SLPC   H5Y22280   5.831   6.284   7.499  0.5810  0.2370  1.0810
  192SLPC   C3622281   5.992   6.377   7.619  0.1087  0.2290 -0.2115
  192SLPC   H6X22282   5.938   6.469   7.651 -0.7735 -0.4010  0.1475
  192SLPC   H6Y22283   6.100   6.398   7.604  0.5375 -1.6358  0.1498
  192SLPC   C3722284   5.991   6.267   7.734  0.6559  0.2196  0.0522
  192SLPC   H7X22285   6.013   6.163   7.702  0.2458  0.0733  0.2305
  192SLPC   H7Y22286   5.886   6.274   7.772  1.7096  1.7618  2.8831
  192SLPC   C3822287   6.086   6.305   7.849  0.1942 -0.1636 -0.3285
  192SLPC   H8X22288   6.102   6.413   7.867  0.1514  0.0331 -1.4351
  192SLPC   H8Y22289   6.178   6.258   7.811  0.3890  1.7022 -2.2506
  192SLPC   C3922290   6.040   6.254   7.986 -0.1638 -0.1569  0.9600
  192SLPC   H9X22291   5.933   6.279   8.003  0.1212  0.7249  1.5314
  192SLPC   H9Y22292   6.099   6.317   8.056 -0.6242 -0.7036  1.8509
  192SLPC  C31022293   6.062   6.105   8.001 -0.1769 -0.0546  0.5092
  192SLPC  H10X22294   6.164   6.060   8.003 -0.4407 -0.7048 -0.3581
  192SLPC  H10Y22295   6.023   6.059   7.908 -1.0329  0.2634  0.7151
  192SLPC  C31122296   5.980   6.048   8.121  0.3668  0.5020  0.3943
  192SLPC  H11X22297   5.985   5.937   8.122 -2.1277  0.3747  0.4540
  192SLPC  H11Y22298   5.874   6.076   8.101 -0.7247 -3.1066  0.7843
  192SLPC  C31222299   6.009   6.113   8.257  0.0413 -0.4382  0.3868
  192SLPC  H12X22300   5.956   6.211   8.258 -1.5053 -1.1923 -2.0595
  192SLPC  H12Y22301   6.119   6.123   8.261  0.3139 -2.2905 -1.6068
  192SLPC  C31322302   5.970   6.042   8.383  0.2420  0.2139  0.0972
  192SLPC  H13X22303   6.012   5.939   8.376  0.5766  0.3704 -0.1423
  192SLPC  H13Y22304   5.861   6.027   8.400  0.1212 -0.6950 -1.4220
  192SLPC  C31422305   6.023   6.125   8.497 -0.6486 -0.1839  0.1941
  192SLPC  H14X22306   5.964   6.219   8.501 -0.3365  0.0227 -0.0322
  192SLPC  H14Y22307   6.129   6.149   8.478 -1.1220  2.0187  0.2858
  192SLPC  C31522308   6.017   6.049   8.633 -1.1547 -0.6030 -0.1784
  192SLPC  H15X22309   6.077   5.955   8.629 -2.3566 -1.3966 -0.0467
  192SLPC  H15Y22310   5.911   6.021   8.652 -0.3430 -2.7040  1.4117
  192SLPC  C31622311   6.086   6.120   8.753  0.7674 -0.1757 -0.2579
  192SLPC  H16X22312   6.191   6.101   8.725  0.9571 -0.6609  0.7622
  192SLPC  H16Y22313   6.073   6.069   8.851  0.8396 -0.3024 -0.3146
  192SLPC  C31722314   6.073   6.276   8.760  0.1443 -0.2569  0.5662
  192SLPC  H17X22315   6.094   6.322   8.662  0.1619 -4.3003 -1.4256
  192SLPC  H17Y22316   6.163   6.315   8.812 -0.1378 -0.1536  0.9835
  192SLPC  C31822317   5.942   6.323   8.825 -0.0811 -0.0791 -0.1902
  192SLPC  H18X22318   5.942   6.432   8.803  2.2482 -0.2590 -1.2449
  192SLPC  H18Y22319   5.936   6.301   8.934 -3.1681 -2.0228 -0.6870
  192SLPC  H18Z22320   5.861   6.276   8.766  0.5525 -0.3361 -0.8677
  193SOD    SOD22321   1.695   4.497   6.630  0.1566 -0.4938 -0.2388
  194SOD    SOD22322   1.313   5.345   2.554  0.0666 -0.2115  0.4088
  195SOD    SOD22323   0.176   5.988   6.009 -0.2514 -0.2798  0.0169
  196SOD    SOD22324   6.466   2.415  10.733 -0.3539 -0.0042  0.1697
  197SOD    SOD22325   5.518   2.326  11.602 -0.0712 -0.0513 -0.2954
  198SOD    SOD22326   5.946   5.062  13.233  0.0284 -0.0952 -0.0825
  199SOD    SOD22327   5.448   4.752   6.031  0.3374 -0.2537  0.2108
  200SOD    SOD22328   5.130   5.852  10.969  0.0484  0.4915 -0.1470
  201SOD    SOD22329   3.807   3.912  11.573  0.2591 -0.4921  0.2738
  202SOD    SOD22330   0.621   1.436  10.775  0.3040 -0.3138 -0.1033
  203SOD    SOD22331   6.110   2.011   3.195 -0.0446 -0.1949  0.4030
  204SOD    SOD22332   4.331   6.518  15.980 -0.6982 -0.4064 -0.2613
  205SOD    SOD22333   5.666   4.985  17.279 -0.0074 -0.1755  0.3603
  206SOD    SOD22334   1.312   2.253   1.065 -0.2124 -0.0222  0.0071
  207SOD    SOD22335   0.537   0.975   5.220 -0.1451 -0.7665 -0.3632
  208SOD    SOD22336   3.901   3.122   6.043  0.6930  0.0182 -0.4169
  209SOD    SOD22337   2.057   4.123   2.970  0.0653  0.3720 -0.0999
  210SOD    SOD22338   1.971   5.625   2.237 -0.9086 -0.5970  0.4954
  211SOD    SOD22339   2.684   1.609   5.297 -0.3168  0.2665 -0.1493
  212SOD    SOD22340   1.385   5.950   0.971  0.2535 -0.0609  0.3648
  213SOD    SOD22341   1.361   3.268  11.811  0.1651 -0.0883  0.0095
  214SOD    SOD22342   1.499   2.197   6.468 -0.2927  0.0105  0.0472
  215SOD    SOD22343   1.131   5.752  11.342  0.0907  0.0499 -0.3554
  216SOD    SOD22344   0.624   6.576   5.377  0.1033  0.1874  0.2345
  217SOD    SOD22345   4.466   5.312   2.618 -0.0444 -0.3532  0.0357
  218SOD    SOD22346   3.828   6.225  11.418  0.2567 -0.3560  0.2453
  219SOD    SOD22347   1.649   4.382   6.104 -0.3672 -0.3562 -0.0361
  220SOD    SOD22348   6.481   5.174  13.837 -0.3473 -0.1486 -0.0421
  221SOD    SOD22349   6.351   0.887  13.801  0.2740  0.2196  0.0598
  222SOD    SOD22350   5.037   0.987  17.239 -0.6341  0.5660  0.3308
  223SOD    SOD22351   4.124   1.630   0.788  0.2177 -0.4179  0.8058
  224SOD    SOD22352   1.373   0.935   4.313 -0.0965  0.1299 -0.3615
  225SOD    SOD22353   5.302   6.030   4.863  0.4924 -0.0208 -0.3874
  226SOD    SOD22354   0.268   2.410  11.344 -0.2089 -0.0708 -0.1639
  227SOD    SOD22355   3.266   0.507  11.616  0.0589  0.9453  0.0669
  228SOD    SOD22356   0.676   6.641  15.075 -0.0484 -0.2491 -0.1162
  229SOD    SOD22357   1.822   1.248  13.169  0.0244 -0.1314 -0.6389
  230SOD    SOD22358   0.626   4.721   4.449 -0.1275  0.1379  0.2207
  231SOD    SOD22359   4.540   1.297   6.368 -0.0706  0.0942  0.5584
  232SOD    SOD22360   2.868   0.582   5.456 -0.4185  0.1480  0.5173
  233SOD    SOD22361   2.812   6.447  11.311 -0.1532  0.6271 -0.4374
  234SOD    SOD22362   4.923   3.409  10.775 -0.6030 -0.6038  0.0944
  235SOD    SOD22363   6.505   1.182  12.430 -0.2138 -0.8259 -0.1636
  236SOD    SOD22364   5.255   0.138  16.171 -0.3449  0.3185  0.7463
  237SOD    SOD22365   4.839   6.333  14.003 -0.1894 -0.2632 -0.1814
  238SOD    SOD22366   5.034   0.886  12.258  0.0617 -0.2377 -0.0426
  239SOD    SOD22367   6.280   6.007  11.259  0.3536  0.0295 -0.0899
  240SOD    SOD22368   4.693   4.945  15.446 -0.1205 -0.1654 -0.4046
  241SOD    SOD22369   5.599   6.451   3.686 -0.0493  0.1648 -0.4505
  242SOD    SOD22370   0.648   6.673  10.941  0.2883  0.2672  0.4611
  243SOD    SOD22371   6.649   2.101   5.756  0.0994 -0.6063  0.0646
  244SOD    SOD22372   2.495   2.968  14.443  0.2219 -0.0193  0.2476
  245SOD    SOD22373   0.561   3.702   2.883 -0.4926 -0.2262  0.0625
  246SOD    SOD22374   4.423   5.267   1.168  0.0325  0.0547  0.1971
  247SOD    SOD22375   4.661   4.962   5.093 -0.6142 -0.6136 -0.1408
  248SOD    SOD22376   0.371   0.454  15.244  0.0122  0.0577  0.5687
  249SOD    SOD22377   2.641   5.454   2.526  0.3927 -0.2211 -0.1236
  250SOD    SOD22378   4.861   6.059   5.483  0.1929 -0.2399 -0.0304
  251SOD    SOD22379   4.468   4.766   0.250 -0.5159  0.3483  0.3249
  252SOD    SOD22380   5.221   1.681  12.953  0.3893 -0.1720  0.4178
  253SOD    SOD22381   0.162   5.267  15.105 -0.1146 -0.1171  0.0009
  254SOD    SOD22382   3.396   0.527  16.194  0.1550  0.1116  0.0834
  255SOD    SOD22383   2.049   4.634   5.711  0.0250  1.0870  0.3027
  256SOD    SOD22384   1.817   4.150  16.758  0.0689 -0.3012 -0.0904
  257SOD    SOD22385   4.930   2.843   3.935 -0.2906  0.2276  0.1291
  258SOD    SOD22386   2.199   3.799  12.020 -0.1683  0.0136  0.5846
  259SOD    SOD22387   3.594   5.667   5.684  0.5339 -0.5888 -0.1978
  260SOD    SOD22388   6.251   5.316   4.192 -0.0054  0.6192  0.0638
  261SOD    SOD22389   2.915   2.412  11.758 -0.1718 -0.0659  0.1820
  262SOD    SOD22390   4.952   3.784  14.465 -0.1122 -0.1404  0.4467
  263SOD    SOD22391   5.984   3.646  16.081 -0.0767 -0.0619 -0.4138
  264SOD    SOD22392   2.868   2.338  10.663  0.0952  0.2220 -0.3264
  265SOD    SOD22393   1.680   0.855  15.318  0.1835  0.2280  0.1496
  266CLA    CLA22394   5.755   6.165   2.731 -0.2415  0.0357  0.0962
  267CLA    CLA22395   0.181   4.119   2.385  0.4986 -0.1433  0.1298
  268CLA    CLA22396   4.940   2.265  13.242  0.2894 -0.0659 -0.1611
  269CLA    CLA22397   0.327   0.944   3.157 -0.1090  0.0118 -0.2880
  270CLA    CLA22398   4.933   6.774  14.910 -0.4290 -0.1871  0.0796
  271CLA    CLA22399   6.181   0.927  12.129 -0.0084 -0.5049  0.2171
  272CLA    CLA22400   2.267   4.198  16.968 -0.1777 -0.0912  0.2852
  273CLA    CLA22401   5.688   4.313  14.781 -0.0598  0.1335  0.1734
  274CLA    CLA22402   0.577   0.136   3.168  0.1305  0.1741 -0.2526
  275CLA    CLA22403   2.536   3.448  12.030 -0.1861 -0.2785 -0.0496
  276CLA    CLA22404   2.719   4.526  16.329  0.0219 -0.0043  0.1975
  277CLA    CLA22405   5.539   6.714   1.260  0.0104  0.7561  0.0320
  278CLA    CLA22406   4.774   4.726   4.359 -0.0232 -0.5008  0.1069
  279CLA    CLA22407   0.896   0.849  16.816 -0.0374  0.2571 -0.2826
  280CLA    CLA22408   2.224   6.586   2.425 -0.1155 -0.0850  0.3390
  281CLA    CLA22409   5.457   6.140   5.307  0.2892 -0.5004  0.3707
  282CLA    CLA22410   3.950   6.562  11.668  0.2949 -0.1578  0.0056
  283CLA    CLA22411   3.776   0.093  15.912  0.1645 -0.1343  0.0144
  284CLA    CLA22412   6.745   3.551  14.008  0.7676  0.3829  0.1060
  285CLA    CLA22413   3.508   4.156  15.845 -0.3500  0.2279  0.2151
  286CLA    CLA22414   6.262   2.877  12.089  0.3944 -0.2717 -0.2076
  287CLA    CLA22415   0.451   6.006   3.755  0.3253  0.1303 -0.1980
  288CLA    CLA22416   4.022   3.710   1.920 -0.2702  0.1573  0.2290
  289CLA    CLA22417   6.812   5.075  15.549 -0.3548 -0.0456  0.0349
  290CLA    CLA22418   1.812   3.613   3.809  0.0721  0.7243  0.2718
  291CLA    CLA22419   0.779   4.985  13.131 -0.2340  0.3034  0.1467
  292CLA    CLA22420   4.727   5.071  12.981  0.2302  0.0607 -0.5357
  293CLA    CLA22421   0.057   1.593  12.954 -0.4634 -0.1849  0.0784
  294CLA    CLA22422   2.442   6.421   4.798 -0.0691  0.0945  0.0963
  295CLA    CLA22423   1.204   2.790   0.995  0.4243 -0.2512  0.4300
  296CLA    CLA22424   3.888   3.102   5.784  0.0493  0.0337  0.0899
  297CLA    CLA22425   5.152   4.982   0.142 -0.0864  0.1794  0.3035
  298CLA    CLA22426   1.540   6.695   0.549 -0.0321  0.2318  0.1513
  299CLA    CLA22427   5.964   5.380  16.406 -0.2228 -0.7551 -0.1833
  300CLA    CLA22428   4.500   0.683  15.917 -0.0478 -0.3602 -0.3367
  301CLA    CLA22429   3.677   3.212  11.798  0.4203  0.0944  0.1642
  302CLA    CLA22430   2.352   3.043  12.637  0.2306  0.1755  0.0883
  303CLA    CLA22431   4.735   6.088   4.946  0.2655 -0.2953  0.5408
  304CLA    CLA22432   6.690   4.506   1.794  0.1191  0.0810 -0.0450
  305CLA    CLA22433   1.165   2.637  15.394  0.2085 -0.0624  0.1446
  306CLA    CLA22434   3.281   4.493   4.761  0.4638  0.8250  0.0853
  307CLA    CLA22435   5.172   6.253  15.286 -0.0917 -0.4061 -0.7190
  308CLA    CLA22436   3.918   4.390  15.738  0.7010 -0.2893 -0.2133
  309CLA    CLA22437   3.156   6.402   2.104 -0.0163 -0.2075  0.0653
  310CLA    CLA22438   2.356   1.730  15.245 -0.5493 -0.2168 -0.2530
  311CLA    CLA22439   0.684   5.488   2.918  0.1809 -0.1798  0.0277
  312CLA    CLA22440   2.587   3.807   4.352  0.5906  0.4653 -0.3705
  313CLA    CLA22441   3.527   3.775   4.686  0.4233 -0.0470 -0.0321
  314CLA    CLA22442   5.901   3.333   3.559  0.0875 -0.1092  0.1035
  315CLA    CLA22443   3.370   1.249  11.449  0.4079 -0.0950 -0.1485
  316CLA    CLA22444   2.929   2.184  11.887 -0.3830  0.1658  0.0388
  317CLA    CLA22445   4.257   1.667   1.788  0.1836  0.1387 -0.0411
  318CLA    CLA22446   4.257   3.994  12.014  0.2389  0.2139  0.0222
  319TIP3   OH222447   1.441   0.832  12.101 -0.3223 -1.1261  0.0473
  319TIP3    H122448   1.524   0.853  12.058  0.2762  0.6280  1.9977
  319TIP3    H222449   1.466   0.808  12.191 -1.8300 -1.7765  0.3065
  320TIP3   OH222450   2.392   3.193   3.157  0.6152 -0.1603  0.0778
  320TIP3    H122451   2.421   3.192   3.066  1.1780  0.2405  0.2520
  320TIP3    H222452   2.437   3.267   3.197 -1.4646  1.1367  0.0949
  321TIP3   OH222453   6.534   0.966  13.669  0.4334 -0.5276 -0.9632
  321TIP3    H122454   6.586   1.019  13.730 -1.4839  1.4974 -1.0405
  321TIP3    H222455   6.594   0.947  13.597  1.9431 -0.7167  0.3140
  322TIP3   OH222456   2.917   4.568   3.929 -0.0186 -0.3652 -0.6370
  322TIP3    H122457   2.895   4.535   4.016 -1.5374  1.6748 -0.2221
  322TIP3    H222458   2.857   4.524   3.870 -0.0484 -0.5569 -0.4632
  323TIP3   OH222459   0.116   0.970   0.792  0.0448  0.4079  0.2283
  323TIP3    H122460   0.136   1.002   0.704 -0.3104 -0.0481 -0.0184
  323TIP3    H222461   0.200   0.976   0.839  0.6337 -0.9541 -0.6339
  324TIP3   OH222462   0.282   6.597   3.879 -0.1959 -0.3241  0.1343
  324TIP3    H122463   0.269   6.531   3.947  2.1729 -1.8619 -0.8435
  324TIP3    H222464   0.371   6.581   3.847  0.1039  2.7789 -0.7459
  325TIP3   OH222465   3.086   0.782   6.727 -0.4159 -0.4659 -0.0428
  325TIP3    H122466   3.159   0.840   6.705  1.0499 -1.6606  1.6199
  325TIP3    H222467   3.105   0.700   6.682 -1.0447 -0.5948 -0.0834
  326TIP3   OH222468   5.016   0.480   3.140 -0.5828  0.4133 -0.1863
  326TIP3    H122469   5.032   0.459   3.232  0.6896  1.1722 -0.2079
  326TIP3    H222470   4.948   0.547   3.143 -0.4366  0.5512  0.2224
  327TIP3   OH222471   4.772   3.834  12.076  0.7006  0.1990 -0.3042
  327TIP3    H122472   4.807   3.754  12.114 -0.1951  0.5986  1.4229
  327TIP3    H222473   4.688   3.807  12.039  1.1248  0.0135 -1.1329
  328TIP3   OH222474   2.450   3.554  12.898  0.2569  0.1657 -0.0385
  328TIP3    H122475   2.497   3.493  12.842 -0.0789 -0.5538  0.4507
  328TIP3    H222476   2.396   3.498  12.954 -0.5212  0.9370 -0.0063
  329TIP3   OH222477   3.322   6.150   3.410 -0.1082 -0.1085 -0.5484
  329TIP3    H122478   3.265   6.220   3.442 -0.6442 -0.8912  0.2468
  329TIP3    H222479   3.301   6.142   3.317  1.3216  2.0620 -1.0855
  330TIP3   OH222480   4.210   0.282   2.165 -0.2397  0.0643  0.1639
  330TIP3    H122481   4.185   0.261   2.255  0.1299  1.2553  0.5494
  330TIP3    H222482   4.149   0.350   2.138  0.9580  1.1891  0.2411
  331TIP3   OH222483   3.248   4.458   1.137  0.2910  0.2626 -0.2928
  331TIP3    H122484   3.158   4.483   1.156 -0.0106 -0.8000 -0.3085
  331TIP3    H222485   3.250   4.363   1.149  0.4808 -0.2667 -3.8998
  332TIP3   OH222486   4.242   1.171   0.662 -0.3231 -0.1249  0.4455
  332TIP3    H122487   4.313   1.195   0.603  0.3605  0.8623  1.6501
  332TIP3    H222488   4.174   1.236   0.645 -0.0374  0.2962  0.8851
  333TIP3   OH222489   2.547   0.148   5.902 -0.0486 -0.0784 -0.5215
  333TIP3    H122490   2.497   0.229   5.913 -0.6267 -0.6809  1.4579
  333TIP3    H222491   2.504   0.103   5.829 -1.3438  0.2001  0.0563
  334TIP3   OH222492   2.633   4.492   4.670 -0.0815 -0.3149  0.0185
  334TIP3    H122493   2.667   4.502   4.759 -0.0714 -0.2505  0.0071
  334TIP3    H222494   2.623   4.397   4.659 -0.7375 -0.2836  0.3331
  335TIP3   OH222495   4.302   1.109  14.667  0.2296 -0.2997 -0.3002
  335TIP3    H122496   4.265   1.022  14.682  0.3211 -0.1750  0.6978
  335TIP3    H222497   4.335   1.136  14.753 -0.1685  0.8925 -0.5147
  336TIP3   OH222498   4.926   3.732  16.640  0.2534  0.2310  0.4329
  336TIP3    H122499   4.855   3.768  16.586  0.5059 -0.2007 -0.1935
  336TIP3    H222500   4.936   3.642  16.610  1.5710  0.5150 -0.0058
  337TIP3   OH222501   2.582   3.515   3.207 -0.6752  0.1479  0.2558
  337TIP3    H122502   2.534   3.503   3.125 -1.7507  0.5763  0.8000
  337TIP3    H222503   2.572   3.609   3.227 -1.0412 -0.0885  1.2309
  338TIP3   OH222504   2.511   0.438  14.653 -0.2030  0.4246 -0.6340
  338TIP3    H122505   2.429   0.484  14.671 -0.0975  0.3574  0.0075
  338TIP3    H222506   2.525   0.450  14.559 -0.4899  1.1912 -0.5792
  339TIP3   OH222507   3.254   4.208  11.429  0.5562  0.7114 -0.6639
  339TIP3    H122508   3.221   4.230  11.342 -2.1398  0.5232  0.2340
  339TIP3    H222509   3.194   4.140  11.460  1.3840  0.8835  1.3745
  340TIP3   OH222510   5.282   5.828  13.239  0.1217 -0.4873  0.1030
  340TIP3    H122511   5.338   5.890  13.193 -0.0464 -0.6020 -0.2593
  340TIP3    H222512   5.342   5.777  13.294  0.2460  0.0632  0.4759
  341TIP3   OH222513   2.229   2.841  13.292  0.2542  0.1339 -0.5338
  341TIP3    H122514   2.172   2.766  13.277  0.5381  0.1447 -1.7053
  341TIP3    H222515   2.303   2.827  13.234  0.5318  1.0823 -0.4147
  342TIP3   OH222516   0.400   3.553   1.257  0.3870 -0.2835  0.2986
  342TIP3    H122517   0.420   3.492   1.186 -1.3506 -1.2384  0.5937
  342TIP3    H222518   0.463   3.624   1.246  0.1613 -0.4241 -2.1788
  343TIP3   OH222519   4.079   4.081  16.214 -0.0455 -0.6322  0.1815
  343TIP3    H122520   3.992   4.112  16.239  0.3372 -0.8974  1.9547
  343TIP3    H222521   4.070   4.053  16.123 -0.9902  2.3650 -0.6864
  344TIP3   OH222522   0.060   4.174   3.305  0.0444 -0.0438  0.0554
  344TIP3    H122523   0.150   4.145   3.290 -0.8277 -2.4110 -0.9455
  344TIP3    H222524   0.021   4.177   3.217 -1.3052 -0.6642  0.6162
  345TIP3   OH222525   5.316   4.517   2.501  0.2231  0.0711 -0.0991
  345TIP3    H122526   5.380   4.473   2.559 -0.6625  0.5386  1.2586
  345TIP3    H222527   5.362   4.594   2.469  0.5572  0.0697  0.3660
  346TIP3   OH222528   3.582   0.157   3.970 -0.5349  0.1372  0.1469
  346TIP3    H122529   3.581   0.195   4.057  2.0366 -0.0033  0.2899
  346TIP3    H222530   3.599   0.063   3.985 -0.5617  0.0307 -0.4643
  347TIP3   OH222531   5.781   4.939  13.644 -0.2704 -0.5329  0.2868
  347TIP3    H122532   5.704   4.941  13.702 -0.1429  0.7446  0.4238
  347TIP3    H222533   5.851   4.979  13.696  0.1474 -0.4684 -0.3196
  348TIP3   OH222534   5.047   3.410  15.700  0.0205 -0.2802 -0.1987
  348TIP3    H122535   5.142   3.423  15.691  0.2475 -0.0164  2.2670
  348TIP3    H222536   5.010   3.447  15.619  1.9502  0.3620 -0.8175
  349TIP3   OH222537   4.408   4.260  14.120 -0.4730  0.2549 -0.0199
  349TIP3    H122538   4.374   4.286  14.034  0.9653 -1.4173 -1.1238
  349TIP3    H222539   4.383   4.168  14.129 -0.8776  0.5008  1.5043
  350TIP3   OH222540   2.496   4.941   1.437 -0.0711  0.2607 -0.2464
  350TIP3    H122541   2.555   5.014   1.454 -0.2842  0.7585 -1.5619
  350TIP3    H222542   2.476   4.947   1.343 -1.9334 -0.0891  0.0939
  351TIP3   OH222543   4.140   4.272  13.016  0.6056 -0.1823 -0.1005
  351TIP3    H122544   4.111   4.186  13.046 -0.9926  0.7814  1.1394
  351TIP3    H222545   4.175   4.256  12.928  4.4131 -2.8636  1.7781
  352TIP3   OH222546   6.754   3.826   3.043  0.3582 -0.5215 -0.4302
  352TIP3    H122547   6.847   3.814   3.064  0.2289 -0.7161  0.0599
  352TIP3    H222548   6.710   3.756   3.092 -0.1498  0.2530  0.2218
  353TIP3   OH222549   2.315   6.413  12.068  0.4681 -0.5005  0.2626
  353TIP3    H122550   2.294   6.475  11.999 -1.0751 -0.3979  0.7883
  353TIP3    H222551   2.342   6.468  12.142  0.7536 -0.5350  0.1817
  354TIP3   OH222552   6.059   1.721   3.417 -0.0776 -0.8186 -0.2927
  354TIP3    H122553   6.092   1.631   3.424  0.3159 -0.5704  1.3768
  354TIP3    H222554   6.114   1.761   3.349  0.3831 -1.5682 -0.3773
  355TIP3   OH222555   1.588   1.886  10.918  0.3456 -0.5361 -0.2719
  355TIP3    H122556   1.560   1.807  10.964  1.3389  0.1045  1.4660
  355TIP3    H222557   1.510   1.914  10.868 -0.7795 -1.1844  1.0975
  356TIP3   OH222558   1.431   5.326   4.040  0.2079 -0.4460 -0.0306
  356TIP3    H122559   1.420   5.410   4.085 -0.7936 -0.8927  0.5571
  356TIP3    H222560   1.494   5.345   3.970 -0.5234  0.9560 -0.3229
  357TIP3   OH222561   6.675   6.362  13.538 -0.1049  0.0652 -0.4015
  357TIP3    H122562   6.647   6.441  13.493 -0.1788  0.2725  0.0012
  357TIP3    H222563   6.705   6.303  13.469 -0.3289  0.3347 -0.7246
  358TIP3   OH222564   3.087   1.234   3.919  0.6784  0.2252 -0.5496
  358TIP3    H122565   2.999   1.203   3.901  0.6686 -0.3238  0.3565
  358TIP3    H222566   3.115   1.279   3.839 -0.7001  1.0639 -0.5686
  359TIP3   OH222567   5.861   4.954  17.129 -0.1174  0.3962  0.2081
  359TIP3    H122568   5.849   4.988  17.040 -3.6516 -0.2973  0.3273
  359TIP3    H222569   5.892   4.864  17.116 -0.2082  0.4346 -0.3077
  360TIP3   OH222570   4.425   3.304  15.226 -0.3216 -0.2722  0.7950
  360TIP3    H122571   4.412   3.255  15.307 -1.1784 -1.5766 -0.0994
  360TIP3    H222572   4.404   3.241  15.157  3.3645 -0.1392 -0.5697
  361TIP3   OH222573   3.590   0.837  11.849  0.0858 -0.1618 -0.1417
  361TIP3    H122574   3.560   0.917  11.893  0.4934  0.1427 -0.4214
  361TIP3    H222575   3.629   0.785  11.919  1.2448  0.5687 -0.2308
  362TIP3   OH222576   5.867   5.390  15.748 -0.1468  0.9541  0.3956
  362TIP3    H122577   5.900   5.305  15.718  1.8090  1.7068  0.3134
  362TIP3    H222578   5.938   5.425  15.801 -0.5384  2.9913 -0.4057
  363TIP3   OH222579   1.711   0.925  16.139  0.4259  0.9460  0.1052
  363TIP3    H122580   1.654   0.892  16.209  0.3843  1.0662  0.1265
  363TIP3    H222581   1.800   0.904  16.169  0.3496 -0.1045 -0.3862
  364TIP3   OH222582   6.372   5.337  15.840 -0.2460  0.2786 -0.0390
  364TIP3    H122583   6.432   5.399  15.881 -1.0670  0.1532  1.3808
  364TIP3    H222584   6.417   5.253  15.844 -0.0965  0.3665  0.0974
  365TIP3   OH222585   0.224   1.358  16.117  0.2121  0.0602 -0.1749
  365TIP3    H122586   0.309   1.337  16.157  0.3196  0.0068 -0.4344
  365TIP3    H222587   0.175   1.400  16.188  0.2379 -0.4436  0.1410
  366TIP3   OH222588   3.160   0.951   2.909 -0.2916  0.4630 -0.0079
  366TIP3    H122589   3.130   0.926   2.822 -0.2085 -0.8404  0.3366
  366TIP3    H222590   3.102   1.024   2.934 -2.5393 -1.3544  0.2379
  367TIP3   OH222591   2.127   6.136   2.930 -0.4944 -0.2631  0.0177
  367TIP3    H122592   2.049   6.163   2.882  0.5234  0.6773 -1.1421
  367TIP3    H222593   2.162   6.063   2.880 -0.0106  0.0360 -0.0756
  368TIP3   OH222594   0.706   3.474  14.375  0.2692  0.4074  0.1748
  368TIP3    H122595   0.617   3.446  14.396  1.5521 -2.5261  1.9900
  368TIP3    H222596   0.737   3.517  14.455  0.5447  1.3292 -0.4170
  369TIP3   OH222597   2.105   6.126  16.373  0.2403 -0.2813 -0.3241
  369TIP3    H122598   2.017   6.129  16.410  0.1812 -1.3446 -0.3654
  369TIP3    H222599   2.164   6.121  16.448  0.6047  5.2328 -0.0209
  370TIP3   OH222600   5.509   0.814   2.782 -0.1537 -0.1073 -0.4565
  370TIP3    H122601   5.488   0.729   2.746 -1.7500 -0.7498  1.8798
  370TIP3    H222602   5.567   0.795   2.856  0.9390  0.9665 -1.0206
  371TIP3   OH222603   6.018   0.074   2.550 -0.5076  0.7396 -0.2196
  371TIP3    H122604   6.112   0.086   2.535 -0.3382 -1.3076 -1.0011
  371TIP3    H222605   6.014   0.012   2.624 -1.2423  1.0438 -0.0042
  372TIP3   OH222606   2.020   6.623   3.276 -0.4433  0.0143 -0.2969
  372TIP3    H122607   1.977   6.597   3.194 -0.1269  2.4560 -1.2844
  372TIP3    H222608   2.085   6.687   3.248  2.5519 -2.1605  1.3936
  373TIP3   OH222609   5.093   3.818  15.227  0.6101  0.1144  0.5574
  373TIP3    H122610   5.071   3.902  15.188 -1.0219 -0.5726 -0.0252
  373TIP3    H222611   5.023   3.759  15.200  2.3642 -1.7597 -0.0845
  374TIP3   OH222612   4.720   4.757   1.091 -0.2600 -0.5510  0.0194
  374TIP3    H122613   4.742   4.714   1.174  0.9834 -0.7335 -0.3942
  374TIP3    H222614   4.738   4.850   1.106 -1.3081 -0.3969  0.3679
  375TIP3   OH222615   0.450   4.013  17.176  0.4009 -0.0556  0.6541
  375TIP3    H122616   0.385   3.963  17.225  0.6462 -0.7617  0.2554
  375TIP3    H222617   0.398   4.070  17.119  0.1304 -0.3301  0.6274
  376TIP3   OH222618   5.047   0.658   2.621 -0.6094 -0.0351 -0.0437
  376TIP3    H122619   5.040   0.749   2.593 -0.5632  0.0841  0.3440
  376TIP3    H222620   4.973   0.615   2.577 -1.7450  0.5520  1.2515
  377TIP3   OH222621   2.696   1.944   6.007 -0.1933 -0.0656 -0.6257
  377TIP3    H122622   2.763   1.877   5.991  0.9157  0.8873  0.0082
  377TIP3    H222623   2.689   1.948   6.102  0.1494  1.1030 -0.6424
  378TIP3   OH222624   6.099   5.448   4.305 -0.2383  0.4144  0.2741
  378TIP3    H122625   6.054   5.473   4.225  0.6031 -0.8960 -0.6358
  378TIP3    H222626   6.078   5.517   4.368 -3.3570 -0.0733 -0.1506
  379TIP3   OH222627   3.587   4.739   1.928 -0.1265  0.0960 -0.5041
  379TIP3    H122628   3.661   4.694   1.969 -0.7268 -0.2428  0.2227
  379TIP3    H222629   3.510   4.700   1.969 -0.7297  0.0908 -1.6184
  380TIP3   OH222630   4.405   2.370  12.611  0.0338  0.5710  0.7963
  380TIP3    H122631   4.318   2.399  12.640 -0.0359  0.6310  0.5292
  380TIP3    H222632   4.459   2.449  12.614  0.0541  0.5537  0.8724
  381TIP3   OH222633   1.866   4.067  12.386  0.5797 -0.2536 -0.4055
  381TIP3    H122634   1.855   3.972  12.388  1.7322 -0.3970 -0.6902
  381TIP3    H222635   1.836   4.096  12.472 -1.0669 -0.7191 -0.7936
  382TIP3   OH222636   3.171   1.987   2.341  0.1871  0.5125  0.4745
  382TIP3    H122637   3.119   1.942   2.274  1.9534 -1.5582  0.4383
  382TIP3    H222638   3.155   1.937   2.421  2.6609 -0.6301  0.3040
  383TIP3   OH222639   5.924   0.554   0.379  0.1706 -0.1073  0.3872
  383TIP3    H122640   5.881   0.522   0.300  0.9303  0.1429 -0.1331
  383TIP3    H222641   5.853   0.564   0.443 -0.4633 -0.2053 -0.2992
  384TIP3   OH222642   1.837   1.487  16.327 -0.5567 -0.1642 -0.0490
  384TIP3    H122643   1.903   1.429  16.288  0.0456  1.0773 -0.9495
  384TIP3    H222644   1.781   1.511  16.253 -0.7726  0.4144  0.3032
  385TIP3   OH222645   2.947   3.038   2.330  0.4217  0.1210 -0.2063
  385TIP3    H122646   2.991   2.998   2.255 -0.1145 -1.5136  0.3290
  385TIP3    H222647   2.943   2.968   2.395 -1.3985  0.7726  0.3973
  386TIP3   OH222648   2.275   1.962   4.181  0.3602 -0.0822  0.6033
  386TIP3    H122649   2.324   1.974   4.099  0.1908  0.3718  0.5677
  386TIP3    H222650   2.201   1.907   4.156 -1.1013  2.1327 -0.1032
  387TIP3   OH222651   4.766   4.466  16.771  0.2129  0.3280  0.6776
  387TIP3    H122652   4.766   4.558  16.798 -0.9756  0.6263 -0.3049
  387TIP3    H222653   4.798   4.468  16.680 -0.3797 -0.1671  0.4592
  388TIP3   OH222654   2.357   2.862   2.907  0.3528  0.1230 -0.0341
  388TIP3    H122655   2.287   2.857   2.841  1.3663 -1.1923 -1.0442
  388TIP3    H222656   2.353   2.777   2.952  0.7797  0.3585  0.4558
  389TIP3   OH222657   3.766   4.943  15.559 -0.2874  0.1027 -0.4817
  389TIP3    H122658   3.733   4.989  15.636 -0.9008 -1.0656 -0.0404
  389TIP3    H222659   3.796   4.858  15.592 -0.5127 -0.3973 -1.5240
  390TIP3   OH222660   5.795   4.536  11.592 -0.0301  0.3416 -0.5339
  390TIP3    H122661   5.741   4.613  11.609  0.2344  0.6507 -1.0862
  390TIP3    H222662   5.733   4.463  11.587 -0.2994  0.5538 -0.2137
  391TIP3   OH222663   4.466   3.575   2.313  0.5345  0.0133 -0.4297
  391TIP3    H122664   4.385   3.541   2.274 -0.0985  0.4129  0.4978
  391TIP3    H222665   4.522   3.597   2.239 -0.5777  0.6158 -1.0999
  392TIP3   OH222666   0.275   1.847   0.053 -0.3605 -0.4748  0.1773
  392TIP3    H122667   0.304   1.910  -0.014  1.3211 -1.8896 -0.4773
  392TIP3    H222668   0.271   1.898   0.134  0.7145  0.5498 -0.3948
  393TIP3   OH222669   2.632   5.381   3.242  0.5101 -0.1663 -0.1764
  393TIP3    H122670   2.550   5.346   3.277  0.8303 -0.7020  0.0473
  393TIP3    H222671   2.698   5.360   3.308  0.9680 -0.4548 -0.7121
  394TIP3   OH222672   5.872   4.040   3.457  0.1298  0.5539 -0.1680
  394TIP3    H122673   5.910   4.001   3.379 -0.6204  0.7012 -0.6177
  394TIP3    H222674   5.900   4.132   3.455  0.8935  0.3248  0.2406
  395TIP3   OH222675   2.040   2.871   4.192 -0.6518 -0.6831  0.0599
  395TIP3    H122676   1.986   2.808   4.240 -2.1506  0.0623 -0.5952
  395TIP3    H222677   2.044   2.837   4.103  0.8629 -1.2836  0.3498
  396TIP3   OH222678   0.736   2.731  14.756  0.0363 -0.0917  0.2575
  396TIP3    H122679   0.716   2.644  14.722 -0.4427  0.0050  0.2957
  396TIP3    H222680   0.825   2.749  14.725  0.1538 -0.6160  0.2949
  397TIP3   OH222681   6.776   2.935  13.392 -0.2928  0.6250 -0.3862
  397TIP3    H122682   6.846   2.995  13.420 -0.1592  1.5820 -2.6807
  397TIP3    H222683   6.822   2.861  13.352 -0.5579  0.4846 -0.4317
  398TIP3   OH222684   0.012   4.727  13.741  0.2348  0.0410  0.2196
  398TIP3    H122685   0.008   4.676  13.660  1.8931  2.0644 -1.1853
  398TIP3    H222686   0.101   4.762  13.742 -0.1666  1.0647  2.3072
  399TIP3   OH222687   0.488   4.552  12.781 -0.0658  0.2203 -0.1471
  399TIP3    H122688   0.415   4.609  12.756  0.5582  2.0535  2.0131
  399TIP3    H222689   0.561   4.612  12.796  1.6572 -1.5044 -1.3555
  400TIP3   OH222690   2.771   1.213  16.097  0.0036 -0.1028 -0.1045
  400TIP3    H122691   2.849   1.255  16.062 -0.2329  1.9478  1.7383
  400TIP3    H222692   2.700   1.275  16.079 -0.7203 -0.6764  0.7312
  401TIP3   OH222693   0.712   6.205   1.101  0.0360  0.0328  0.2715
  401TIP3    H122694   0.736   6.229   1.011  1.6059 -0.7304  0.4697
  401TIP3    H222695   0.664   6.281   1.134  1.9962  1.5373 -0.2350
  402TIP3   OH222696   4.677   1.779  14.343 -0.5601 -0.0402 -0.6863
  402TIP3    H122697   4.723   1.724  14.281  3.5612 -0.3292  2.4486
  402TIP3    H222698   4.686   1.868  14.308  3.1152 -0.0061  0.2448
  403TIP3   OH222699   5.621   4.161  11.064 -0.0243  0.1544 -0.4969
  403TIP3    H122700   5.676   4.231  11.100 -0.8014  0.3315  0.3497
  403TIP3    H222701   5.621   4.093  11.131 -0.6640  0.0678 -0.5812
  404TIP3   OH222702   5.474   5.650  12.371 -0.5553  0.0945 -0.0691
  404TIP3    H122703   5.380   5.655  12.355 -1.0589 -3.3557  1.2266
  404TIP3    H222704   5.506   5.592  12.302  0.2799 -0.2934  0.6374
  405TIP3   OH222705   1.900   1.233   3.569  0.8558 -0.1934 -0.3514
  405TIP3    H122706   1.852   1.267   3.645 -0.2956 -2.3527 -0.0858
  405TIP3    H222707   1.983   1.203   3.605  1.6014  1.6710 -0.4768
  406TIP3   OH222708   3.325   4.601   2.162 -0.8030  0.3004  0.2835
  406TIP3    H122709   3.288   4.610   2.250  0.5221  0.1025  0.8788
  406TIP3    H222710   3.282   4.669   2.111 -0.0438  1.8321  1.6210
  407TIP3   OH222711   4.893   0.167  16.886 -0.1203 -0.1529  0.6531
  407TIP3    H122712   4.902   0.098  16.952  1.1844 -0.7755 -0.1684
  407TIP3    H222713   4.926   0.246  16.929 -0.4307 -0.2977  1.1607
  408TIP3   OH222714   1.189   4.107  17.099  0.4472 -0.6850 -0.3184
  408TIP3    H122715   1.098   4.080  17.089  0.2239  0.3433 -1.2140
  408TIP3    H222716   1.240   4.028  17.080 -0.2633 -1.4017  0.7275
  409TIP3   OH222717   3.315   1.397  15.800  0.6817  0.3342  0.1013
  409TIP3    H122718   3.389   1.341  15.777  0.3203  0.0203 -0.3390
  409TIP3    H222719   3.240   1.354  15.757  0.0888  0.0934  1.3613
  410TIP3   OH222720   3.972   5.292  12.935  0.1543 -0.4137 -0.2188
  410TIP3    H122721   4.054   5.245  12.947 -0.6372 -1.6319  0.5655
  410TIP3    H222722   3.946   5.317  13.024  0.5339  1.4594 -0.6273
  411TIP3   OH222723   4.475   2.688  14.160  0.4568  0.3572 -0.2874
  411TIP3    H122724   4.508   2.777  14.150 -0.5241  0.7887  0.2776
  411TIP3    H222725   4.516   2.639  14.088  1.7190  1.0440 -0.0512
  412TIP3   OH222726   4.888   6.267  12.494 -0.2218 -0.5152  0.4021
  412TIP3    H122727   4.817   6.238  12.435  0.0543  0.8087 -0.6135
  412TIP3    H222728   4.843   6.291  12.575 -1.1703  1.7615 -0.7391
  413TIP3   OH222729   3.053   4.450  16.228  0.1456 -0.3685 -0.4660
  413TIP3    H122730   2.958   4.463  16.228  0.1428 -0.3576 -1.0434
  413TIP3    H222731   3.086   4.523  16.176  0.4343 -0.6295 -0.6485
  414TIP3   OH222732   5.531   0.683   1.775  0.0157 -0.2469 -0.0754
  414TIP3    H122733   5.599   0.702   1.710 -1.4379  1.1765 -1.2175
  414TIP3    H222734   5.450   0.715   1.735 -1.2397 -1.3657  1.5255
  415TIP3   OH222735   0.624   0.070   6.436 -0.4521  0.0592 -0.3803
  415TIP3    H122736   0.559   0.003   6.417 -0.1274 -0.2254 -0.4987
  415TIP3    H222737   0.625   0.077   6.532 -1.1149  0.5247 -0.4019
  416TIP3   OH222738   3.992   1.355  15.448 -0.7436  0.6602 -0.7562
  416TIP3    H122739   3.911   1.390  15.411  0.9516  5.8888  0.0781
  416TIP3    H222740   4.062   1.396  15.398  1.4606 -0.7597  1.0262
  417TIP3   OH222741   5.047   5.173  12.289  0.1872  0.9061 -0.1203
  417TIP3    H122742   5.022   5.219  12.209 -1.7558  1.8214  0.9934
  417TIP3    H222743   4.999   5.090  12.285 -1.3365  1.7210  0.9526
  418TIP3   OH222744   3.042   4.625   4.556  0.7445 -0.1005 -0.0189
  418TIP3    H122745   3.093   4.596   4.632 -1.8718 -3.0915  0.6973
  418TIP3    H222746   2.966   4.670   4.593  1.0296  1.2296 -0.9952
  419TIP3   OH222747   2.372   3.329   2.649 -0.5409 -0.0544 -0.0246
  419TIP3    H122748   2.395   3.420   2.669 -0.9254 -0.2520  1.3219
  419TIP3    H222749   2.414   3.278   2.718  2.7486 -1.2650 -2.7572
  420TIP3   OH222750   6.389   1.495  13.058 -0.4213 -0.7030  0.6951
  420TIP3    H122751   6.319   1.515  13.121 -1.5864  0.7705 -1.0112
  420TIP3    H222752   6.457   1.454  13.111 -0.8174  1.6792  3.1954
  421TIP3   OH222753   0.302   4.720  14.157 -0.6871  0.1140 -0.0616
  421TIP3    H122754   0.370   4.695  14.093 -0.6973 -0.5953  0.1972
  421TIP3    H222755   0.346   4.711  14.242 -0.9433  0.1883  0.0774
  422TIP3   OH222756   1.969   5.495   6.330  0.3098 -0.4965 -0.4344
  422TIP3    H122757   2.038   5.458   6.274  2.2355  1.0224  0.8828
  422TIP3    H222758   1.890   5.445   6.306  2.1290 -3.2402 -0.9583
  423TIP3   OH222759   1.394   6.261   0.751 -0.0210  0.0238  0.1544
  423TIP3    H122760   1.369   6.335   0.807  0.5721  0.2125  0.1717
  423TIP3    H222761   1.402   6.298   0.664  0.8873  0.1124  0.2692
  424TIP3   OH222762   1.250   5.380  16.779 -0.0822 -0.4038  0.2239
  424TIP3    H122763   1.164   5.395  16.819 -0.8673 -2.3591 -0.6512
  424TIP3    H222764   1.312   5.390  16.852 -0.9984  1.3613  0.7878
  425TIP3   OH222765   3.629   5.842   4.414  0.6068  0.2897  0.5662
  425TIP3    H122766   3.678   5.906   4.465  0.5498  0.7629  0.0237
  425TIP3    H222767   3.677   5.834   4.332 -0.4917  1.1485 -0.1842
  426TIP3   OH222768   4.735   3.991  11.563  0.2840 -0.0154  0.3896
  426TIP3    H122769   4.825   4.013  11.537  1.6288 -0.6318  4.2154
  426TIP3    H222770   4.737   3.897  11.578 -0.8234  0.0928  1.2709
  427TIP3   OH222771   2.267   4.711  15.624  0.0803  0.1737  0.4180
  427TIP3    H122772   2.358   4.682  15.612 -0.4509 -1.1345 -0.5185
  427TIP3    H222773   2.247   4.688  15.715  1.1461  1.8037  1.0938
  428TIP3   OH222774   3.852   0.322  15.613  0.2592  0.2368  0.2157
  428TIP3    H122775   3.851   0.293  15.521 -0.4016  0.0927  0.2660
  428TIP3    H222776   3.808   0.252  15.661  1.0891  0.0520  0.7307
  429TIP3   OH222777   0.423   0.402   3.504  0.3891  0.3926 -0.5488
  429TIP3    H122778   0.466   0.325   3.540  0.3962 -0.1250 -1.6631
  429TIP3    H222779   0.488   0.472   3.512  1.4011 -0.3476 -2.0726
  430TIP3   OH222780   4.659   5.148  16.492  0.2866  0.0160  0.3090
  430TIP3    H122781   4.595   5.158  16.421  0.5649 -0.4817 -0.0127
  430TIP3    H222782   4.712   5.228  16.487 -0.6428  0.6733  0.9145
  431TIP3   OH222783   3.077   0.554  16.601  0.5723  0.2972 -1.1821
  431TIP3    H122784   3.152   0.495  16.612 -0.8862 -1.1597  1.4492
  431TIP3    H222785   3.113   0.641  16.617  1.9064 -0.2768 -0.9887
  432TIP3   OH222786   0.810   5.360   1.954 -0.2947  0.0773 -0.3354
  432TIP3    H122787   0.798   5.449   1.920 -0.5610  1.1399  2.4067
  432TIP3    H222788   0.722   5.327   1.966 -0.1931 -0.6231 -1.4805
  433TIP3   OH222789   6.399   3.349   5.628  0.1043 -0.1713  0.3030
  433TIP3    H122790   6.349   3.425   5.656 -0.9737 -0.7683  0.0134
  433TIP3    H222791   6.342   3.274   5.647  0.9270 -0.8656  0.0791
  434TIP3   OH222792   4.098   1.758  17.151  0.4527 -0.2859 -0.6652
  434TIP3    H122793   4.093   1.815  17.074 -0.8935  0.6715  0.1092
  434TIP3    H222794   4.039   1.685  17.130  0.9987 -0.6320 -1.0204
  435TIP3   OH222795   1.517   6.594   6.023 -0.3607  0.0331 -0.4212
  435TIP3    H122796   1.611   6.601   6.006 -0.4089  2.3977  0.1457
  435TIP3    H222797   1.476   6.639   5.949 -0.9331  1.4487  0.7319
  436TIP3   OH222798   1.552   0.895  13.073 -0.0723 -0.3420 -0.1961
  436TIP3    H122799   1.460   0.909  13.053 -0.1396 -0.9437 -0.3406
  436TIP3    H222800   1.599   0.940  13.003 -0.2644 -0.3357 -0.3214
  437TIP3   OH222801   4.260   6.045   3.282 -0.2534 -0.0098 -0.7608
  437TIP3    H122802   4.290   6.049   3.192  0.3000 -0.6568 -0.6103
  437TIP3    H222803   4.188   6.108   3.287  0.6475  1.0634 -1.2895
  438TIP3   OH222804   4.061   5.629   3.186 -0.4625  0.7892 -0.2409
  438TIP3    H122805   4.139   5.574   3.188 -1.6525 -0.8822  0.7530
  438TIP3    H222806   4.052   5.662   3.276 -0.1516  2.0439 -0.6657
  439TIP3   OH222807   3.423   0.027  13.405  0.0259  0.5960 -0.2133
  439TIP3    H122808   3.453  -0.045  13.349  1.4142  1.1647 -0.2255
  439TIP3    H222809   3.408   0.100  13.345 -0.3660  0.6382 -0.0710
  440TIP3   OH222810   2.161   0.732  14.139 -0.3305  0.1852  0.0694
  440TIP3    H122811   2.093   0.665  14.126  0.4044 -0.4406 -0.5519
  440TIP3    H222812   2.228   0.689  14.192 -0.2160  0.6743  0.3232
  441TIP3   OH222813   1.074   6.464   0.123 -0.4406  0.0580  0.2949
  441TIP3    H122814   1.147   6.444   0.181 -0.2255 -0.7074 -0.2440
  441TIP3    H222815   1.011   6.510   0.180  1.0692  2.0667  0.4222
  442TIP3   OH222816   0.382   4.932   5.898 -0.1936  0.8317 -0.1966
  442TIP3    H122817   0.310   4.878   5.866  0.3009 -0.1984  0.3772
  442TIP3    H222818   0.442   4.939   5.824  1.0971 -1.8088  0.5262
  443TIP3   OH222819   4.742   4.443   5.564  0.3497  0.1979  0.4308
  443TIP3    H122820   4.649   4.464   5.575 -0.4678 -1.8252 -2.1690
  443TIP3    H222821   4.769   4.410   5.650 -1.5089  0.1615  1.0302
  444TIP3   OH222822   2.053   1.168  12.164 -0.1064  0.5527  0.3830
  444TIP3    H122823   2.136   1.153  12.120 -1.8713 -2.0416 -2.2641
  444TIP3    H222824   2.009   1.235  12.111 -1.6160 -1.5027 -1.0385
  445TIP3   OH222825   1.388   1.045  14.293  0.1074  0.0535  0.0341
  445TIP3    H122826   1.460   1.005  14.244  1.0882 -0.0002  1.4877
  445TIP3    H222827   1.420   1.132  14.314  0.0777 -0.2563  1.3814
  446TIP3   OH222828   5.770   0.108  15.642  0.1924 -0.1690 -0.1416
  446TIP3    H122829   5.758   0.019  15.611  1.3486  0.3204 -2.1379
  446TIP3    H222830   5.682   0.145  15.646 -0.1936 -1.0566 -0.3985
  447TIP3   OH222831   6.606   0.026  15.879 -0.6616  0.7637  0.2590
  447TIP3    H122832   6.624  -0.030  15.803 -1.0620 -0.2514  0.8888
  447TIP3    H222833   6.691   0.034  15.923 -1.0195 -1.2757  1.4146
  448TIP3   OH222834   1.002   3.300   4.833 -0.3377 -0.3058  0.0204
  448TIP3    H122835   0.981   3.390   4.806  0.3649 -0.2068 -0.2199
  448TIP3    H222836   0.951   3.286   4.912 -1.9872 -0.3875 -1.0362
  449TIP3   OH222837   5.752   3.154  13.089  0.1481 -0.2167 -0.1783
  449TIP3    H122838   5.717   3.146  13.178  1.5779 -0.5615  0.3701
  449TIP3    H222839   5.792   3.242  13.088  1.6661 -0.8813  0.1022
  450TIP3   OH222840   6.689   0.536  16.662  0.5699  0.7409 -0.2765
  450TIP3    H122841   6.717   0.627  16.653  0.7226  0.6377 -0.8336
  450TIP3    H222842   6.711   0.513  16.753 -1.0425  1.7932  0.4033
  451TIP3   OH222843   2.827   6.466  13.329  0.2057 -0.4195  0.3215
  451TIP3    H122844   2.772   6.527  13.280  0.0490 -0.5533  0.3303
  451TIP3    H222845   2.824   6.385  13.278  0.8951 -0.2423 -0.0086
  452TIP3   OH222846   3.357   4.199   2.540 -0.4611  0.3389 -0.2788
  452TIP3    H122847   3.309   4.183   2.621 -0.1882  1.1339  0.0366
  452TIP3    H222848   3.316   4.276   2.501 -0.7388 -0.1719 -1.0127
  453TIP3   OH222849   3.288   3.673  14.643 -0.4023 -0.2986  0.4467
  453TIP3    H122850   3.223   3.731  14.684 -0.4710 -0.4311  0.5232
  453TIP3    H222851   3.359   3.732  14.617  0.8540 -0.5394  3.1199
  454TIP3   OH222852   1.745   3.307   1.339  0.3133  0.2832  0.1779
  454TIP3    H122853   1.656   3.274   1.352  0.7808 -0.8487  0.5348
  454TIP3    H222854   1.755   3.313   1.244  0.8157 -2.2970  0.0372
  455TIP3   OH222855   5.706   3.419   1.613 -0.1407  0.8486 -0.0059
  455TIP3    H122856   5.726   3.412   1.707 -0.4422  2.0219  0.1517
  455TIP3    H222857   5.742   3.504   1.588  1.2020 -0.0674 -1.2802
  456TIP3   OH222858   3.142   3.497  10.905 -0.3820  0.8038 -0.4111
  456TIP3    H122859   3.199   3.474  10.831  0.4969 -1.1742  0.8327
  456TIP3    H222860   3.055   3.470  10.878 -0.0287 -0.1099 -0.6669
  457TIP3   OH222861   4.635   0.191  12.790 -0.0647 -0.1106 -0.0476
  457TIP3    H122862   4.621   0.121  12.853  0.7986 -1.1494 -0.9883
  457TIP3    H222863   4.724   0.222  12.807 -0.1980  0.3018 -0.0811
  458TIP3   OH222864   5.388   0.364   1.542 -0.2879  0.1951  0.1347
  458TIP3    H122865   5.364   0.272   1.539  0.9474 -0.1971  1.3279
  458TIP3    H222866   5.455   0.368   1.610 -1.7425  2.3022  1.4955
  459TIP3   OH222867   3.937   5.345   2.264  0.0245 -0.3456 -0.2874
  459TIP3    H122868   3.902   5.301   2.342 -1.3056 -0.1055 -0.7354
  459TIP3    H222869   3.999   5.282   2.228 -0.1487 -0.9088  0.3702
  460TIP3   OH222870   1.484   1.592  16.794  0.4771 -0.8270  0.1257
  460TIP3    H122871   1.442   1.508  16.774 -1.5782  0.4793 -1.2805
  460TIP3    H222872   1.568   1.589  16.748  0.4410 -2.1334  0.1436
  461TIP3   OH222873   1.774   2.585   0.668  0.1150 -0.1668  0.4039
  461TIP3    H122874   1.817   2.504   0.639 -0.8672 -0.8196  0.7489
  461TIP3    H222875   1.798   2.593   0.760 -1.4261 -1.1476  0.9028
  462TIP3   OH222876   3.850   3.665   2.479  0.3509  0.4246  0.0930
  462TIP3    H122877   3.827   3.573   2.470  2.0209 -0.1875  1.6746
  462TIP3    H222878   3.824   3.705   2.396 -1.1886 -1.2869 -0.2712
  463TIP3   OH222879   6.160   2.567  13.968 -0.0642 -0.2151  0.0185
  463TIP3    H122880   6.186   2.544  13.879  2.1045  2.9805 -0.2565
  463TIP3    H222881   6.084   2.625  13.956 -0.2585 -0.4131  0.2885
  464TIP3   OH222882   1.854   0.733  16.479  0.0121  0.0518 -0.4657
  464TIP3    H122883   1.801   0.656  16.500  0.0132  0.0482 -0.4771
  464TIP3    H222884   1.808   0.806  16.521  0.0605  0.0330 -0.3814
  465TIP3   OH222885   2.908   5.466  14.276  0.1369 -0.3160  0.2064
  465TIP3    H122886   2.924   5.399  14.343  1.0051  0.4519  0.7884
  465TIP3    H222887   2.851   5.529  14.320 -2.3962 -1.7101 -1.0152
  466TIP3   OH222888   3.389   1.083   4.280 -0.5475  0.0615 -0.8711
  466TIP3    H122889   3.371   1.052   4.192 -1.4305 -1.4490 -0.1868
  466TIP3    H222890   3.478   1.119   4.276 -1.2759  1.6980 -2.7794
  467TIP3   OH222891   5.147   4.169  15.665  0.4846  0.3733 -0.6881
  467TIP3    H122892   5.079   4.106  15.641  0.8544 -0.1399 -0.4071
  467TIP3    H222893   5.121   4.199  15.752  0.6614  0.1052 -0.5399
  468TIP3   OH222894   4.279   5.280  15.768  0.4004  0.0203  0.0381
  468TIP3    H122895   4.204   5.305  15.822  1.8353  1.9982  1.2100
  468TIP3    H222896   4.305   5.194  15.801 -0.9251 -0.3720  0.0826
  469TIP3   OH222897   2.146   1.437  14.803 -0.0659  0.2885 -0.4192
  469TIP3    H122898   2.092   1.364  14.773  0.3433  0.2668 -1.1209
  469TIP3    H222899   2.185   1.405  14.884  0.4021 -0.4189 -0.9101
  470TIP3   OH222900   2.370   3.329  16.864  0.4836 -0.0710 -0.1104
  470TIP3    H122901   2.343   3.369  16.948  0.4067 -0.2176 -0.0660
  470TIP3    H222902   2.355   3.399  16.800 -0.7924 -0.4171 -0.2134
  471TIP3   OH222903   3.606   1.894   1.935 -0.0964  0.0955 -0.2780
  471TIP3    H122904   3.563   1.809   1.925 -0.2997  0.0857  0.5963
  471TIP3    H222905   3.698   1.872   1.951 -0.4554 -0.0460  1.7346
  472TIP3   OH222906   2.207   2.086  14.497  0.5212  0.3863 -1.0454
  472TIP3    H122907   2.253   2.167  14.477 -1.5418  1.8376 -0.0989
  472TIP3    H222908   2.144   2.110  14.565  0.6289 -2.2571  0.0616
  473TIP3   OH222909   6.379   2.333  13.452 -0.0301  0.1401 -0.3415
  473TIP3    H122910   6.336   2.337  13.367  0.1594 -0.8485 -0.4896
  473TIP3    H222911   6.391   2.425  13.477  3.2591  0.5637 -3.0767
  474TIP3   OH222912   0.573   6.120  15.813  0.1789  0.5887 -0.3239
  474TIP3    H122913   0.509   6.059  15.778 -1.6527  1.6298  1.1286
  474TIP3    H222914   0.523   6.200  15.830  2.2294  2.0331 -0.8387
  475TIP3   OH222915   1.805   2.495   1.775  0.4044 -0.1059  0.3086
  475TIP3    H122916   1.884   2.514   1.825 -0.3703  2.8049  0.5384
  475TIP3    H222917   1.751   2.443   1.835  0.7353  0.7834  1.3954
  476TIP3   OH222918   3.970   5.824  12.017  0.2337  0.0697 -0.1621
  476TIP3    H122919   3.932   5.750  12.065 -0.5000  0.1955 -0.5405
  476TIP3    H222920   3.964   5.798  11.925  1.0757  0.0910 -0.2290
  477TIP3   OH222921   3.151   2.216   3.696 -0.4704  0.0401 -0.1420
  477TIP3    H122922   3.221   2.156   3.672 -2.3562 -1.8759 -1.0172
  477TIP3    H222923   3.177   2.251   3.781  1.7892 -0.2185 -0.7001
  478TIP3   OH222924   4.457   1.621  14.282  0.5434 -0.0585  0.3476
  478TIP3    H122925   4.392   1.686  14.257  1.9822  1.3798  0.2521
  478TIP3    H222926   4.535   1.672  14.303  0.9319 -1.5658  2.8335
  479TIP3   OH222927   1.002   1.006  13.088  0.3042 -0.1614  0.1297
  479TIP3    H122928   0.990   1.048  13.003  1.7365  0.5429  0.2604
  479TIP3    H222929   1.094   0.980  13.089  0.2416 -0.3668  1.3801
  480TIP3   OH222930   0.095   0.289   2.251  0.5664  0.2962 -0.1868
  480TIP3    H122931   0.125   0.198   2.258 -0.5778 -0.1862 -1.3235
  480TIP3    H222932   0.133   0.320   2.168 -0.2799  0.3842 -0.5387
  481TIP3   OH222933   0.959   4.160   1.430 -0.3044  0.7238  0.2235
  481TIP3    H122934   0.899   4.123   1.495 -2.2260  0.5659 -1.5510
  481TIP3    H222935   0.936   4.115   1.349  2.4877  0.4341 -0.4597
  482TIP3   OH222936   3.311   1.476   4.925 -0.4793 -0.5474  0.3964
  482TIP3    H122937   3.335   1.502   4.837 -2.0647 -2.2710 -0.5815
  482TIP3    H222938   3.300   1.558   4.973 -1.2129  0.4619 -1.4622
  483TIP3   OH222939   4.355   1.321  17.279  0.4660 -0.0910  0.1712
  483TIP3    H122940   4.340   1.406  17.319 -0.2970 -0.3729  0.4914
  483TIP3    H222941   4.419   1.337  17.210  1.5898  0.4517  1.3222
  484TIP3   OH222942   6.416   6.331  12.398 -0.1070 -0.0297  0.7329
  484TIP3    H122943   6.335   6.380  12.414  0.2132  0.0781  2.0913
  484TIP3    H222944   6.387   6.242  12.376 -0.5949 -0.1415  1.7855
  485TIP3   OH222945   6.283   2.774   4.412 -0.4620 -0.2048  0.0777
  485TIP3    H122946   6.349   2.731   4.467  0.4793  0.7098 -0.3079
  485TIP3    H222947   6.228   2.822   4.474  0.5820  0.8082  0.2501
  486TIP3   OH222948   2.582   4.594   5.263  0.4083  0.4571  0.0421
  486TIP3    H122949   2.545   4.598   5.352  0.1146 -0.1909 -0.0449
  486TIP3    H222950   2.535   4.661   5.214 -1.2686 -0.9247 -0.2841
  487TIP3   OH222951   6.236   2.442   0.468 -0.3427 -0.2666 -0.5666
  487TIP3    H122952   6.332   2.443   0.466 -0.3275  0.6437  0.3688
  487TIP3    H222953   6.211   2.534   0.473 -1.1993 -0.5636  1.2974
  488TIP3   OH222954   3.283   0.787  12.009 -0.1755 -0.5322 -0.0065
  488TIP3    H122955   3.240   0.844  12.072 -1.3994 -3.4190  1.8819
  488TIP3    H222956   3.377   0.803  12.022 -0.5068  1.3558  0.1285
  489TIP3   OH222957   5.497   4.885   4.570 -0.5865 -0.2432  0.3359
  489TIP3    H122958   5.447   4.961   4.543  0.7392  0.1637 -1.0997
  489TIP3    H222959   5.435   4.812   4.564 -1.3149  0.4157 -0.2625
  490TIP3   OH222960   1.469   0.540   0.667  0.4092  0.8007  0.2057
  490TIP3    H122961   1.556   0.578   0.680  1.4515 -1.2512 -0.6114
  490TIP3    H222962   1.482   0.467   0.606 -1.7179 -0.1464  0.8036
  491TIP3   OH222963   2.516   2.648   1.826  0.0666 -0.0116  0.6274
  491TIP3    H122964   2.539   2.741   1.836  1.8766 -0.3885  0.1030
  491TIP3    H222965   2.521   2.613   1.915 -1.4054  0.5629  0.9440
  492TIP3   OH222966   6.056   3.678   2.950  0.1958  1.0402 -0.8127
  492TIP3    H122967   5.999   3.624   3.004 -0.2025  2.7339  0.4922
  492TIP3    H222968   6.142   3.636   2.957  0.0741  1.0378  0.8768
  493TIP3   OH222969   6.625   1.961   3.330 -0.4187  0.3604 -0.2261
  493TIP3    H122970   6.596   2.044   3.292 -0.2845  0.4351 -0.1646
  493TIP3    H222971   6.661   1.985   3.415 -0.6454  0.2035 -0.0865
  494TIP3   OH222972   4.271   2.609   1.077 -0.0113 -0.8369 -0.1203
  494TIP3    H122973   4.269   2.705   1.079  1.5619 -0.7961 -0.0248
  494TIP3    H222974   4.253   2.587   0.985 -0.7592 -0.4782 -0.0701
  495TIP3   OH222975   2.957   2.491   2.596  0.3069  0.0108 -0.9982
  495TIP3    H122976   3.050   2.468   2.608 -0.1008  0.1098  3.2730
  495TIP3    H222977   2.909   2.417   2.632 -1.2143  1.3414 -0.2111
  496TIP3   OH222978   1.554   1.031  15.969 -0.0307  0.8986  0.4483
  496TIP3    H122979   1.615   1.082  15.916 -0.1192 -0.1357 -0.6917
  496TIP3    H222980   1.609   0.984  16.032  0.4645 -0.6418 -1.0828
  497TIP3   OH222981   1.028   1.265  13.770 -0.0555  0.2580  0.4392
  497TIP3    H122982   1.044   1.340  13.827  0.4059  1.5036 -1.2631
  497TIP3    H222983   1.115   1.232  13.749 -0.2471 -0.5516  0.9072
  498TIP3   OH222984   3.756   4.255   0.427 -0.2398 -0.3033 -0.3606
  498TIP3    H122985   3.775   4.342   0.392  2.2747 -1.4721 -2.0946
  498TIP3    H222986   3.674   4.230   0.384 -1.2971  1.4154  0.5988
  499TIP3   OH222987   1.048   2.499  13.016  0.3633 -0.1243  0.0246
  499TIP3    H122988   1.011   2.426  13.067 -0.2202  1.3430  1.7538
  499TIP3    H222989   1.000   2.576  13.047  0.2930  0.8856 -2.4681
  500TIP3   OH222990   1.957   3.400  12.569 -0.2202  0.0773  0.0115
  500TIP3    H122991   2.046   3.367  12.584 -0.5673 -0.7991  0.1261
  500TIP3    H222992   1.971   3.490  12.539  0.8207 -0.7324 -2.0910
  501TIP3   OH222993   1.596   1.142   0.301  0.1385 -0.1020  0.2663
  501TIP3    H122994   1.597   1.093   0.219 -1.9594  1.3400 -0.6780
  501TIP3    H222995   1.688   1.148   0.327  0.8000 -0.8587 -1.8103
  502TIP3   OH222996   2.694   3.649   5.261 -0.5249  0.1342  0.4028
  502TIP3    H122997   2.634   3.630   5.189 -0.1097 -0.4340  0.2032
  502TIP3    H222998   2.729   3.735   5.241 -1.3066  0.4911  0.5449
  503TIP3   OH222999   4.630   0.335  11.517  0.4776 -0.2788 -0.4179
  503TIP3    H123000   4.571   0.296  11.452  0.3562  0.0069 -0.4818
  503TIP3    H223001   4.657   0.261  11.572 -0.5022 -0.2903  0.0447
  504TIP3   OH223002   1.758   0.732  14.023  0.2545 -0.0559  0.6336
  504TIP3    H123003   1.833   0.705  14.076 -0.3174  0.8724  1.9726
  504TIP3    H223004   1.692   0.665  14.041  0.9645 -1.2394 -1.0672
  505TIP3   OH223005   1.806   1.205   1.972 -0.1468  0.3605  0.3158
  505TIP3    H123006   1.761   1.160   2.044  0.8958 -2.7009 -0.8498
  505TIP3    H223007   1.803   1.298   1.996 -1.5358 -0.3913  3.3309
  506TIP3   OH223008   5.825   5.612   0.903  0.4998  0.4929 -0.1442
  506TIP3    H123009   5.860   5.644   0.820 -0.1108  1.3376 -0.0945
  506TIP3    H223010   5.867   5.528   0.917  1.0538  0.6205 -1.0192
  507TIP3   OH223011   1.581   5.489  12.063  0.0049  0.3613  0.2296
  507TIP3    H123012   1.583   5.394  12.078  0.0612  0.0011 -1.8775
  507TIP3    H223013   1.497   5.505  12.020  1.2286  0.8151 -2.0585
  508TIP3   OH223014   4.701   3.425  14.621 -0.4436  0.2783  0.3155
  508TIP3    H123015   4.656   3.354  14.669 -3.1481  3.3178  2.4968
  508TIP3    H223016   4.766   3.458  14.682 -0.5670  0.9909  0.0637
  509TIP3   OH223017   5.539   2.314  12.992 -0.4675  0.1122 -0.6939
  509TIP3    H123018   5.538   2.281  12.902 -0.5510  0.7991 -0.9401
  509TIP3    H223019   5.463   2.272  13.033 -0.1698 -0.5537 -0.8135
  510TIP3   OH223020   5.907   3.942  11.549 -0.1225 -0.4812 -0.6144
  510TIP3    H123021   5.819   3.955  11.583  0.2897 -0.3786  0.4453
  510TIP3    H223022   5.956   4.019  11.578  0.6818 -1.2496  0.0911
  511TIP3   OH223023   6.381   2.273  14.350  0.0787 -0.0301 -0.3543
  511TIP3    H123024   6.467   2.314  14.338 -0.4447  0.8930 -1.0306
  511TIP3    H223025   6.392   2.185  14.316  0.2374  0.6960 -2.2251
  512TIP3   OH223026   5.953   5.382   5.386  0.0257 -0.9210  0.0410
  512TIP3    H123027   5.892   5.309   5.394  0.7430 -1.3366  2.0450
  512TIP3    H223028   5.989   5.394   5.474  0.7609  1.1250 -0.4907
  513TIP3   OH223029   6.240   2.082   2.809 -0.4272 -0.6392  0.2418
  513TIP3    H123030   6.191   2.017   2.859 -0.8609 -1.8881 -1.7277
  513TIP3    H223031   6.327   2.044   2.798 -0.2004 -0.1770  0.4437
  514TIP3   OH223032   0.047   1.145   3.871 -0.8304 -0.5006 -0.0799
  514TIP3    H123033  -0.005   1.221   3.897  0.2842  1.6521 -3.6531
  514TIP3    H223034   0.135   1.165   3.903 -0.7705 -0.8374 -0.0373
  515TIP3   OH223035   1.931   2.056   6.038  0.8033 -0.7448 -0.3106
  515TIP3    H123036   1.948   2.140   6.079 -2.1813  0.4083 -1.2634
  515TIP3    H223037   1.973   2.062   5.952  1.5965 -0.7008  0.0744
  516TIP3   OH223038   0.350   4.329  12.803 -0.0245  0.0722  0.6314
  516TIP3    H123039   0.398   4.311  12.722 -0.5595 -2.4116  0.8353
  516TIP3    H223040   0.406   4.391  12.850  1.1816  0.1035 -0.7934
  517TIP3   OH223041   0.348   1.315  12.589 -0.2404 -0.4942  0.2157
  517TIP3    H123042   0.344   1.336  12.682  2.0894 -0.3710  0.3006
  517TIP3    H223043   0.431   1.270  12.578 -1.1365 -1.7614 -1.5769
  518TIP3   OH223044   6.483   5.698   6.435  0.2103 -0.0261  0.5803
  518TIP3    H123045   6.552   5.655   6.384 -0.6825  0.8466 -1.4246
  518TIP3    H223046   6.509   5.684   6.526  1.1564 -2.7625 -0.0525
  519TIP3   OH223047   3.237   5.225   3.480 -0.0395 -0.2112 -0.4909
  519TIP3    H123048   3.296   5.214   3.405  0.3300  1.2589 -0.4343
  519TIP3    H223049   3.157   5.262   3.442 -0.4132 -0.8924 -0.3703
  520TIP3   OH223050   6.127   4.254   6.114  0.3984  0.4116 -0.2588
  520TIP3    H123051   6.148   4.171   6.157 -0.7836 -0.0155 -0.4804
  520TIP3    H223052   6.032   4.252   6.103  0.5952  0.8435 -2.2169
  521TIP3   OH223053   2.589   3.211   6.479  0.1283 -0.3085  0.1340
  521TIP3    H123054   2.582   3.286   6.538 -2.1536  1.1589 -1.8790
  521TIP3    H223055   2.504   3.167   6.486 -0.1452 -0.1652 -1.9023
  522TIP3   OH223056   3.361   5.205   0.778  0.6291 -0.3204 -0.2264
  522TIP3    H123057   3.389   5.125   0.822 -3.2541 -0.0439  3.0148
  522TIP3    H223058   3.290   5.177   0.721  1.2900  0.3792 -1.4139
  523TIP3   OH223059   3.480   3.997   0.376  0.0001 -0.2010 -0.4320
  523TIP3    H123060   3.467   4.075   0.323 -0.3572 -0.1631 -0.2920
  523TIP3    H223061   3.546   3.946   0.330  0.0129  0.0436 -0.6784
  524TIP3   OH223062   2.961   0.060   2.055 -0.4888  0.2205  0.1563
  524TIP3    H123063   3.002  -0.017   2.096 -1.0364 -0.2588 -0.1813
  524TIP3    H223064   2.947   0.033   1.964  1.6113  1.6240 -0.5973
  525TIP3   OH223065   4.518   2.706   4.425  0.2753  0.0901 -0.9617
  525TIP3    H123066   4.550   2.616   4.438 -1.3504 -0.4360 -0.4467
  525TIP3    H223067   4.519   2.719   4.330  0.0079 -0.6767 -1.0740
  526TIP3   OH223068   3.554   1.584  16.467  0.1020  0.1829  0.1280
  526TIP3    H123069   3.624   1.625  16.518  0.5898 -2.7114  1.9122
  526TIP3    H223070   3.595   1.559  16.384  0.3078  1.4301 -0.1524
  527TIP3   OH223071   6.753   6.270  12.127  0.1400 -0.6654 -0.3477
  527TIP3    H123072   6.768   6.263  12.221  0.3159 -1.0820 -0.4054
  527TIP3    H223073   6.659   6.288  12.118  0.0829 -0.8465 -0.1023
  528TIP3   OH223074   6.621   3.102  15.608 -0.3425 -0.3805 -0.1841
  528TIP3    H123075   6.587   3.080  15.521  1.3094  0.7803 -1.1501
  528TIP3    H223076   6.708   3.139  15.591 -0.4326  0.8521  1.8784
  529TIP3   OH223077   3.939   2.571  13.532 -0.3562 -0.4212  0.1026
  529TIP3    H123078   3.890   2.588  13.452 -1.0927 -0.6819  0.4915
  529TIP3    H223079   3.992   2.494  13.512  1.1426  0.8357 -0.8560
  530TIP3   OH223080   2.651   1.731  14.605 -0.6892  0.5985  0.3621
  530TIP3    H123081   2.675   1.639  14.612 -3.3043 -0.1116  0.8101
  530TIP3    H223082   2.732   1.776  14.584  0.1957 -2.1231 -2.4609
  531TIP3   OH223083   0.735   6.249   4.541  0.6068 -0.2647 -0.1312
  531TIP3    H123084   0.645   6.250   4.574  0.4344  1.6087 -0.6081
  531TIP3    H223085   0.732   6.302   4.461  1.9894 -0.7764 -0.5237
  532TIP3   OH223086   1.214   1.471   6.039  0.4973 -0.0738  0.4138
  532TIP3    H123087   1.247   1.430   6.119  0.6476 -1.1163 -0.1654
  532TIP3    H223088   1.220   1.565   6.055  1.1902 -0.2769  1.3573
  533TIP3   OH223089   2.262   3.569  15.099  0.1422  0.0208 -0.2900
  533TIP3    H123090   2.294   3.653  15.067  0.2065  0.1574  0.1355
  533TIP3    H223091   2.317   3.504  15.054 -0.4004  0.1756 -1.1759
  534TIP3   OH223092   5.710   4.744  14.426 -0.1748 -0.2808  0.4028
  534TIP3    H123093   5.625   4.710  14.400 -0.5870 -0.1232  1.5347
  534TIP3    H223094   5.705   4.751  14.521  1.4782 -1.2809  0.5740
  535TIP3   OH223095   2.913   3.527   4.864 -0.1272 -0.0764 -0.1634
  535TIP3    H123096   2.855   3.513   4.789  0.5313 -1.1989 -0.4810
  535TIP3    H223097   3.001   3.528   4.825  0.1259  0.8519  0.4094
  536TIP3   OH223098   1.514   5.854  11.956  0.2064  0.4570 -0.2407
  536TIP3    H123099   1.568   5.835  12.033 -0.5415 -0.0621  0.1611
  536TIP3    H223100   1.425   5.864  11.991 -0.2446 -0.4310 -1.1184
  537TIP3   OH223101   2.781   2.569   3.819 -0.2714  0.1201 -0.2315
  537TIP3    H123102   2.862   2.531   3.852 -0.0845  1.1610  0.5335
  537TIP3    H223103   2.808   2.620   3.743 -0.4987 -1.1072 -1.1543
  538TIP3   OH223104   5.584   2.842   2.630  0.3393 -0.0954  0.0501
  538TIP3    H123105   5.607   2.927   2.595 -0.0289 -0.0923 -0.1836
  538TIP3    H223106   5.643   2.781   2.587  0.5913  0.0394  0.2054
  539TIP3   OH223107   1.973   2.624  12.741  0.0219  0.0663 -0.5185
  539TIP3    H123108   2.038   2.673  12.691  0.6054 -0.7921 -0.6096
  539TIP3    H223109   1.940   2.558  12.680 -0.3358 -0.0403 -0.2163
  540TIP3   OH223110   3.495   3.681  12.844 -0.2380  0.1718  0.3984
  540TIP3    H123111   3.424   3.744  12.846  0.8218  1.4979 -1.6916
  540TIP3    H223112   3.557   3.711  12.911 -0.8228 -0.0191  1.0329
  541TIP3   OH223113   6.067   3.857   4.158  0.0984 -0.3025 -0.5121
  541TIP3    H123114   6.048   3.936   4.210  0.1388  0.1614 -1.1867
  541TIP3    H223115   6.046   3.883   4.068  0.4353 -0.9645 -0.7821
  542TIP3   OH223116   1.030   6.125   3.333  0.1712  0.4407  0.1947
  542TIP3    H123117   0.954   6.080   3.369  0.4349  1.8950  2.6595
  542TIP3    H223118   1.049   6.078   3.252 -0.3177 -3.0649  2.0330
  543TIP3   OH223119   1.031   3.774   1.085 -0.2578 -0.3072 -0.0537
  543TIP3    H123120   0.968   3.782   1.013 -1.4219 -0.0849  0.9756
  543TIP3    H223121   0.978   3.787   1.164  0.7221 -2.0946  0.9191
  544TIP3   OH223122   1.300   2.164   6.614 -0.4893  0.4814  0.1778
  544TIP3    H123123   1.266   2.219   6.684 -0.3203  1.3650 -0.4396
  544TIP3    H223124   1.244   2.086   6.615  0.4929 -0.2481  2.3525
  545TIP3   OH223125   3.364   0.107  14.467 -0.6440  0.1880  0.1145
  545TIP3    H123126   3.334   0.169  14.400  0.6020  1.0786  0.3592
  545TIP3    H223127   3.284   0.062  14.496 -1.1538 -0.4587 -2.2048
  546TIP3   OH223128   1.891   5.203   1.654  0.2365  0.8206  0.3430
  546TIP3    H123129   1.932   5.218   1.569  0.9217  1.4639  0.7857
  546TIP3    H223130   1.798   5.222   1.639 -0.2448 -2.3647 -1.0944
  547TIP3   OH223131   0.872   6.452  13.436 -0.1581  0.4001  0.3966
  547TIP3    H123132   0.831   6.504  13.505  2.7261  1.1220  1.6404
  547TIP3    H223133   0.945   6.407  13.480  0.1315 -1.1773 -1.6191
  548TIP3   OH223134   1.632   0.712  13.266 -0.8970  0.3917 -0.3665
  548TIP3    H123135   1.570   0.746  13.201  0.2174  3.9171  0.3165
  548TIP3    H223136   1.717   0.718  13.222 -0.4853  0.0318  0.3907
  549TIP3   OH223137   3.159   5.778  15.288  0.5978  0.4633  0.1615
  549TIP3    H123138   3.112   5.695  15.300 -0.1323  0.8659  0.1514
  549TIP3    H223139   3.160   5.818  15.375 -0.6444  1.2661 -0.1768
  550TIP3   OH223140   1.463   6.347  17.129  0.0784 -0.6871  0.1505
  550TIP3    H123141   1.427   6.317  17.212  0.1008 -1.2228 -0.0285
  550TIP3    H223142   1.388   6.379  17.080  0.2060  0.5585  0.7648
  551TIP3   OH223143   1.608   5.511  15.194 -0.6013 -0.1349 -0.0028
  551TIP3    H123144   1.669   5.508  15.268  0.0080 -0.8118 -0.5249
  551TIP3    H223145   1.658   5.549  15.123 -1.1976  0.5341 -0.0649
  552TIP3   OH223146   1.816   4.614   5.662 -0.5054 -0.1494 -0.3171
  552TIP3    H123147   1.822   4.630   5.568 -0.0400  0.2216 -0.2250
  552TIP3    H223148   1.767   4.689   5.696  0.4727  0.3971 -0.0816
  553TIP3   OH223149   0.227   6.224   4.703  0.5867  0.1943  0.1506
  553TIP3    H123150   0.206   6.310   4.668  0.3942 -0.2415 -0.8286
  553TIP3    H223151   0.243   6.239   4.796 -2.2197  0.8566  0.5592
  554TIP3   OH223152   4.779   0.779  14.371 -0.5007  0.2751  0.4105
  554TIP3    H123153   4.854   0.826  14.407  0.3714  0.6149 -1.7620
  554TIP3    H223154   4.818   0.714  14.312 -1.9456  1.6763 -2.1784
  555TIP3   OH223155   1.954   0.939  13.387 -0.3893 -0.8140  0.5623
  555TIP3    H123156   1.937   0.951  13.481 -1.2701 -2.7147  0.6850
  555TIP3    H223157   2.011   0.862  13.383 -2.2396 -2.1809 -0.5556
  556TIP3   OH223158   0.976   2.136   5.439  0.5813 -0.3745  0.1556
  556TIP3    H123159   0.944   2.080   5.368 -0.8977 -0.7805  1.1229
  556TIP3    H223160   0.942   2.223   5.418 -1.6207 -0.8940  1.4262
  557TIP3   OH223161   4.484   6.228   0.326 -0.8148 -0.6340 -0.0651
  557TIP3    H123162   4.426   6.199   0.396 -1.7219 -0.4256 -0.7155
  557TIP3    H223163   4.430   6.288   0.274 -0.7536 -2.2247 -2.0254
  558TIP3   OH223164   4.097   2.434   5.076 -0.1375 -0.3198  0.4015
  558TIP3    H123165   4.021   2.468   5.124  0.3638 -1.0991  1.7886
  558TIP3    H223166   4.160   2.507   5.077 -1.0159  0.4781 -1.1333
  559TIP3   OH223167   4.593   1.186   2.451  0.8170 -0.5012 -0.4458
  559TIP3    H123168   4.528   1.141   2.505  2.3102 -1.8600  0.2530
  559TIP3    H223169   4.550   1.201   2.367 -0.5928 -0.8371  0.2180
  560TIP3   OH223170   6.106   0.600  16.072  0.1435  0.2532 -0.6617
  560TIP3    H123171   6.077   0.509  16.064  1.3327 -0.1603 -0.3071
  560TIP3    H223172   6.024   0.651  16.072 -0.6833 -0.9957  1.7470
  561TIP3   OH223173   1.029   4.056  13.768  0.0726 -0.6355  0.2023
  561TIP3    H123174   0.935   4.073  13.766 -0.3574 -2.8531  0.2163
  561TIP3    H223175   1.050   4.046  13.860  0.1182 -1.2153  0.1280
  562TIP3   OH223176   4.618   5.461  12.318 -0.5732  0.3423 -0.3249
  562TIP3    H123177   4.621   5.539  12.374 -1.7414 -0.8365  1.4384
  562TIP3    H223178   4.704   5.419  12.330  0.1739  1.5118 -1.5246
  563TIP3   OH223179   5.507   0.073  13.815  0.0256 -0.0429 -0.2078
  563TIP3    H123180   5.540   0.157  13.783 -1.9328 -0.1207 -2.5757
  563TIP3    H223181   5.453   0.096  13.891 -0.1743  0.7779 -0.5968
  564TIP3   OH223182   3.665   5.780   0.467  0.1260 -0.4481 -0.1075
  564TIP3    H123183   3.571   5.776   0.451  0.1694 -0.8747 -0.2679
  564TIP3    H223184   3.697   5.694   0.440  0.4059 -0.6778  0.9249
  565TIP3   OH223185   2.855   6.203   0.368 -0.1514 -0.0477  0.1901
  565TIP3    H123186   2.909   6.228   0.442 -0.8635 -0.7744  0.9635
  565TIP3    H223187   2.908   6.140   0.319 -0.3343 -0.8526  1.0132
  566TIP3   OH223188   1.411   6.342  13.757  0.5020  0.3532  0.2665
  566TIP3    H123189   1.390   6.248  13.761 -1.0937  0.6974  0.3533
  566TIP3    H223190   1.326   6.385  13.750  1.3291  1.7105 -1.7439
  567TIP3   OH223191   0.698   6.183  11.785  0.1939  0.0152 -0.3115
  567TIP3    H123192   0.621   6.235  11.763  0.5991  1.3424  1.3140
  567TIP3    H223193   0.663   6.106  11.830 -0.1396  0.9888  1.1096
  568TIP3   OH223194   2.912   6.772  13.456  0.0117 -0.2820 -0.1957
  568TIP3    H123195   2.934   6.711  13.527  1.1670  0.4469  0.0730
  568TIP3    H223196   2.828   6.740  13.423 -0.3744 -0.8298  1.2769
  569TIP3   OH223197   3.982   4.689   3.517 -0.3380 -0.4239  0.2378
  569TIP3    H123198   3.997   4.613   3.574 -1.4611 -1.3778 -0.6957
  569TIP3    H223199   3.992   4.654   3.428 -0.4340  0.6279 -0.1910
  570TIP3   OH223200   2.910   6.355   6.197  0.2285  0.6154 -0.2579
  570TIP3    H123201   2.979   6.341   6.262  0.6383  2.0938 -0.3485
  570TIP3    H223202   2.884   6.267   6.170  2.1400  0.0308 -0.2695
  571TIP3   OH223203   4.898   3.607  12.133 -0.0296  0.0344  0.2591
  571TIP3    H123204   4.910   3.582  12.042  1.0096  0.9405  0.1333
  571TIP3    H223205   4.984   3.641  12.160  0.0488 -1.4257  1.9498
  572TIP3   OH223206   4.571   5.306  11.316 -0.4360  0.3220  0.5757
  572TIP3    H123207   4.487   5.319  11.273 -0.0726  1.6568  0.2685
  572TIP3    H223208   4.585   5.211  11.311 -0.8408  0.3474 -1.4114
  573TIP3   OH223209   2.556   3.720  13.214 -0.3923  0.1590 -0.0861
  573TIP3    H123210   2.563   3.778  13.290 -1.2015 -0.7626  0.7082
  573TIP3    H223211   2.639   3.730  13.167 -0.1397  1.2043  0.5827
  574TIP3   OH223212   1.406   3.444  11.138 -0.9926 -0.8265  0.0150
  574TIP3    H123213   1.329   3.486  11.100  0.7672  2.9477  0.3414
  574TIP3    H223214   1.466   3.434  11.064  0.1142  1.0056  0.6135
  575TIP3   OH223215   5.897   1.844   2.850  0.6464  0.0972 -0.0882
  575TIP3    H123216   5.816   1.797   2.832  1.3965 -1.1555 -0.2923
  575TIP3    H223217   5.918   1.889   2.768 -0.8325  1.9863  0.5466
  576TIP3   OH223218   5.344   5.363  14.402 -0.2005  0.9657  0.2327
  576TIP3    H123219   5.302   5.349  14.317 -0.6135 -0.8271  0.7203
  576TIP3    H223220   5.412   5.428  14.384  2.1445 -2.0240 -2.2363
  577TIP3   OH223221   3.604   2.112   3.343  0.3582  0.0401 -0.4387
  577TIP3    H123222   3.684   2.144   3.386  1.9434 -0.0848 -3.1534
  577TIP3    H223223   3.614   2.017   3.342  0.5155  0.0559 -1.3530
  578TIP3   OH223224   4.597   0.933  13.904  0.1221  0.1696 -0.3477
  578TIP3    H123225   4.636   1.005  13.855  2.8029 -0.6448  0.5311
  578TIP3    H223226   4.514   0.968  13.935  0.6623  2.3482 -1.2523
  579TIP3   OH223227   6.098   2.770  10.435  0.3220 -0.2945 -0.0950
  579TIP3    H123228   6.051   2.704  10.486  0.3110 -0.3483 -0.1729
  579TIP3    H223229   6.150   2.720  10.372 -0.7181 -0.2091 -1.0579
  580TIP3   OH223230   2.446   1.523  16.536  0.2326 -0.2902 -0.5695
  580TIP3    H123231   2.464   1.476  16.617 -0.3887 -1.2412 -0.9663
  580TIP3    H223232   2.395   1.461  16.483  1.1644  0.0801 -1.9396
  581TIP3   OH223233   0.233   4.101   4.259  0.0344 -0.2174 -0.2062
  581TIP3    H123234   0.139   4.106   4.242  0.0879  0.2210 -0.3919
  581TIP3    H223235   0.257   4.012   4.234 -0.0757  0.1114 -1.5199
  582TIP3   OH223236   2.259   0.607  15.579  0.2572  0.0905 -0.3579
  582TIP3    H123237   2.243   0.695  15.614 -1.9287 -0.0892 -0.8438
  582TIP3    H223238   2.213   0.606  15.495  1.0846 -1.2039 -0.7952
  583TIP3   OH223239   5.798   0.059  12.545 -0.7072 -0.4302 -0.3778
  583TIP3    H123240   5.723   0.060  12.486 -1.9807 -1.6331  1.1771
  583TIP3    H223241   5.820  -0.033  12.554  0.2108 -0.1689  0.1076
  584TIP3   OH223242   4.627   4.659  16.510  0.1738  0.2083 -0.3878
  584TIP3    H123243   4.592   4.657  16.421  0.8663 -0.8388 -0.6427
  584TIP3    H223244   4.556   4.626  16.565  0.1119 -0.1379 -0.6769
  585TIP3   OH223245   6.817   1.515  15.343 -0.4608 -0.1148  0.2991
  585TIP3    H123246   6.737   1.475  15.379 -1.4618  2.6271  1.2333
  585TIP3    H223247   6.787   1.598  15.306  1.4562 -0.5109 -2.2683
  586TIP3   OH223248   2.618   1.853   0.535  0.2700 -0.0292 -0.8864
  586TIP3    H123249   2.612   1.948   0.521  1.7331  0.1347 -0.5135
  586TIP3    H223250   2.548   1.834   0.597  0.6689  0.9910 -0.1118
  587TIP3   OH223251   4.275   4.098   2.732 -0.0601 -0.0755 -0.2078
  587TIP3    H123252   4.299   4.014   2.769 -0.4584 -0.0679  0.0753
  587TIP3    H223253   4.277   4.159   2.806 -1.3750 -0.1656 -0.0845
  588TIP3   OH223254   4.691   0.877   3.163 -0.1341  0.0437 -0.0037
  588TIP3    H123255   4.725   0.923   3.240  1.2905 -2.6991  1.1068
  588TIP3    H223256   4.598   0.866   3.182 -0.0735  0.6325  0.6792
  589TIP3   OH223257   3.685   4.709  12.539 -0.4885  0.3357 -0.6789
  589TIP3    H123258   3.750   4.764  12.581  1.1936 -2.0164 -0.1301
  589TIP3    H223259   3.734   4.658  12.474 -1.4465 -2.4401  0.6517
  590TIP3   OH223260   2.936   0.528   2.975  0.0682  0.2406 -0.2197
  590TIP3    H123261   2.846   0.496   2.974  0.3607 -0.5950 -0.6349
  590TIP3    H223262   2.935   0.600   3.038 -1.3529  1.6566 -1.8252
  591TIP3   OH223263   2.808   4.444  12.007 -0.6551  0.2002 -0.7953
  591TIP3    H123264   2.818   4.362  12.055  0.1022  0.4212 -0.5602
  591TIP3    H223265   2.875   4.440  11.938  0.6500  1.4176  0.3676
  592TIP3   OH223266   5.946   2.757  15.329  0.1482 -0.3715 -0.0182
  592TIP3    H123267   5.957   2.849  15.306 -2.4943 -0.0306 -0.0300
  592TIP3    H223268   5.858   2.751  15.366  0.2815 -2.8838  0.0276
  593TIP3   OH223269   5.730   4.533   0.352 -0.0252  0.3162  0.7376
  593TIP3    H123270   5.661   4.597   0.333  1.7775  2.3986  1.0029
  593TIP3    H223271   5.687   4.448   0.346 -1.6725  1.3323 -3.3494
  594TIP3   OH223272   2.923   0.082  12.429 -0.2631 -0.1891  0.2802
  594TIP3    H123273   2.867   0.036  12.366  1.8894  0.6100 -2.2840
  594TIP3    H223274   3.005   0.033  12.429  0.9487  1.7922 -0.0868
  595TIP3   OH223275   4.973   5.539   2.734 -0.1861  0.5021 -0.0094
  595TIP3    H123276   4.923   5.471   2.688  1.0392 -0.6981  0.3993
  595TIP3    H223277   5.034   5.573   2.668  0.7048 -0.3438  0.3561
  596TIP3   OH223278   1.070   1.223  11.597  0.9500  0.0183 -0.2940
  596TIP3    H123279   1.044   1.288  11.663  1.9966  0.9718 -0.8082
  596TIP3    H223280   0.987   1.183  11.569  0.5093 -0.4302  1.6211
  597TIP3   OH223281   1.704   2.162   2.472 -0.0949  0.3015 -0.0296
  597TIP3    H123282   1.711   2.247   2.515 -1.8259  0.3594  0.1993
  597TIP3    H223283   1.610   2.151   2.457  0.0863 -1.6960  0.1975
  598TIP3   OH223284   6.557   4.576   2.158  0.0773  0.0741 -0.3205
  598TIP3    H123285   6.627   4.512   2.143 -0.4753 -0.6082  0.0003
  598TIP3    H223286   6.570   4.606   2.248  0.1199  0.1573 -0.3536
  599TIP3   OH223287   2.316   0.064  16.877  0.1243  0.5286  0.6453
  599TIP3    H123288   2.257   0.011  16.931 -0.5300  0.2778 -0.2915
  599TIP3    H223289   2.314   0.151  16.917  1.3817 -0.1985  2.3364
  600TIP3   OH223290   2.567   4.177   6.093 -0.3603 -0.4800  0.3944
  600TIP3    H123291   2.585   4.120   6.019 -0.5508  0.9802 -0.8058
  600TIP3    H223292   2.474   4.165   6.111 -0.0808 -1.6672  1.1403
  601TIP3   OH223293   5.073   3.489  16.906  0.6790 -0.1984 -0.0164
  601TIP3    H123294   5.017   3.430  16.856  0.1564  1.1624 -1.0746
  601TIP3    H223295   5.162   3.462  16.885  0.4479 -0.1681 -1.0440
  602TIP3   OH223296   0.508   0.007  12.998  0.4134  0.0804  0.1399
  602TIP3    H123297   0.517  -0.071  12.942 -1.2687 -0.5403  0.7087
  602TIP3    H223298   0.594   0.049  12.994  1.7592 -2.4764  0.8060
  603TIP3   OH223299   0.934   3.867   1.610 -0.3653 -0.2883 -0.1894
  603TIP3    H123300   0.883   3.933   1.658 -0.0918 -0.8839  0.9311
  603TIP3    H223301   1.015   3.858   1.661 -0.1390 -1.0435 -0.6833
  604TIP3   OH223302   2.658   1.254   0.910 -0.4934 -0.0632  0.4908
  604TIP3    H123303   2.622   1.290   0.829  1.0378  1.2976  0.3862
  604TIP3    H223304   2.745   1.223   0.886 -0.5645 -0.9156  1.3116
  605TIP3   OH223305   5.689   0.448   1.614 -0.2974  0.4042 -0.4654
  605TIP3    H123306   5.779   0.429   1.588 -0.0766  1.6292 -0.6208
  605TIP3    H223307   5.661   0.370   1.662  1.1278  0.3598  0.3146
  606TIP3   OH223308   4.734   2.592  13.410  0.0909 -0.5338 -0.1754
  606TIP3    H123309   4.799   2.578  13.341  0.0144 -0.5641 -0.2422
  606TIP3    H223310   4.718   2.687  13.408  1.6432 -0.2092  1.2160
  607TIP3   OH223311   5.406   3.145   2.387  0.2309 -1.3353  0.0239
  607TIP3    H123312   5.483   3.127   2.442 -0.6529  0.6632  1.9850
  607TIP3    H223313   5.392   3.239   2.395 -0.5356 -1.1485 -2.8908
  608TIP3   OH223314   4.696   3.472   4.040  0.4105  0.0213  0.0572
  608TIP3    H123315   4.678   3.540   4.105 -1.3825 -0.0398 -0.3438
  608TIP3    H223316   4.751   3.515   3.974  2.1672  0.1103  1.5488
  609TIP3   OH223317   4.305   6.491   5.709  0.1509  0.4649  0.5701
  609TIP3    H123318   4.257   6.412   5.733  1.4870 -0.3079  0.7226
  609TIP3    H223319   4.238   6.548   5.669 -0.3945 -1.6321 -1.6124
  610TIP3   OH223320   5.033   4.121  15.297 -0.3359  0.2319 -0.6469
  610TIP3    H123321   4.989   4.204  15.313 -0.6097 -0.0113 -0.1372
  610TIP3    H223322   5.124   4.136  15.324 -0.4627  0.2618 -0.2382
  611TIP3   OH223323   6.040   2.192  13.818  0.3598  0.1732  1.0254
  611TIP3    H123324   5.987   2.153  13.888  0.0937  0.5861  1.0581
  611TIP3    H223325   6.025   2.286  13.827 -1.3988  0.1126 -0.9490
  612TIP3   OH223326   6.229   1.729  17.219  0.4493  0.6103 -0.3330
  612TIP3    H123327   6.240   1.728  17.314  0.1414 -2.0173 -0.2956
  612TIP3    H223328   6.314   1.700  17.185  0.0016 -0.1996 -0.7731
  613TIP3   OH223329   4.173   6.062   2.732 -0.0711  0.2405  0.7469
  613TIP3    H123330   4.124   6.100   2.805 -0.6670  0.5853  0.1689
  613TIP3    H223331   4.249   6.119   2.721 -1.4410  1.8508 -0.7266
  614TIP3   OH223332   0.968   1.512  14.651  0.3279  0.0813 -0.1309
  614TIP3    H123333   0.877   1.500  14.625  0.9765 -1.0448 -1.9662
  614TIP3    H223334   0.992   1.430  14.694  0.1911  0.7514  1.2425
  615TIP3   OH223335   0.536   2.846   3.544  0.3731 -0.6055  0.4144
  615TIP3    H123336   0.506   2.819   3.631 -0.0648 -2.0336 -0.1658
  615TIP3    H223337   0.459   2.886   3.504  0.2668 -0.9571  0.2698
  616TIP3   OH223338   2.492   4.739  16.244  0.2902 -0.2737  0.1263
  616TIP3    H123339   2.541   4.674  16.293  1.3496  1.2886  1.1960
  616TIP3    H223340   2.503   4.713  16.152  1.3089 -1.1728  0.4927
  617TIP3   OH223341   4.137   3.995   0.207  0.0429  0.6842  0.5555
  617TIP3    H123342   4.180   4.004   0.122  1.5673  2.4268  1.4779
  617TIP3    H223343   4.206   3.966   0.266 -1.4987 -2.6270  0.7914
  618TIP3   OH223344   5.241   4.814  15.947  0.1646  0.1597  0.1063
  618TIP3    H123345   5.304   4.861  15.893  0.4398  0.0072  0.2934
  618TIP3    H223346   5.294   4.751  15.996 -0.1567 -0.1011  0.1210
  619TIP3   OH223347   2.773   2.908   4.075 -0.0195  0.7275  0.2404
  619TIP3    H123348   2.783   2.923   3.981 -0.9902 -1.1382 -0.1714
  619TIP3    H223349   2.847   2.955   4.114  0.2594  1.7197 -1.4169
  620TIP3   OH223350   3.828   5.728  15.477 -0.2056 -0.1583 -0.0710
  620TIP3    H123351   3.749   5.693  15.520  1.1747 -0.7570  2.0623
  620TIP3    H223352   3.895   5.661  15.493  1.3563  1.4839  0.2955
  621TIP3   OH223353   6.198   1.580  13.290  0.6373 -0.3272 -0.3747
  621TIP3    H123354   6.182   1.504  13.346 -2.8592  0.0619 -0.6887
  621TIP3    H223355   6.179   1.655  13.347  4.0894  0.3526 -0.0543
  622TIP3   OH223356   0.902   5.305   1.480 -0.1269  0.3143  0.2092
  622TIP3    H123357   0.841   5.368   1.518 -0.7476  0.7364 -1.4465
  622TIP3    H223358   0.846   5.244   1.432  0.6097 -0.4326  0.2984
  623TIP3   OH223359   2.986   6.518   2.830 -0.0044  0.0135  0.6974
  623TIP3    H123360   2.924   6.530   2.758  0.3494 -0.1041  0.3731
  623TIP3    H223361   3.072   6.538   2.792  0.6326 -3.4785  0.1270
  624TIP3   OH223362   5.576   2.146  12.129  0.2470 -0.2070  0.1802
  624TIP3    H123363   5.565   2.233  12.091  1.3278 -0.3201 -0.3976
  624TIP3    H223364   5.489   2.106  12.122  0.0092  0.4271 -0.5519
  625TIP3   OH223365   6.776   6.757   2.705  0.5976 -0.0663 -0.1943
  625TIP3    H123366   6.699   6.719   2.748  0.6259  1.2115  0.9909
  625TIP3    H223367   6.833   6.682   2.689 -0.8638 -1.0312 -1.0616
  626TIP3   OH223368   4.285   6.319  14.432 -0.7609 -0.1131  0.3154
  626TIP3    H123369   4.288   6.391  14.495  3.6393  0.3621 -0.2921
  626TIP3    H223370   4.306   6.358  14.348 -0.8936 -1.6617 -0.4645
  627TIP3   OH223371   5.435   5.372  16.942  0.4108 -0.2148  0.6684
  627TIP3    H123372   5.498   5.435  16.907 -0.6413  0.4407 -0.0603
  627TIP3    H223373   5.446   5.294  16.887  2.9089 -1.3087  2.6413
  628TIP3   OH223374   0.533   3.709  16.966 -0.1002  0.1744  0.1389
  628TIP3    H123375   0.597   3.732  16.899 -1.0939 -0.2816 -0.9725
  628TIP3    H223376   0.585   3.664  17.034  1.2544  2.5023  0.6916
  629TIP3   OH223377   5.543   1.354  11.112  0.3624 -0.8545  0.1884
  629TIP3    H123378   5.532   1.298  11.035  0.9975 -2.7199  1.4260
  629TIP3    H223379   5.454   1.371  11.142  0.1050 -0.0192 -1.0167
  630TIP3   OH223380   0.736   6.703   2.519  0.3554  0.6807  0.1133
  630TIP3    H123381   0.820   6.668   2.490  1.5408  1.4112  2.4895
  630TIP3    H223382   0.748   6.716   2.613 -1.9595  2.1229  0.2295
  631TIP3   OH223383   0.190   5.136  16.399 -0.6573 -0.1627 -0.0368
  631TIP3    H123384   0.266   5.081  16.418 -0.0217 -0.1024 -2.2817
  631TIP3    H223385   0.208   5.219  16.443  0.9905  0.1458 -1.2541
  632TIP3   OH223386   5.465   4.901   0.980 -0.7018 -0.1318 -0.2829
  632TIP3    H123387   5.510   4.899   1.064  1.1857  1.5237 -1.1856
  632TIP3    H223388   5.506   4.830   0.929 -0.0811  0.4649 -0.6264
  633TIP3   OH223389   1.541   4.432   5.671  0.0220  0.3687 -0.1245
  633TIP3    H123390   1.630   4.466   5.683 -0.0816  0.5900  0.0407
  633TIP3    H223391   1.546   4.340   5.696  0.4034  0.1482 -0.9902
  634TIP3   OH223392   0.725   6.333  15.478  0.3416 -0.5828 -0.3888
  634TIP3    H123393   0.685   6.399  15.534  1.2516  0.3485 -0.8095
  634TIP3    H223394   0.655   6.272  15.458 -1.0403  1.3552 -1.6340
  635TIP3   OH223395   6.735   0.461   4.138  0.8357 -0.0646 -0.1247
  635TIP3    H123396   6.737   0.403   4.062  2.0842  2.1990 -1.8671
  635TIP3    H223397   6.738   0.549   4.102 -0.2952  1.1219  2.4962
  636TIP3   OH223398   4.072   6.248  10.838  0.0336  0.0064  0.5209
  636TIP3    H123399   4.121   6.325  10.867  0.7726 -0.3536  0.2486
  636TIP3    H223400   4.139   6.180  10.826 -0.3612 -0.1346 -1.0718
  637TIP3   OH223401   0.571   4.203  15.974 -0.6124 -0.3756  0.0636
  637TIP3    H123402   0.554   4.207  16.068 -1.2161 -0.9415 -0.0220
  637TIP3    H223403   0.603   4.291  15.952 -2.6535  0.4848  0.3812
  638TIP3   OH223404   5.330   5.716   2.353 -0.0412  0.4016 -0.2247
  638TIP3    H123405   5.252   5.767   2.376  0.4493  1.1771 -0.2538
  638TIP3    H223406   5.402   5.780   2.355  0.5910 -0.3029 -0.2062
  639TIP3   OH223407   5.891   4.658  17.143  0.3406  0.3489  0.4191
  639TIP3    H123408   5.984   4.645  17.159  0.8965  1.8275 -1.4298
  639TIP3    H223409   5.872   4.604  17.066 -0.3680 -0.0709  0.8839
  640TIP3   OH223410   3.140   5.510   3.563 -0.1292 -0.4110 -0.4591
  640TIP3    H123411   3.211   5.564   3.600  1.1982  0.1958 -3.7337
  640TIP3    H223412   3.172   5.420   3.572  0.2358 -0.2638 -0.2411
  641TIP3   OH223413   5.234   2.851  11.755 -0.1039 -0.3903  0.4691
  641TIP3    H123414   5.270   2.907  11.686 -1.3595 -0.7595 -0.5233
  641TIP3    H223415   5.166   2.904  11.796 -0.8921 -0.9676 -0.0783
  642TIP3   OH223416   1.309   5.894  12.148  0.0530  0.1897  0.0560
  642TIP3    H123417   1.215   5.906  12.139 -0.2085 -0.8816  1.1005
  642TIP3    H223418   1.326   5.903  12.242  0.9997  0.4697 -0.1339
  643TIP3   OH223419   5.725   0.826   0.677  0.0493  0.3251 -0.9015
  643TIP3    H123420   5.729   0.730   0.678 -1.7666  0.2003  2.5690
  643TIP3    H223421   5.655   0.846   0.614 -2.1337 -0.8490  1.0663
  644TIP3   OH223422   2.155   3.393   1.552  0.0528  0.2883 -0.6152
  644TIP3    H123423   2.192   3.392   1.640  1.7487  2.9673 -1.2475
  644TIP3    H223424   2.129   3.484   1.538 -1.4517 -0.3750 -2.3856
  645TIP3   OH223425   1.704   4.577  16.840  0.2582  0.2173  0.4374
  645TIP3    H123426   1.773   4.643  16.852  1.2046 -0.6933  0.0952
  645TIP3    H223427   1.638   4.599  16.905  0.9916  0.9589  0.9452
  646TIP3   OH223428   1.105   6.419   5.785 -0.5287 -0.6605 -0.2840
  646TIP3    H123429   1.188   6.388   5.822  0.0748  0.3766 -0.7246
  646TIP3    H223430   1.048   6.342   5.786  0.3189 -1.2975  0.3670
  647TIP3   OH223431   2.890   5.772  17.003  0.3287 -0.2338  0.7385
  647TIP3    H123432   2.799   5.794  16.980  0.4735 -1.4542 -1.1027
  647TIP3    H223433   2.901   5.682  16.973  2.3748  0.1354  0.3323
  648TIP3   OH223434   4.712   2.708  12.673 -0.4239 -0.5541  0.0387
  648TIP3    H123435   4.690   2.766  12.745  0.8247 -0.9530  0.7484
  648TIP3    H223436   4.627   2.674  12.643 -0.9806 -0.0232  0.9960
  649TIP3   OH223437   3.197   1.432   1.374  0.2217 -0.4905  0.2280
  649TIP3    H123438   3.283   1.472   1.385  0.5846 -0.7846 -1.4420
  649TIP3    H223439   3.140   1.504   1.345  0.0373 -0.4224  0.7535
  650TIP3   OH223440   0.161   1.105  13.747 -0.0171  0.1541  0.2887
  650TIP3    H123441   0.179   1.019  13.709 -0.6058  0.8416 -1.6424
  650TIP3    H223442   0.092   1.141  13.691 -0.9329  1.2090  2.0764
  651TIP3   OH223443   5.210   0.836   4.534 -0.2605  0.6130 -0.6153
  651TIP3    H123444   5.254   0.820   4.450 -1.0496 -1.1609 -0.7263
  651TIP3    H223445   5.276   0.815   4.600 -0.5077 -0.7577 -0.7895
  652TIP3   OH223446   6.174   3.661   1.974  0.1648 -0.4737  0.4353
  652TIP3    H123447   6.270   3.660   1.970  0.3760  0.3012  3.6045
  652TIP3    H223448   6.151   3.754   1.981 -0.8373 -0.6305 -0.7247
  653TIP3   OH223449   6.189   5.331  15.177  0.5422  0.6503 -0.0492
  653TIP3    H123450   6.126   5.383  15.126 -0.4238  0.1938  0.6655
  653TIP3    H223451   6.259   5.393  15.199  0.0616  1.3115 -0.3557
  654TIP3   OH223452   1.885   6.723  15.488 -0.4154  0.1689  0.6909
  654TIP3    H123453   1.865   6.759  15.574  1.1532 -0.9965  1.5757
  654TIP3    H223454   1.978   6.745  15.473 -0.6264  0.2199 -0.6269
  655TIP3   OH223455   1.689   0.405  12.277 -0.2188  0.1844 -0.0200
  655TIP3    H123456   1.630   0.397  12.352 -0.1582  0.5828  0.0724
  655TIP3    H223457   1.727   0.318  12.267  0.9390  0.5092  1.3751
  656TIP3   OH223458   3.780   0.107  16.350  0.2150 -0.1789 -0.2465
  656TIP3    H123459   3.748   0.103  16.440 -0.1768  1.3156 -0.3031
  656TIP3    H223460   3.769   0.199  16.324  2.6029 -0.0612 -0.9937
  657TIP3   OH223461   3.786   1.989   4.236 -0.4504  0.6270  0.3837
  657TIP3    H123462   3.747   1.903   4.249  3.1834 -1.4548 -1.6270
  657TIP3    H223463   3.848   1.999   4.308 -1.1147  1.7689  0.8201
  658TIP3   OH223464   2.095   5.610   2.695 -0.1579 -0.2788 -0.4687
  658TIP3    H123465   2.056   5.543   2.640  2.2398 -0.9593 -1.4164
  658TIP3    H223466   2.070   5.586   2.784 -0.0342 -1.9506 -0.8766
  659TIP3   OH223467   4.507   0.248   4.785 -0.5295  0.2540 -0.2564
  659TIP3    H123468   4.557   0.172   4.816 -0.0944  0.3472 -0.7312
  659TIP3    H223469   4.466   0.219   4.704 -1.6872  0.0065  0.4003
  660TIP3   OH223470   0.857   4.301   6.609  0.8256 -0.4740 -0.1633
  660TIP3    H123471   0.840   4.209   6.590  0.2967 -0.2225 -0.9148
  660TIP3    H223472   0.779   4.347   6.580  1.5192  0.3361 -0.7902
  661TIP3   OH223473   0.544   5.002  12.925 -0.0339  0.3535 -0.1670
  661TIP3    H123474   0.596   5.018  12.846 -0.1957  2.6367  0.1500
  661TIP3    H223475   0.602   5.024  12.998 -1.1197  2.0556  0.2127
  662TIP3   OH223476   0.898   0.369  16.560 -0.1546 -0.7800  0.2700
  662TIP3    H123477   0.962   0.320  16.612 -0.3084 -0.6822  0.5475
  662TIP3    H223478   0.835   0.402  16.624  0.4976  0.6252  0.1977
  663TIP3   OH223479   3.276   2.978  12.935  0.6509 -0.1843 -0.0657
  663TIP3    H123480   3.370   2.960  12.948  0.5296 -0.5312  0.3414
  663TIP3    H223481   3.273   3.070  12.910  1.1563 -0.3212 -0.6569
  664TIP3   OH223482   5.446   6.363   5.838 -0.1669 -0.2688 -0.3082
  664TIP3    H123483   5.532   6.361   5.879  0.9442 -1.7228 -2.6392
  664TIP3    H223484   5.414   6.452   5.853  1.9878  0.4642  0.0403
  665TIP3   OH223485   6.156   5.466   0.087 -0.5210  0.3679 -0.1814
  665TIP3    H123486   6.146   5.459  -0.008 -2.9224 -1.2447  0.1440
  665TIP3    H223487   6.067   5.477   0.120  0.4373  2.8384  1.7832
  666TIP3   OH223488   5.955   6.499  10.826 -0.4823 -0.2112  0.8940
  666TIP3    H123489   5.909   6.556  10.887 -2.3477 -1.0307  0.2921
  666TIP3    H223490   5.929   6.529  10.739 -0.3919 -1.0950  0.5491
  667TIP3   OH223491   6.166   3.326  15.327  0.1940  0.0076 -0.2595
  667TIP3    H123492   6.105   3.363  15.263 -1.7530  1.4833  2.3233
  667TIP3    H223493   6.240   3.386  15.326  0.2283 -0.0495 -1.2204
  668TIP3   OH223494   0.740   1.000   2.405  0.0440 -0.8414 -0.1028
  668TIP3    H123495   0.708   0.914   2.429 -1.1579  0.0292  1.4781
  668TIP3    H223496   0.836   0.991   2.403 -0.1403 -2.7953 -2.3203
  669TIP3   OH223497   3.210   6.477  16.164 -0.3437 -0.0193  0.6892
  669TIP3    H123498   3.304   6.492  16.176 -0.2726  0.2652 -0.2231
  669TIP3    H223499   3.170   6.512  16.244  0.0917  2.3400 -0.0990
  670TIP3   OH223500   3.726   1.677   1.043  0.2053 -0.6579  0.1249
  670TIP3    H123501   3.753   1.666   1.134 -1.1017 -0.2376  0.5774
  670TIP3    H223502   3.775   1.754   1.013  0.7152 -0.8573  0.4379
  671TIP3   OH223503   0.387   4.957   0.452  0.4181  0.2543  0.0518
  671TIP3    H123504   0.405   4.979   0.361  0.1502  0.5710  0.0760
  671TIP3    H223505   0.292   4.958   0.459  0.4652  1.7024  0.6868
  672TIP3   OH223506   0.399   3.290  14.208  0.0291  0.2126  0.2440
  672TIP3    H123507   0.470   3.244  14.162  0.4543  0.4726  0.6442
  672TIP3    H223508   0.352   3.336  14.138 -0.6969 -1.2159 -0.2274
  673TIP3   OH223509   5.555   5.708   0.933 -0.6401 -0.3529 -0.3545
  673TIP3    H123510   5.536   5.643   1.001 -2.7468  0.9204  0.3171
  673TIP3    H223511   5.646   5.691   0.909 -0.6014 -2.3918  1.0657
  674TIP3   OH223512   3.873   1.385   1.213  0.0628 -0.6754  0.3079
  674TIP3    H123513   3.851   1.388   1.120 -0.9296  0.8050  0.5675
  674TIP3    H223514   3.791   1.358   1.256 -0.3333  1.5351  0.9933
  675TIP3   OH223515   0.698   2.154   2.294  0.0168  0.3779 -1.0228
  675TIP3    H123516   0.622   2.153   2.352  0.8075  0.8742  0.0402
  675TIP3    H223517   0.662   2.173   2.207 -1.1047  0.2604 -0.5931
  676TIP3   OH223518   5.795   0.361  10.672 -0.0357  0.3595  0.1256
  676TIP3    H123519   5.888   0.358  10.692  0.4300  0.7654 -1.9045
  676TIP3    H223520   5.783   0.443  10.624 -0.8745 -1.1602 -2.3317
  677TIP3   OH223521   4.526   5.648  13.723  0.5115  0.9281 -0.0319
  677TIP3    H123522   4.448   5.667  13.775 -1.2900  0.3835 -2.4866
  677TIP3    H223523   4.502   5.573  13.670  2.7805  0.6491 -0.7080
  678TIP3   OH223524   1.049   0.184  16.724 -0.5941 -0.1037 -1.0539
  678TIP3    H123525   0.957   0.158  16.727  0.2680 -3.2239 -0.2567
  678TIP3    H223526   1.069   0.212  16.813 -0.3199 -1.0952 -0.8018
  679TIP3   OH223527   2.296   0.910   5.022  0.3381  0.1925  0.4239
  679TIP3    H123528   2.218   0.866   4.987  0.5674 -0.7036  1.0319
  679TIP3    H223529   2.315   0.979   4.958 -2.7548  2.4484  1.7552
  680TIP3   OH223530   2.642   5.191  15.451  0.3363  0.2610 -0.3635
  680TIP3    H123531   2.634   5.098  15.471  1.5292  0.5539  1.5833
  680TIP3    H223532   2.697   5.226  15.521 -0.5817  2.5371 -0.7278
  681TIP3   OH223533   5.171   6.009  17.158  0.1940  0.2686  0.0995
  681TIP3    H123534   5.083   5.980  17.183  0.4566  0.2155  0.9788
  681TIP3    H223535   5.225   5.992  17.235  0.7526  1.3419 -0.0393
  682TIP3   OH223536   3.719   2.798  16.471 -0.3824  0.0176  0.5543
  682TIP3    H123537   3.627   2.775  16.459  0.1439 -2.2986  0.7511
  682TIP3    H223538   3.741   2.851  16.395 -1.8040  0.3984  0.3952
  683TIP3   OH223539   5.273   1.768   2.544 -0.7277 -0.4919 -0.0850
  683TIP3    H123540   5.329   1.718   2.603  0.4494  1.8869  0.8698
  683TIP3    H223541   5.194   1.785   2.594 -0.5735 -0.2398  0.0733
  684TIP3   OH223542   1.208   5.120   0.643 -0.7924 -0.2095 -0.1445
  684TIP3    H123543   1.235   5.159   0.559  4.3383 -0.7139  1.1191
  684TIP3    H223544   1.174   5.194   0.693 -1.5992  0.5454 -1.7683
  685TIP3   OH223545   3.573   4.626   2.833  0.2399  0.0867 -0.0511
  685TIP3    H123546   3.595   4.674   2.913 -0.3710  0.4231 -0.0878
  685TIP3    H223547   3.610   4.680   2.763 -0.0942  0.2989 -0.0641
  686TIP3   OH223548   1.970   6.357  12.074  0.5329 -0.2524 -0.0247
  686TIP3    H123549   2.062   6.368  12.096  0.5418 -1.7444  0.7576
  686TIP3    H223550   1.963   6.387  11.984  1.0607  3.3037  1.0637
  687TIP3   OH223551   1.538   2.343   5.015  0.2813 -0.6957 -0.2884
  687TIP3    H123552   1.521   2.437   5.008  1.5433 -0.4314  0.0369
  687TIP3    H223553   1.495   2.317   5.096  0.7685 -0.2026  0.1304
  688TIP3   OH223554   5.346   1.701  10.262 -0.1856  0.0292  0.5667
  688TIP3    H123555   5.379   1.623  10.217 -0.6750  0.2676 -0.2187
  688TIP3    H223556   5.313   1.668  10.345 -1.2034 -0.7494 -0.1266
  689TIP3   OH223557   3.300   1.943   3.711 -0.4585  0.5216  0.4275
  689TIP3    H123558   3.219   1.947   3.762 -1.3863  0.0193 -0.9736
  689TIP3    H223559   3.282   1.879   3.642  1.4293 -0.2350  0.5987
  690TIP3   OH223560   4.854   1.142  17.269 -0.2740 -0.4336  0.1939
  690TIP3    H123561   4.823   1.206  17.205 -0.4167 -2.0363 -1.3737
  690TIP3    H223562   4.891   1.195  17.339 -2.6441  1.4349  0.1097
  691TIP3   OH223563   1.518   6.365   6.916  0.1275 -0.0391 -0.1334
  691TIP3    H123564   1.514   6.270   6.918  0.5139 -0.0314  2.1562
  691TIP3    H223565   1.426   6.393   6.920  0.0460 -0.3229 -0.0055
  692TIP3   OH223566   4.551   3.044  17.074  0.0195  0.0545 -0.4009
  692TIP3    H123567   4.498   3.100  17.130  0.2421  1.4496 -1.5480
  692TIP3    H223568   4.630   3.028  17.126 -0.2980  0.3059  0.1759
  693TIP3   OH223569   2.635   2.560  10.460  0.4540  0.2260  0.8075
  693TIP3    H123570   2.593   2.610  10.530 -1.8468  0.3050 -0.5913
  693TIP3    H223571   2.609   2.470  10.476 -0.2921  0.2779 -0.0969
  694TIP3   OH223572   4.136   0.734   4.243 -0.1601  0.1996  0.3978
  694TIP3    H123573   4.072   0.775   4.184 -0.3869  0.8358  1.0805
  694TIP3    H223574   4.173   0.807   4.293  2.1210  0.0200 -0.9381
  695TIP3   OH223575   3.515   4.323  16.773  0.0890 -0.1802 -0.2708
  695TIP3    H123576   3.515   4.301  16.680  0.5267 -0.0860 -0.2968
  695TIP3    H223577   3.434   4.284  16.807  0.8205 -1.8015 -0.3234
  696TIP3   OH223578   2.238   4.733  14.602 -0.0312 -0.5525  0.2243
  696TIP3    H123579   2.280   4.652  14.629 -0.5008 -1.2954 -1.2037
  696TIP3    H223580   2.262   4.743  14.510  1.5388  1.9080  0.8604
  697TIP3   OH223581   1.529   4.608  12.621  0.1660  0.3430 -0.2327
  697TIP3    H123582   1.437   4.594  12.641  0.0694  2.1397  0.7057
  697TIP3    H223583   1.529   4.681  12.558  0.9600  0.6206  0.0793
  698TIP3   OH223584   1.290   2.549   3.717  0.2128  0.4187  0.0713
  698TIP3    H123585   1.302   2.618   3.652 -0.6557 -0.5631 -1.1643
  698TIP3    H223586   1.334   2.473   3.680 -2.0747 -0.7379 -0.4000
  699TIP3   OH223587   6.246   6.555  12.235  0.4211  0.1705 -0.0639
  699TIP3    H123588   6.266   6.527  12.146  0.5360 -0.6014  0.2049
  699TIP3    H223589   6.168   6.611  12.225 -0.2042 -0.7655 -0.5331
  700TIP3   OH223590   0.194   3.278   5.333 -0.2555  0.3740 -0.8223
  700TIP3    H123591   0.136   3.237   5.269 -0.8068 -0.2432  0.0531
  700TIP3    H223592   0.281   3.274   5.293 -0.5209 -0.4119 -1.3344
  701TIP3   OH223593   0.179   1.310   2.245 -0.1524  0.2729 -0.4953
  701TIP3    H123594   0.188   1.333   2.153  0.8287  1.0384 -0.2202
  701TIP3    H223595   0.261   1.266   2.267  0.9077  2.7210  0.7394
  702TIP3   OH223596   3.157   2.617   5.727 -0.3080 -0.6310  0.4937
  702TIP3    H123597   3.205   2.695   5.756 -0.5970 -1.7594  4.1169
  702TIP3    H223598   3.089   2.652   5.669  0.2497  1.7130  1.1972
  703TIP3   OH223599   2.497   0.089  16.667 -0.0988  0.6947  0.0805
  703TIP3    H123600   2.452   0.097  16.751  0.4483  3.0870  0.1903
  703TIP3    H223601   2.458   0.157  16.612  2.2370  1.7719 -0.3235
  704TIP3   OH223602   6.479   0.661  10.399 -0.1102 -0.5739 -0.3571
  704TIP3    H123603   6.479   0.600  10.473  2.8138 -0.2719 -0.0760
  704TIP3    H223604   6.522   0.740  10.432 -1.1806  0.5816 -1.6213
  705TIP3   OH223605   3.391   2.631   3.738 -0.3368  0.8837 -0.3681
  705TIP3    H123606   3.304   2.644   3.699 -1.6033 -2.8152  0.9560
  705TIP3    H223607   3.449   2.621   3.663 -1.1527  2.7938 -1.2798
  706TIP3   OH223608   1.956   5.602   5.692  0.0968 -0.3807  0.6536
  706TIP3    H123609   1.917   5.685   5.721 -1.4115 -0.7058 -0.4100
  706TIP3    H223610   2.050   5.618   5.694 -0.1706  1.2706  0.7146
  707TIP3   OH223611   6.219   1.495   1.743 -0.3914 -0.7751 -0.4964
  707TIP3    H123612   6.310   1.511   1.717 -0.5729 -0.4843 -0.9636
  707TIP3    H223613   6.167   1.522   1.667 -0.8398 -1.4873 -0.4500
  708TIP3   OH223614   5.860   2.400   3.576  0.5294  0.2026  0.5858
  708TIP3    H123615   5.780   2.396   3.524 -1.2508  1.5145  3.1044
  708TIP3    H223616   5.837   2.454   3.651  3.6446  0.1428  1.6652
  709TIP3   OH223617   0.749   2.377  12.418  0.5730 -0.4196 -0.1793
  709TIP3    H123618   0.821   2.361  12.479  0.9287  0.1374 -0.4516
  709TIP3    H223619   0.784   2.355  12.332 -0.4962 -2.9734 -0.0019
  710TIP3   OH223620   0.538   3.314  13.520 -0.3701  0.3057 -0.6508
  710TIP3    H123621   0.487   3.387  13.555 -0.0635  0.5987 -0.8193
  710TIP3    H223622   0.555   3.258  13.595 -1.4336 -0.0871 -0.6840
  711TIP3   OH223623   6.760   2.712  15.429 -0.1540  0.3026  0.2936
  711TIP3    H123624   6.786   2.638  15.374 -2.7303 -1.3063  1.1587
  711TIP3    H223625   6.784   2.686  15.517  0.3746  1.1927  0.4175
  712TIP3   OH223626   3.294   2.798   2.638  0.3175 -0.6886 -0.3914
  712TIP3    H123627   3.241   2.872   2.667  2.8033  1.4567 -1.1124
  712TIP3    H223628   3.272   2.788   2.545  0.4307 -0.4382 -0.4460
  713TIP3   OH223629   4.105   4.885  11.031  0.0878 -0.2116  0.2052
  713TIP3    H123630   4.117   4.793  11.010 -1.4422 -0.3689 -0.0353
  713TIP3    H223631   4.059   4.885  11.115  0.1391  0.3442  0.2403
  714TIP3   OH223632   2.683   5.501  11.048  0.5817  0.4692 -0.4275
  714TIP3    H123633   2.687   5.414  11.087  2.8547  0.8340  0.2009
  714TIP3    H223634   2.590   5.526  11.054  0.2898 -0.9831  1.3964
  715TIP3   OH223635   3.008   2.666   5.283 -0.4007 -0.0491  0.1295
  715TIP3    H123636   2.986   2.610   5.208 -0.6285 -2.2447  1.7627
  715TIP3    H223637   2.930   2.718   5.298 -0.6089 -0.1110 -0.7228
  716TIP3   OH223638   4.180   4.236  14.631  0.3488  0.2579  0.0638
  716TIP3    H123639   4.232   4.229  14.711 -2.0565  3.1413  2.0067
  716TIP3    H223640   4.238   4.280  14.568  2.0686 -1.5253  0.3798
  717TIP3   OH223641   6.679   6.013   4.747  0.0112 -0.5019  0.2830
  717TIP3    H123642   6.621   5.953   4.794  0.2683 -0.7711  0.2595
  717TIP3    H223643   6.728   5.957   4.687  1.8279 -0.6046  1.8022
  718TIP3   OH223644   3.134   1.715   5.943 -0.7064  0.1506 -0.4367
  718TIP3    H123645   3.150   1.627   5.976 -1.6530  0.0256 -0.2902
  718TIP3    H223646   3.135   1.771   6.021 -1.8502  0.0105 -0.3073
  719TIP3   OH223647   4.535   0.333  14.083  0.2498  0.1202  0.3916
  719TIP3    H123648   4.501   0.409  14.130 -1.4320 -1.7879  2.3304
  719TIP3    H223649   4.568   0.275  14.151  1.8864 -0.7415 -1.0979
  720TIP3   OH223650   4.607   6.590  14.994  0.3238  0.2076 -0.7254
  720TIP3    H123651   4.524   6.554  14.962  1.3940 -0.5142 -2.7224
  720TIP3    H223652   4.619   6.671  14.944  1.3802 -0.2750 -1.2580
  721TIP3   OH223653   3.228   2.515   2.626  0.6247  0.0850  0.8541
  721TIP3    H123654   3.234   2.603   2.664 -0.8686  0.9715 -0.8267
  721TIP3    H223655   3.297   2.514   2.560  0.4042  0.1577  0.6178
  722TIP3   OH223656   5.516   6.048   4.924  0.1758  0.0183  0.4032
  722TIP3    H123657   5.593   6.015   4.878 -0.1673  0.3474 -0.4070
  722TIP3    H223658   5.547   6.126   4.970  0.0156  0.8847 -0.9638
  723TIP3   OH223659   5.438   6.319  12.049  0.1835  0.0743  0.4735
  723TIP3    H123660   5.378   6.369  12.104 -0.2376  2.2247 -1.8885
  723TIP3    H223661   5.410   6.228  12.059 -3.3082  1.0059 -0.3560
  724TIP3   OH223662   6.190   1.859   4.108  0.1274  0.3162  0.2636
  724TIP3    H123663   6.217   1.863   4.016  2.1759  1.0612  0.8604
  724TIP3    H223664   6.095   1.869   4.106  0.1079 -0.0239 -1.7921
  725TIP3   OH223665   5.767   0.015  13.807 -0.0314 -0.0666 -0.4744
  725TIP3    H123666   5.797  -0.031  13.886 -2.2747 -1.5162 -0.4215
  725TIP3    H223667   5.672   0.022  13.818 -0.1100  1.7746 -1.9982
  726TIP3   OH223668   2.918   4.435  13.661 -0.1098 -1.0699 -0.3529
  726TIP3    H123669   2.959   4.363  13.614 -2.8903 -2.1711 -1.2013
  726TIP3    H223670   2.824   4.418  13.654 -0.8102  2.2312  0.0746
  727TIP3   OH223671   6.160   0.774  13.833  0.6568 -0.2816 -0.4918
  727TIP3    H123672   6.193   0.685  13.845  0.1011 -0.2262  1.7924
  727TIP3    H223673   6.077   0.763  13.786 -0.4742 -1.1810  1.6508
  728TIP3   OH223674   3.116   4.100   2.315  0.1938  0.0658  0.3534
  728TIP3    H123675   3.117   4.158   2.239  1.0720  3.5655  2.8962
  728TIP3    H223676   3.056   4.142   2.377 -0.3480 -2.5732  1.7077
  729TIP3   OH223677   1.957   2.555  15.968 -0.7533 -0.6511 -0.4525
  729TIP3    H123678   1.966   2.478  16.023 -0.8161 -0.0025  0.4793
  729TIP3    H223679   1.869   2.547  15.930 -0.5968 -1.2470 -0.6980
  730TIP3   OH223680   0.012   4.116  13.484  0.1376  0.7232  0.3438
  730TIP3    H123681  -0.050   4.130  13.555 -0.0122  0.3720  0.2883
  730TIP3    H223682   0.082   4.064  13.523 -0.1168  0.2247  0.1577
  731TIP3   OH223683   0.404   2.243  11.409  0.3393  0.4661  0.0745
  731TIP3    H123684   0.493   2.256  11.440 -0.3376  0.7562  1.9454
  731TIP3    H223685   0.402   2.152  11.377  1.4106  0.6022 -0.3784
  732TIP3   OH223686   4.306   6.638   6.132  0.2469 -0.1747  0.2367
  732TIP3    H123687   4.315   6.732   6.118 -0.9422 -0.1158 -0.1612
  732TIP3    H223688   4.396   6.606   6.142  0.6756  0.9210 -0.1213
  733TIP3   OH223689   6.073   5.187   1.397  0.1368  0.6394  0.0095
  733TIP3    H123690   6.025   5.268   1.385 -2.1113 -0.8122 -1.2058
  733TIP3    H223691   6.047   5.132   1.323  1.5669 -1.1829  0.8136
  734TIP3   OH223692   4.061   2.272   3.363  0.1521  0.0503 -0.6914
  734TIP3    H123693   4.126   2.299   3.427 -0.5236  0.8578 -0.3259
  734TIP3    H223694   4.103   2.287   3.278  1.2079 -1.4320 -0.4496
  735TIP3   OH223695   1.193   5.018   1.187  0.6266  0.9569 -0.3318
  735TIP3    H123696   1.253   5.086   1.157  0.0738  1.6309  0.0791
  735TIP3    H223697   1.107   5.046   1.156  0.3579  0.5703  0.0553
  736TIP3   OH223698   1.646   4.322  14.422 -0.1740 -0.3890  0.5980
  736TIP3    H123699   1.611   4.366  14.500 -0.6164 -1.1258  0.8296
  736TIP3    H223700   1.623   4.380  14.349  0.2091  0.2869  1.0139
  737TIP3   OH223701   3.203   6.696  12.026 -0.0683 -0.4060  0.2179
  737TIP3    H123702   3.253   6.625  12.067 -0.0757  1.0726  2.9185
  737TIP3    H223703   3.112   6.677  12.050 -0.2088 -0.2080 -0.1715
  738TIP3   OH223704   6.258   5.903   0.925 -0.1969  0.1496  0.1455
  738TIP3    H123705   6.283   5.819   0.964 -0.5730 -1.2117 -2.3804
  738TIP3    H223706   6.172   5.923   0.962 -0.5253 -1.0786  0.0720
  739TIP3   OH223707   3.199   2.824  14.271 -0.5646 -0.4143 -0.3102
  739TIP3    H123708   3.216   2.742  14.224 -1.2369 -0.3298 -0.7068
  739TIP3    H223709   3.284   2.848  14.309 -0.0073 -0.4972 -1.4811
  740TIP3   OH223710   3.675   4.245   1.271  0.9274 -0.1269 -0.4098
  740TIP3    H123711   3.670   4.296   1.190 -0.0890 -0.6321 -0.6786
  740TIP3    H223712   3.762   4.205   1.269  0.4587 -1.1403 -1.8836
  741TIP3   OH223713   0.564   5.499  16.115  0.5763 -0.3179  0.8220
  741TIP3    H123714   0.636   5.538  16.165 -0.0278  0.2726  1.2308
  741TIP3    H223715   0.605   5.471  16.033  1.3211 -0.2025  1.1505
  742TIP3   OH223716   5.739   6.426  12.694  0.1714  0.5070  0.0736
  742TIP3    H123717   5.779   6.428  12.781  1.5982  0.8822 -0.5828
  742TIP3    H223718   5.680   6.350  12.696  0.5569  0.2347  1.2054
  743TIP3   OH223719   1.334   6.776   1.740 -0.4887 -0.1547 -0.3811
  743TIP3    H123720   1.418   6.750   1.779 -0.8102 -0.5150  0.0869
  743TIP3    H223721   1.302   6.846   1.797 -1.1885 -1.0113  0.2859
  744TIP3   OH223722   3.747   2.004   3.598 -0.1978 -0.3666  0.0642
  744TIP3    H123723   3.673   1.972   3.649 -0.6655  0.7864  0.1171
  744TIP3    H223724   3.808   2.038   3.663 -0.2004 -0.1142 -0.0659
  745TIP3   OH223725   0.346   4.345  16.862 -0.4703  0.0052 -0.6427
  745TIP3    H123726   0.305   4.268  16.824  1.0750 -1.9834  1.5905
  745TIP3    H223727   0.434   4.346  16.826 -1.0059  1.7567 -1.9959
  746TIP3   OH223728   1.145   5.977   2.087 -0.0972 -0.0382  0.4337
  746TIP3    H123729   1.056   5.995   2.116 -0.2252 -3.2827  2.2822
  746TIP3    H223730   1.200   6.037   2.137 -0.9718 -0.5004  1.9748
  747TIP3   OH223731   0.283   5.836   1.931  0.9511  0.0679 -0.4381
  747TIP3    H123732   0.215   5.895   1.900  1.9486  1.4082 -0.1276
  747TIP3    H223733   0.250   5.748   1.912 -0.5925  0.7230 -0.8098
  748TIP3   OH223734   6.777   3.414  13.128  0.2298 -0.0391 -0.4982
  748TIP3    H123735   6.766   3.419  13.033  1.1259 -1.0639 -0.6696
  748TIP3    H223736   6.783   3.320  13.146  1.7343  0.2081  0.3694
  749TIP3   OH223737   0.839   5.395   4.960 -0.6362  0.1888  0.6108
  749TIP3    H123738   0.793   5.340   5.022 -1.8915  0.5124 -0.0033
  749TIP3    H223739   0.777   5.466   4.940 -0.7698 -0.6028 -1.9607
  750TIP3   OH223740   4.179   2.580   6.392  0.2592 -0.5732  0.4356
  750TIP3    H123741   4.183   2.541   6.305 -0.1660 -0.7482  0.4935
  750TIP3    H223742   4.166   2.506   6.451 -0.4316 -0.3640  0.5553
  751TIP3   OH223743   1.181   6.715  15.428  0.3092 -0.0462 -0.2873
  751TIP3    H123744   1.159   6.766  15.506 -0.2487  0.0907 -0.5321
  751TIP3    H223745   1.187   6.625  15.459  2.1676  0.2620  0.3236
  752TIP3   OH223746   5.801   5.638   3.871  0.3842  0.2941  0.3001
  752TIP3    H123747   5.744   5.562   3.876 -0.2541  0.8441  1.4506
  752TIP3    H223748   5.784   5.674   3.784  1.1449 -1.2165 -0.4985
  753TIP3   OH223749   1.022   4.850  13.943  0.2977  0.3275  0.3425
  753TIP3    H123750   1.018   4.759  13.974  0.8806 -0.3646 -1.5865
  753TIP3    H223751   0.934   4.884  13.959 -0.2645 -0.9284  0.0072
  754TIP3   OH223752   0.654   0.684  13.922  0.5051 -0.6332  0.3789
  754TIP3    H123753   0.670   0.590  13.919 -4.3587 -1.5609  0.0804
  754TIP3    H223754   0.670   0.713  13.832  1.6267 -1.2029  0.3830
  755TIP3   OH223755   6.449   4.047   0.157 -0.1144 -0.2608 -0.8185
  755TIP3    H123756   6.386   4.118   0.153  0.7540  0.5060 -1.0699
  755TIP3    H223757   6.465   4.024   0.065  0.3709 -0.0932 -0.7761
  756TIP3   OH223758   2.538   1.410  13.917  0.1181 -0.2459 -0.3602
  756TIP3    H123759   2.586   1.476  13.967  0.8606 -1.0114 -0.0470
  756TIP3    H223760   2.461   1.391  13.970  0.9871 -1.1736  0.5858
  757TIP3   OH223761   3.960   3.624   2.212 -0.6870 -0.4282 -0.1122
  757TIP3    H123762   4.035   3.663   2.257 -1.5786 -0.5672  1.5549
  757TIP3    H223763   3.961   3.664   2.125  1.9943 -1.3368 -0.5272
  758TIP3   OH223764   4.887   2.875   2.308  0.4402  0.1010  0.4129
  758TIP3    H123765   4.905   2.864   2.401  0.2753  0.9732  0.5512
  758TIP3    H223766   4.901   2.788   2.270  0.2015 -0.3243  1.2989
  759TIP3   OH223767   4.641   2.643  16.519  0.5436  0.4102 -0.5961
  759TIP3    H123768   4.726   2.604  16.539  0.7106  1.2733  0.4034
  759TIP3    H223769   4.589   2.570  16.483  2.1886  0.2272 -2.6920
  760TIP3   OH223770   4.915   6.785  13.992 -0.3538  0.0390 -0.0052
  760TIP3    H123771   4.858   6.780  13.915 -1.9829 -0.0969  1.2022
  760TIP3    H223772   4.887   6.864  14.037 -1.0869 -1.2076  1.7675
  761TIP3   OH223773   4.290   4.848   4.494 -0.4096 -0.2621  0.3063
  761TIP3    H123774   4.230   4.849   4.419  1.6707  1.1337 -1.4454
  761TIP3    H223775   4.363   4.903   4.465  1.5218 -1.6001  2.5020
  762TIP3   OH223776   0.682   2.287  13.648 -0.0508  0.0573  0.3876
  762TIP3    H123777   0.649   2.198  13.629 -0.1106  0.2492 -0.4539
  762TIP3    H223778   0.771   2.287  13.612 -0.4533  0.6856 -0.6356
  763TIP3   OH223779   2.389   6.371  14.593  0.1901 -0.3240  0.5037
  763TIP3    H123780   2.303   6.402  14.565 -0.3539 -2.2255  0.0193
  763TIP3    H223781   2.400   6.406  14.682 -0.2184  1.5553 -0.1603
  764TIP3   OH223782   1.645   6.181  16.022  0.2808 -0.2654 -0.6189
  764TIP3    H123783   1.636   6.137  16.106  1.5151  0.3868 -0.1344
  764TIP3    H223784   1.556   6.207  15.999 -0.2283 -1.5201 -0.1088
  765TIP3   OH223785   4.018   3.766  11.244 -0.2171  0.0549  0.0560
  765TIP3    H123786   3.942   3.813  11.280 -0.7467 -1.4185  0.9246
  765TIP3    H223787   4.041   3.703  11.313  1.0657 -0.3047 -0.6991
  766TIP3   OH223788   0.880   4.315  13.655 -0.0646 -0.3670  0.5164
  766TIP3    H123789   0.879   4.407  13.627  0.3437 -0.6824 -0.5560
  766TIP3    H223790   0.947   4.274  13.601 -2.9634 -2.1800 -1.8824
  767TIP3   OH223791   3.441   0.816   3.823 -0.4329  0.1571  0.0755
  767TIP3    H123792   3.426   0.824   3.917  0.1023  0.6468  0.1258
  767TIP3    H223793   3.410   0.729   3.800 -1.4362  0.3890  0.5385
  768TIP3   OH223794   4.457   3.941  11.638  0.4526  0.0510 -0.5414
  768TIP3    H123795   4.462   3.961  11.732 -0.3545 -0.4022 -0.3952
  768TIP3    H223796   4.367   3.964  11.614  0.8879  0.9413 -1.3940
  769TIP3   OH223797   2.555   5.446   3.651  0.1536  0.7976  0.0794
  769TIP3    H123798   2.536   5.394   3.730  0.4137  0.0454 -0.3445
  769TIP3    H223799   2.471   5.452   3.606  0.2691  0.0972 -0.2436
  770TIP3   OH223800   0.748   0.289  14.425  0.0233  0.1933 -0.1130
  770TIP3    H123801   0.810   0.319  14.358  1.3195 -1.4352  0.3257
  770TIP3    H223802   0.769   0.197  14.437 -0.9535  0.1893  1.7239
  771TIP3   OH223803   0.245   4.999  16.767  0.2681 -0.3196  0.0017
  771TIP3    H123804   0.321   5.017  16.711  1.3116  0.0341  1.5236
  771TIP3    H223805   0.189   5.076  16.755  0.5079 -0.2184 -0.5095
  772TIP3   OH223806   6.029   3.868   2.569 -0.0148  1.0569  0.8252
  772TIP3    H123807   6.075   3.851   2.486 -2.1045  0.3725 -0.2134
  772TIP3    H223808   6.042   3.962   2.584  0.6039  1.1427 -0.1519
  773TIP3   OH223809   6.305   0.304   2.156  0.6462  0.4601 -0.4352
  773TIP3    H123810   6.299   0.399   2.142  0.7169  0.4879 -0.2763
  773TIP3    H223811   6.231   0.268   2.108  0.5922  0.6018 -0.4579
  774TIP3   OH223812   1.905   1.487   3.501  0.2580  0.1029 -0.3504
  774TIP3    H123813   1.858   1.406   3.485 -0.4766  0.0987  1.6412
  774TIP3    H223814   1.952   1.505   3.420  0.4477 -2.3182 -0.7939
  775TIP3   OH223815   0.174   3.946  16.358  0.1936  0.1800  0.6539
  775TIP3    H123816   0.084   3.947  16.326  0.3119 -1.0534  0.2411
  775TIP3    H223817   0.194   4.037  16.378 -0.4075  0.7615 -1.3437
  776TIP3   OH223818   5.615   4.195   4.704  0.1927  0.4559 -0.2782
  776TIP3    H123819   5.700   4.216   4.741  0.0818  0.2286  0.1150
  776TIP3    H223820   5.563   4.164   4.779 -0.3477  0.9392 -0.4430
  777TIP3   OH223821   3.229   4.776   1.504 -0.1599  0.3201 -0.4846
  777TIP3    H123822   3.238   4.682   1.491 -0.5749  0.3095 -0.7068
  777TIP3    H223823   3.137   4.788   1.527  0.1726  0.5253  0.8183
  778TIP3   OH223824   1.500   3.601  12.725  0.7037 -0.4546 -0.2634
  778TIP3    H123825   1.581   3.550  12.724 -0.5401 -2.4813 -0.1721
  778TIP3    H223826   1.468   3.594  12.815 -0.2507 -0.7572 -0.6201
  779TIP3   OH223827   0.534   3.883   6.191 -0.0944 -0.2600  0.1956
  779TIP3    H123828   0.625   3.895   6.219  0.3959 -0.2827 -1.3536
  779TIP3    H223829   0.484   3.945   6.245  1.0036  0.6914  0.1264
  780TIP3   OH223830   1.483   4.906   0.363 -0.2161 -0.2559  0.0249
  780TIP3    H123831   1.538   4.832   0.387  0.4706  0.3550  0.3432
  780TIP3    H223832   1.414   4.907   0.429  0.4528  0.1094  0.7322
  781TIP3   OH223833   5.545   3.568   3.357  0.0502 -0.0321 -0.4340
  781TIP3    H123834   5.638   3.592   3.347  0.2649 -0.3987  0.6205
  781TIP3    H223835   5.503   3.649   3.387 -0.3329  0.6694 -2.7661
  782TIP3   OH223836   2.419   4.516  17.233 -0.4198 -0.1021  0.0291
  782TIP3    H123837   2.344   4.558  17.191 -1.1520 -0.5495  0.8800
  782TIP3    H223838   2.434   4.436  17.182  0.0957  0.4657 -0.7296
  783TIP3   OH223839   0.649   3.479  10.829  0.1609 -0.1421 -0.1724
  783TIP3    H123840   0.722   3.528  10.791 -0.2774 -0.1264 -1.0196
  783TIP3    H223841   0.571   3.525  10.796 -0.2526  2.1220  3.6584
  784TIP3   OH223842   2.619   1.057  13.564 -0.6438 -0.0166  0.4518
  784TIP3    H123843   2.605   1.149  13.587  0.1546  0.8169 -2.2789
  784TIP3    H223844   2.533   1.025  13.538 -0.5710  0.5260 -0.4828
  785TIP3   OH223845   2.534   0.202  14.462  0.1635 -0.2195 -0.3078
  785TIP3    H123846   2.492   0.118  14.482  1.8117 -0.9979 -0.0064
  785TIP3    H223847   2.627   0.187  14.480  0.6749  1.2566 -1.6270
  786TIP3   OH223848   2.530   5.493  15.271  0.5884  0.2660  0.0349
  786TIP3    H123849   2.568   5.578  15.296 -0.0283  0.9632 -1.3350
  786TIP3    H223850   2.601   5.448  15.226  0.5307  0.5828 -0.3753
  787TIP3   OH223851   1.217   2.924   6.040  0.2921  0.1234 -0.1240
  787TIP3    H123852   1.269   2.990   6.086  0.4421  0.3575 -0.6311
  787TIP3    H223853   1.259   2.915   5.955 -1.3613  1.3895 -1.1027
  788TIP3   OH223854   2.713   0.942   5.374  0.0293 -0.4489  0.1606
  788TIP3    H123855   2.750   0.945   5.286  1.8276 -2.4276  0.7924
  788TIP3    H223856   2.760   0.870   5.417  0.0377  1.2164  3.1084
  789TIP3   OH223857   5.436   1.226   0.798 -0.5876 -0.5020 -1.0794
  789TIP3    H123858   5.362   1.285   0.816 -0.9704 -1.0210 -0.9313
  789TIP3    H223859   5.395   1.142   0.781 -0.0789 -0.5537 -2.0359
  790TIP3   OH223860   3.749   5.730  16.708  0.6597  0.3442 -0.0754
  790TIP3    H123861   3.718   5.746  16.619  2.9174  1.6570 -0.6585
  790TIP3    H223862   3.695   5.787  16.762  0.1777  0.5318 -0.7403
  791TIP3   OH223863   1.947   5.399   2.220  0.2725 -0.3834  0.4399
  791TIP3    H123864   1.857   5.377   2.240  0.2991 -0.8342  0.0743
  791TIP3    H223865   1.973   5.336   2.152 -0.3703  2.1621 -2.3029
  792TIP3   OH223866   5.953   5.196  17.265 -0.1702  0.4028 -0.4403
  792TIP3    H123867   5.938   5.106  17.235 -1.4558  1.0934 -1.9402
  792TIP3    H223868   5.894   5.207  17.339 -1.2722  0.5620 -1.3395
  793TIP3   OH223869   2.270   1.887   5.280  0.7486  0.2896 -0.1080
  793TIP3    H123870   2.277   1.983   5.275 -0.3491  0.3712 -0.2462
  793TIP3    H223871   2.189   1.872   5.329  0.6537 -0.5689 -0.5268
  794TIP3   OH223872   0.618   5.860   0.805 -0.1631  0.0029 -0.3863
  794TIP3    H123873   0.578   5.832   0.887  1.8113 -0.5151  0.4224
  794TIP3    H223874   0.553   5.837   0.738 -1.7740  0.3937  0.9995
  795TIP3   OH223875   2.803   4.008   4.484  0.0659 -0.0937 -0.2023
  795TIP3    H123876   2.822   4.069   4.412 -0.6398  0.6905  0.2619
  795TIP3    H223877   2.740   3.946   4.446  1.1540 -0.8461 -0.8204
  796TIP3   OH223878   6.174   6.239  16.786 -0.9154  0.5343  0.0587
  796TIP3    H123879   6.159   6.242  16.881  1.4488  1.9486  0.4137
  796TIP3    H223880   6.230   6.163  16.773 -0.2528  1.0450 -0.0616
  797TIP3   OH223881   6.285   6.534  16.128  0.1611 -0.7090  0.2637
  797TIP3    H123882   6.215   6.573  16.075  0.7237 -0.9468 -0.6563
  797TIP3    H223883   6.278   6.440  16.113 -0.2761 -0.8703  1.3683
  798TIP3   OH223884   2.099   0.017   2.293  0.2379  0.0747  0.3759
  798TIP3    H123885   2.141  -0.069   2.305  0.0741 -0.2395 -1.2464
  798TIP3    H223886   2.171   0.075   2.268 -0.3788 -0.6430 -3.2193
  799TIP3   OH223887   0.598   6.149   2.465 -0.5139 -0.0017 -0.2549
  799TIP3    H123888   0.546   6.102   2.530 -0.3083  2.0973  1.4966
  799TIP3    H223889   0.533   6.185   2.404 -0.9340  0.2681  0.3430
  800TIP3   OH223890   6.477   2.977   1.506 -0.2289  0.0079  0.6611
  800TIP3    H123891   6.452   3.065   1.478 -0.3440 -0.3014 -0.2275
  800TIP3    H223892   6.404   2.921   1.480  1.0633 -0.7975 -1.4058
  801TIP3   OH223893   5.381   4.881  16.932  0.1247 -0.2003  0.6877
  801TIP3    H123894   5.378   4.813  16.865 -0.4421  0.8116 -0.3378
  801TIP3    H223895   5.335   4.955  16.893  0.3682  0.6339  1.9444
  802TIP3   OH223896   0.110   0.662   0.161 -0.1574  0.7479 -0.6580
  802TIP3    H123897   0.056   0.635   0.236  1.9419 -0.4663  0.4907
  802TIP3    H223898   0.155   0.741   0.191  0.2589  0.5772 -0.8173
  803TIP3   OH223899   1.110   5.082   4.464  0.4851  0.0590  0.3727
  803TIP3    H123900   1.187   5.087   4.408 -1.2034  2.2066 -1.8692
  803TIP3    H223901   1.044   5.037   4.411 -0.4520  0.0676  1.4930
  804TIP3   OH223902   6.169   4.756  11.947 -0.2520 -0.5787 -0.1806
  804TIP3    H123903   6.213   4.786  11.867 -1.7595 -1.3889 -1.3441
  804TIP3    H223904   6.238   4.755  12.014  0.7771  1.2386 -1.1723
  805TIP3   OH223905   4.678   1.976  16.786  0.2856  0.1934  0.6782
  805TIP3    H123906   4.733   1.898  16.776  1.1638  0.8716  0.0932
  805TIP3    H223907   4.589   1.946  16.767  0.7302 -0.5007 -0.3793
  806TIP3   OH223908   0.962   3.253   5.324 -0.3163  0.0574 -0.0265
  806TIP3    H123909   0.991   3.337   5.288  0.9245 -0.2471  0.2376
  806TIP3    H223910   0.880   3.274   5.368 -0.0698  1.1309 -0.0430
  807TIP3   OH223911   4.505   4.092  17.004  0.1689 -0.4700 -0.6386
  807TIP3    H123912   4.533   4.183  16.994  0.9732 -0.5321  0.8405
  807TIP3    H223913   4.428   4.096  17.061  0.5042 -0.7374 -0.1571
  808TIP3   OH223914   4.601   2.237  14.630 -0.2770  0.8077  0.3234
  808TIP3    H123915   4.567   2.184  14.702 -0.5802  1.2629  0.5190
  808TIP3    H223916   4.595   2.327  14.662  1.2226  0.8967  0.3986
  809TIP3   OH223917   1.598   3.594  11.740 -0.6023 -0.1071 -0.0327
  809TIP3    H123918   1.644   3.517  11.708 -1.1565 -0.4117 -0.1129
  809TIP3    H223919   1.536   3.559  11.804 -0.5265  0.3257  0.2774
  810TIP3   OH223920   4.159   4.050   3.748 -0.0855  0.4136  0.0493
  810TIP3    H123921   4.172   3.983   3.681  0.5327  0.2868  0.2897
  810TIP3    H223922   4.247   4.078   3.771 -0.3594  1.7009 -0.4347
  811TIP3   OH223923   5.670   1.740   3.663  0.1808 -0.4497  0.3850
  811TIP3    H123924   5.576   1.722   3.654  0.0978  0.9094 -1.9603
  811TIP3    H223925   5.680   1.829   3.629  2.4261 -0.8816 -0.1366
  812TIP3   OH223926   3.474   4.115  12.876  0.2256 -0.3633 -0.0730
  812TIP3    H123927   3.409   4.184  12.893 -0.1814 -0.2952 -1.8083
  812TIP3    H223928   3.423   4.043  12.840  0.8257 -1.1354  0.6135
  813TIP3   OH223929   0.171   2.395  17.120 -0.1725 -0.2174 -0.4070
  813TIP3    H123930   0.215   2.369  17.039  0.2351 -0.7423 -0.0197
  813TIP3    H223931   0.109   2.463  17.093 -0.1567 -0.5072 -1.1873
  814TIP3   OH223932   4.340   4.550  14.683  0.0498  0.2746 -0.7008
  814TIP3    H123933   4.357   4.515  14.595  2.0775  0.7556 -0.5252
  814TIP3    H223934   4.404   4.621  14.693  2.0603 -1.8370  2.3876
  815TIP3   OH223935   3.545   5.451   1.379  0.4646  0.1280 -0.4310
  815TIP3    H123936   3.622   5.395   1.384 -1.4007 -2.3487  1.8834
  815TIP3    H223937   3.561   5.520   1.444  0.4731 -0.7360  0.4936
  816TIP3   OH223938   4.800   2.155  16.973  0.0834 -0.0481  0.1037
  816TIP3    H123939   4.737   2.178  17.041  0.1330  1.3503 -0.3133
  816TIP3    H223940   4.765   2.075  16.934 -0.0552 -0.7499  1.6182
  817TIP3   OH223941   5.277   5.128   4.824  0.2375  0.3159 -0.4648
  817TIP3    H123942   5.270   5.036   4.797  1.0024  0.1633 -0.1696
  817TIP3    H223943   5.244   5.129   4.914 -0.2154  0.4193 -0.6310
  818TIP3   OH223944   2.471   4.376   3.421 -0.0783 -0.4409 -0.0037
  818TIP3    H123945   2.510   4.446   3.474  0.0322  0.1284 -0.8202
  818TIP3    H223946   2.511   4.296   3.454 -0.3718 -0.1516  1.0965
  819TIP3   OH223947   6.722   0.744   4.097  0.3098 -0.1896  0.0568
  819TIP3    H123948   6.743   0.811   4.162 -2.5088 -1.0402  1.8989
  819TIP3    H223949   6.697   0.794   4.019 -1.0319  0.9036  1.1745
  820TIP3   OH223950   3.471   1.002  12.021  0.0257 -0.6385  0.2791
  820TIP3    H123951   3.411   1.063  11.976  2.9097  1.3801 -1.0392
  820TIP3    H223952   3.496   1.048  12.101 -0.5101 -1.6735  1.0538
  821TIP3   OH223953   4.234   0.542  13.157  0.4010 -0.0572 -0.4404
  821TIP3    H123954   4.240   0.618  13.216 -0.4597 -0.1320 -0.2386
  821TIP3    H223955   4.142   0.516  13.162  0.6945 -1.1250 -0.4960
  822TIP3   OH223956   6.325   5.597   3.173 -0.9191 -0.3572 -0.2357
  822TIP3    H123957   6.398   5.630   3.120 -0.9562 -3.4975 -2.4212
  822TIP3    H223958   6.368   5.558   3.250 -0.3505 -1.1230 -0.9254
  823TIP3   OH223959   3.256   5.607  17.195  0.7086  0.2301  0.1094
  823TIP3    H123960   3.200   5.683  17.181 -0.8830 -0.7114  1.1622
  823TIP3    H223961   3.324   5.637  17.255 -0.9411  0.3709  1.9516
  824TIP3   OH223962   2.832   3.928  11.135 -0.0051 -0.1551  0.1897
  824TIP3    H123963   2.783   3.895  11.210 -0.2760  0.7982  0.4462
  824TIP3    H223964   2.908   3.871  11.129 -0.0062 -0.2761  1.1675
  825TIP3   OH223965   2.651   3.172  16.047  0.5332 -0.8891  0.6079
  825TIP3    H123966   2.611   3.085  16.043 -3.1970  0.7310  0.6425
  825TIP3    H223967   2.679   3.182  16.138  0.0258 -1.6599  0.8485
  826TIP3   OH223968   0.929   5.301  13.081  0.1856  0.2031 -0.2699
  826TIP3    H123969   0.939   5.258  13.165  0.5376  0.8250  0.0101
  826TIP3    H223970   1.017   5.299  13.042  0.1766  0.5327 -0.3165
  827TIP3   OH223971   1.885   6.573  13.749  0.0731  0.0971  0.0533
  827TIP3    H123972   1.882   6.605  13.658  0.1576 -1.4995 -0.5347
  827TIP3    H223973   1.806   6.520  13.758  1.0165 -1.2873  0.3123
  828TIP3   OH223974   3.630   1.390  13.883 -0.1110  0.5233 -0.4919
  828TIP3    H123975   3.577   1.343  13.818 -2.0329  0.2790  1.1873
  828TIP3    H223976   3.677   1.321  13.929 -0.6503  0.4786 -0.0013
  829TIP3   OH223977   6.050   5.020   3.421  0.0982 -0.0581 -0.1753
  829TIP3    H123978   6.121   5.056   3.475  1.1256 -2.3087  0.0371
  829TIP3    H223979   6.086   5.018   3.332  0.0061 -0.4069 -0.2072
  830TIP3   OH223980   1.090   5.354  14.727  0.0066 -0.2542 -0.2121
  830TIP3    H123981   1.124   5.268  14.750 -1.4262 -0.6054  0.6375
  830TIP3    H223982   1.141   5.415  14.781  0.0008 -0.6764  0.2638
  831TIP3   OH223983   5.825   2.779   2.498  0.2338  0.0524  0.3302
  831TIP3    H123984   5.846   2.787   2.405 -1.0737  0.8827  0.0879
  831TIP3    H223985   5.841   2.687   2.519  0.2061 -0.2151 -0.8081
  832TIP3   OH223986   5.871   5.782   3.620  0.0527  0.1237 -0.4056
  832TIP3    H123987   5.871   5.708   3.559 -0.4317 -0.6905  0.5473
  832TIP3    H223988   5.796   5.835   3.593 -0.8650 -0.8422  0.1632
  833TIP3   OH223989   1.236   0.426  14.224  0.5684  0.2492  0.1633
  833TIP3    H123990   1.313   0.412  14.278  1.6122  0.4256 -1.2438
  833TIP3    H223991   1.270   0.466  14.143 -1.0809  1.1096 -0.1403
  834TIP3   OH223992   0.771   1.354  13.195  0.0402  0.1023 -0.7732
  834TIP3    H123993   0.866   1.341  13.194  0.8529  4.5250  1.6589
  834TIP3    H223994   0.749   1.355  13.288 -1.9489  1.4259 -1.2293
  835TIP3   OH223995   3.357   0.180   5.063 -0.6098 -0.4191  0.4261
  835TIP3    H123996   3.440   0.213   5.028 -1.5589  0.1347 -1.3866
  835TIP3    H223997   3.381   0.102   5.112  0.9270 -0.5719 -0.5278
  836TIP3   OH223998   3.606   0.252  10.837 -0.0730  1.0645  0.0962
  836TIP3    H123999   3.544   0.288  10.900  0.5483  0.0815  1.2945
  836TIP3    H224000   3.609   0.158  10.857  1.0738  0.9491 -0.5753
  837TIP3   OH224001   3.659   6.705   5.304  0.0142  0.0243  0.1130
  837TIP3    H124002   3.564   6.722   5.302 -0.3254 -1.6635  0.6023
  837TIP3    H224003   3.683   6.695   5.212 -0.4032 -0.0636  0.0081
  838TIP3   OH224004   4.865   6.277   0.227  0.0654  0.0506  0.2449
  838TIP3    H124005   4.908   6.233   0.300 -0.0576 -0.1722  0.1842
  838TIP3    H224006   4.931   6.280   0.158 -0.5832 -1.9926 -0.5241
  839TIP3   OH224007   5.058   0.401   6.388  0.0655 -0.1009 -0.5429
  839TIP3    H124008   5.096   0.485   6.414 -0.8078  0.4272 -0.9577
  839TIP3    H224009   5.057   0.350   6.468 -1.4441  1.0682  0.2062
  840TIP3   OH224010   5.942   0.004   6.070  0.3354 -0.5241  0.2810
  840TIP3    H124011   5.977  -0.060   6.132  1.4019  0.6419  0.8969
  840TIP3    H224012   5.967  -0.030   5.984  2.6721  0.0907  0.6926
  841TIP3   OH224013   0.004   3.729   2.525  0.3477  0.1501 -0.4075
  841TIP3    H124014   0.049   3.678   2.458  3.6791  0.4217  1.5021
  841TIP3    H224015  -0.035   3.664   2.583  0.6247 -0.1330 -0.5389
  842TIP3   OH224016   2.915   5.072   2.474 -0.3649 -1.0670  0.1355
  842TIP3    H124017   2.910   5.015   2.397 -0.4982 -1.8041  0.6907
  842TIP3    H224018   2.933   5.159   2.437 -1.2662 -1.2603 -0.7870
  843TIP3   OH224019   1.876   2.581   3.322 -0.0415  0.7608 -0.3409
  843TIP3    H124020   1.951   2.585   3.381  0.5724  1.8775 -1.1630
  843TIP3    H224021   1.807   2.539   3.373  0.5671  1.4259  1.0566
  844TIP3   OH224022   6.529   1.320   6.192 -0.1125  0.0735 -0.9208
  844TIP3    H124023   6.523   1.226   6.211  1.0969  0.7567  3.1498
  844TIP3    H224024   6.623   1.336   6.184 -0.3134  0.9813 -1.5430
  845TIP3   OH224025   6.616   4.304   1.267 -0.3268  0.4091  0.1267
  845TIP3    H124026   6.623   4.325   1.360 -1.2107  0.3523  0.2123
  845TIP3    H224027   6.704   4.277   1.242 -0.4378 -1.0773  1.3028
  846TIP3   OH224028   1.069   0.513  14.458 -0.4992  0.2852 -0.1959
  846TIP3    H124029   0.984   0.552  14.439  0.5270  2.1618 -0.9968
  846TIP3    H224030   1.117   0.517  14.375 -0.0718 -1.9852 -0.1097
  847TIP3   OH224031   2.535   4.068  13.100  0.5499 -0.2135 -0.2570
  847TIP3    H124032   2.606   4.129  13.078 -1.0463  1.1962 -1.7523
  847TIP3    H224033   2.572   3.981  13.085  2.5393  0.4282  0.8209
  848TIP3   OH224034   0.693   6.736  12.475  0.0541  0.0577 -0.1129
  848TIP3    H124035   0.620   6.752  12.534  0.4671  1.8974 -0.0603
  848TIP3    H224036   0.754   6.682  12.525 -1.1062 -1.2154 -0.0500
  849TIP3   OH224037   2.471   4.793   3.962  0.4949  0.0470  0.0837
  849TIP3    H124038   2.487   4.718   4.020  0.8065  1.3203  1.6827
  849TIP3    H224039   2.376   4.793   3.950 -0.0275  1.8202  3.5044
  850TIP3   OH224040   6.032   6.565  13.870 -0.4159  0.3441  0.3951
  850TIP3    H124041   5.968   6.633  13.887  0.7189  1.8933 -1.3867
  850TIP3    H224042   6.084   6.598  13.797  1.0391 -1.8197  0.3988
  851TIP3   OH224043   1.794   0.996  14.072 -0.5054 -0.0094 -0.3895
  851TIP3    H124044   1.791   0.902  14.058 -2.2887 -0.0110 -0.1764
  851TIP3    H224045   1.817   1.006  14.165 -0.4685 -0.2311 -0.3751
  852TIP3   OH224046   6.060   6.093  16.002 -0.6572  0.0281 -0.0653
  852TIP3    H124047   6.066   6.001  15.975 -0.2779 -0.2697  1.0150
  852TIP3    H224048   5.966   6.108  16.012 -0.7210 -0.2490 -0.2465
  853TIP3   OH224049   6.482   5.122   1.972  0.3120  0.0507 -0.0210
  853TIP3    H124050   6.488   5.071   2.053 -0.1953 -1.8486 -1.1362
  853TIP3    H224051   6.420   5.073   1.918 -0.0325  1.7824 -1.2039
  854TIP3   OH224052   0.916   1.894   4.312 -0.0208  0.7410  0.2358
  854TIP3    H124053   0.905   1.882   4.407 -1.4608 -2.1760 -0.2376
  854TIP3    H224054   0.847   1.956   4.288 -0.7970  0.1476  0.8712
  855TIP3   OH224055   0.372   4.674   4.815 -0.5893  0.6401  0.1496
  855TIP3    H124056   0.291   4.657   4.767 -0.8029 -0.1599  0.7820
  855TIP3    H224057   0.344   4.703   4.902 -0.2037  0.5611  0.3044
  856TIP3   OH224058   1.818   5.485  11.848  0.5250 -0.0171  0.0262
  856TIP3    H124059   1.894   5.541  11.863  0.0412  0.9116 -0.8937
  856TIP3    H224060   1.768   5.489  11.929  0.0641  1.5762 -0.3180
  857TIP3   OH224061   4.997   6.798  13.251  0.2210  0.4025  0.3798
  857TIP3    H124062   5.005   6.732  13.320 -1.3381  0.1501  0.3439
  857TIP3    H224063   4.915   6.843  13.271 -1.2973 -0.9843 -2.3806
  858TIP3   OH224064   0.125   0.240  16.508 -0.1629 -0.1223 -0.1732
  858TIP3    H124065   0.112   0.149  16.533 -2.3239  0.5508  1.2820
  858TIP3    H224066   0.037   0.273  16.491  0.7287  1.2899 -2.2012
  859TIP3   OH224067   0.478   3.452  15.239 -0.4992 -0.1075 -0.9034
  859TIP3    H124068   0.393   3.430  15.200 -0.1818  2.2144 -3.0513
  859TIP3    H224069   0.542   3.419  15.176  0.1606 -0.8062  0.1312
  860TIP3   OH224070   3.586   0.255  11.239 -0.1143 -0.5719  0.0394
  860TIP3    H124071   3.532   0.179  11.260 -3.3054  1.9301  1.4274
  860TIP3    H224072   3.533   0.305  11.177  0.5005  2.0353  1.5226
  861TIP3   OH224073   5.126   5.412   6.365 -0.4603  0.2303 -0.2456
  861TIP3    H124074   5.068   5.414   6.290 -1.8664  1.1625  0.8435
  861TIP3    H224075   5.182   5.490   6.355 -0.2583  0.0338 -0.6277
  862TIP3   OH224076   4.628   4.199  13.314 -0.1378 -0.1507  0.1132
  862TIP3    H124077   4.608   4.229  13.225 -0.5194  0.7812  0.5074
  862TIP3    H224078   4.622   4.278  13.368  1.4861 -0.4487  0.7507
  863TIP3   OH224079   3.382   6.311  11.434  0.3931 -0.3531  0.6655
  863TIP3    H124080   3.402   6.321  11.340  1.7928  0.9692  1.0810
  863TIP3    H224081   3.394   6.398  11.470 -1.5837 -0.5530  1.8441
  864TIP3   OH224082   2.330   3.318  15.809  0.1085  0.4504 -0.0017
  864TIP3    H124083   2.425   3.318  15.792  0.1623  3.3007 -0.0312
  864TIP3    H224084   2.303   3.408  15.790 -2.9446 -0.7628 -1.7268
  865TIP3   OH224085   4.664   2.215  12.595 -0.3956  0.4750  0.2664
  865TIP3    H124086   4.583   2.265  12.589 -0.8260  0.1653  2.9070
  865TIP3    H224087   4.680   2.208  12.689  1.8033 -0.9058 -0.1936
  866TIP3   OH224088   1.255   5.479   0.221  0.9421 -0.1498 -0.2538
  866TIP3    H124089   1.274   5.553   0.279  0.3980 -0.7628  0.7185
  866TIP3    H224090   1.335   5.468   0.169  1.7945 -0.2221  1.0643
  867TIP3   OH224091   6.076   1.475  14.235  0.0121 -0.3253  0.1978
  867TIP3    H124092   6.037   1.388  14.236  1.9460 -1.1936  2.3601
  867TIP3    H224093   6.052   1.513  14.320  0.8885  0.4975  0.0867
  868TIP3   OH224094   2.581   1.160  14.139 -0.0545  0.0741 -0.0709
  868TIP3    H124095   2.559   1.069  14.116 -0.7521 -0.2543  1.8591
  868TIP3    H224096   2.507   1.211  14.108 -0.8380 -0.3250  1.1268
  869TIP3   OH224097   1.601   5.838  13.923  0.4056  0.5885  0.4855
  869TIP3    H124098   1.630   5.908  13.864 -1.5363  1.3327  0.3918
  869TIP3    H224099   1.676   5.823  13.980  2.2211  0.0901 -1.9281
  870TIP3   OH224100   6.234   4.362   4.905 -0.6263 -0.0197 -0.5189
  870TIP3    H124101   6.273   4.280   4.874  1.4280  1.3300 -1.6318
  870TIP3    H224102   6.182   4.336   4.981  1.8941 -2.0148  0.6097
  871TIP3   OH224103   4.603   6.040   5.759 -0.1237  0.6469  0.2560
  871TIP3    H124104   4.586   6.115   5.817 -1.0168  1.8933 -1.5636
  871TIP3    H224105   4.545   6.054   5.685  2.4205  0.1359 -1.9030
  872TIP3   OH224106   0.003   5.311  14.307  0.3360 -0.0741  0.5305
  872TIP3    H124107  -0.076   5.304  14.360 -0.4105 -1.3337 -0.7049
  872TIP3    H224108   0.029   5.220  14.290  3.1013  0.2978  2.4283
  873TIP3   OH224109   6.727   0.391   3.664  0.0388 -0.2700  0.4441
  873TIP3    H124110   6.786   0.428   3.598  2.7693  0.3160  3.1556
  873TIP3    H224111   6.639   0.412   3.630  1.3240 -0.4218 -3.2267
  874TIP3   OH224112   3.862   4.612  13.507 -0.3289 -0.3817 -0.5731
  874TIP3    H124113   3.804   4.655  13.570  2.0147 -0.0902  1.4464
  874TIP3    H224114   3.837   4.519  13.511 -1.0543 -0.1697 -0.1609
  875TIP3   OH224115   5.786   5.049  15.234 -0.6382 -0.3714 -0.2163
  875TIP3    H124116   5.778   4.962  15.197  1.7551 -0.3442 -0.8888
  875TIP3    H224117   5.877   5.055  15.263 -0.9499  1.6419  0.4695
  876TIP3   OH224118   4.081   2.787  11.273  1.1022 -0.2218 -0.1348
  876TIP3    H124119   4.011   2.820  11.329  2.5824 -0.5756  2.0179
  876TIP3    H224120   4.060   2.695  11.259  1.4358 -0.4866  1.0310
  877TIP3   OH224121   6.798   5.316  13.014  0.5649 -0.1420 -0.0329
  877TIP3    H124122   6.778   5.384  13.079  0.5946 -0.7226  0.5950
  877TIP3    H224123   6.890   5.294  13.030  0.0065 -1.7377  1.1085
  878TIP3   OH224124   5.342   1.942  16.032  0.0174 -0.2728 -0.2724
  878TIP3    H124125   5.301   1.882  16.095 -1.0165  1.4904  0.7899
  878TIP3    H224126   5.272   1.965  15.972 -0.6093  2.6565  1.4683
  879TIP3   OH224127   5.260   0.582  14.345 -0.0739  0.1875  0.7431
  879TIP3    H124128   5.195   0.517  14.318 -0.5305  0.1637  1.8519
  879TIP3    H224129   5.298   0.614  14.264 -0.3157 -0.9948  0.1604
  880TIP3   OH224130   5.205   0.106   3.583  0.3679 -0.1969 -0.2760
  880TIP3    H124131   5.137   0.162   3.620  0.8407 -0.1889  0.5831
  880TIP3    H224132   5.278   0.113   3.644  0.8535 -0.8330 -0.7777
  881TIP3   OH224133   5.705   3.458  13.460  0.3368 -0.0806 -0.1626
  881TIP3    H124134   5.756   3.494  13.532 -0.4458  2.6427 -0.9035
  881TIP3    H224135   5.750   3.377  13.436  1.5550 -0.1463  2.2652
  882TIP3   OH224136   2.286   0.011  13.899  0.0742  0.0710 -0.3247
  882TIP3    H124137   2.198  -0.027  13.911 -0.4044  0.9172 -1.0886
  882TIP3    H224138   2.331  -0.006  13.982 -0.3671 -1.5498 -0.3979
  883TIP3   OH224139   2.841   5.055  13.294 -0.3196 -0.6825  0.1801
  883TIP3    H124140   2.807   4.974  13.256 -0.1536 -0.3764 -0.6127
  883TIP3    H224141   2.859   5.032  13.385  0.7946 -1.8606 -0.3239
  884TIP3   OH224142   0.276   5.396  16.511 -0.0890 -0.0596 -0.0882
  884TIP3    H124143   0.251   5.449  16.435  0.4752 -0.2407 -0.3984
  884TIP3    H224144   0.368   5.419  16.527 -0.4781  0.6793  1.1132
  885TIP3   OH224145   1.147   1.647   1.929  0.0802 -0.0697  0.2187
  885TIP3    H124146   1.054   1.655   1.949 -0.2191  1.5600 -1.6784
  885TIP3    H224147   1.151   1.622   1.837  1.5166 -0.5645  0.3906
  886TIP3   OH224148   4.679   0.861   5.060 -0.2316 -0.3547  0.6272
  886TIP3    H124149   4.697   0.772   5.031 -1.3007 -0.6568  0.8629
  886TIP3    H224150   4.691   0.915   4.981 -1.1026 -0.9073  0.1029
  887TIP3   OH224151   1.078   2.304   1.101 -0.3037 -0.4030  0.0695
  887TIP3    H124152   1.000   2.276   1.053 -0.0509  0.0426 -0.6172
  887TIP3    H224153   1.058   2.393   1.130 -0.1258 -0.3608  0.0632
  888TIP3   OH224154   5.255   3.469   0.760 -0.1726  0.0249  0.0151
  888TIP3    H124155   5.202   3.546   0.779 -2.2030 -1.4729  0.5942
  888TIP3    H224156   5.209   3.396   0.802  1.8367 -1.4844 -0.2787
  889TIP3   OH224157   4.509   3.834  13.759  0.3238  0.1135 -0.1719
  889TIP3    H124158   4.574   3.816  13.826 -1.7735  0.3733  2.0164
  889TIP3    H224159   4.547   3.904  13.705  1.7610  0.3560  1.1445
  890TIP3   OH224160   0.980   2.612  13.605 -0.7728 -0.3318  0.3792
  890TIP3    H124161   1.056   2.581  13.654 -0.9211 -0.0571  0.7785
  890TIP3    H224162   0.911   2.624  13.670 -1.1045 -0.3919  0.0458
  891TIP3   OH224163   4.661   5.258   1.997  0.8109 -0.6780  0.2176
  891TIP3    H124164   4.752   5.243   2.023  0.3840 -1.3090  1.3742
  891TIP3    H224165   4.645   5.350   2.016  2.2198  0.3107 -3.1326
  892TIP3   OH224166   0.860   4.679   4.529 -0.6815 -0.1749  0.2667
  892TIP3    H124167   0.942   4.695   4.575 -0.8164 -1.1802  0.8688
  892TIP3    H224168   0.849   4.584   4.531 -1.5820 -0.0900 -0.2917
  893TIP3   OH224169   2.032   1.759   4.082 -0.1296  0.0706  0.1010
  893TIP3    H124170   2.071   1.808   4.010  1.0608  0.2292  0.8344
  893TIP3    H224171   2.076   1.674   4.079 -0.3651 -0.0601  0.3821
  894TIP3   OH224172   3.064   5.330   4.258 -0.0631  0.3366  0.0581
  894TIP3    H124173   3.145   5.352   4.213 -0.6644  0.0306 -1.1827
  894TIP3    H224174   3.061   5.234   4.256 -1.0456  0.3823 -0.9643
  895TIP3   OH224175   3.140   5.279   1.744 -0.2072 -0.4460 -0.2151
  895TIP3    H124176   3.116   5.367   1.716 -0.6527 -1.6191 -3.7988
  895TIP3    H224177   3.071   5.253   1.805 -0.4393  1.3893  0.3398
  896TIP3   OH224178   2.101   4.619   6.177 -0.0064  0.0645  0.1570
  896TIP3    H124179   2.176   4.570   6.142 -1.0676 -3.1418  2.1481
  896TIP3    H224180   2.118   4.622   6.271  0.6697  4.7974  0.0080
  897TIP3   OH224181   0.125   6.477  12.466  0.0232 -0.4035  0.0707
  897TIP3    H124182   0.109   6.391  12.428  0.9392 -0.2908 -0.5740
  897TIP3    H224183   0.201   6.465  12.523  0.0995 -0.0344  0.0470
  898TIP3   OH224184   3.109   3.712   5.674 -0.2212 -0.3560 -0.4437
  898TIP3    H124185   3.203   3.693   5.680 -0.3124 -0.4005  1.0142
  898TIP3    H224186   3.087   3.751   5.759 -1.3827  0.2794 -1.0270
  899TIP3   OH224187   5.357   2.207  15.479  0.4184 -0.3882  0.2896
  899TIP3    H124188   5.307   2.251  15.548  3.6028  0.8214  1.9322
  899TIP3    H224189   5.399   2.133  15.523  0.3697 -1.1887 -0.9748
  900TIP3   OH224190   5.999   5.172   1.872 -0.2537 -0.2617  0.2620
  900TIP3    H124191   5.980   5.090   1.827 -1.0598 -0.0690  0.2444
  900TIP3    H224192   6.049   5.224   1.809  0.0420 -0.6428  0.1836
  901TIP3   OH224193   5.773   6.153  16.079  0.0234 -0.0357 -0.7483
  901TIP3    H124194   5.836   6.217  16.111 -1.0294  1.0988 -0.8955
  901TIP3    H224195   5.759   6.095  16.154 -0.2412  0.8932 -0.0616
  902TIP3   OH224196   4.890   0.313  11.391  0.6409 -0.0271 -0.6801
  902TIP3    H124197   4.928   0.366  11.322  1.6073  0.0749 -0.0843
  902TIP3    H224198   4.820   0.368  11.428  0.2342 -0.0200 -1.4551
  903TIP3   OH224199   3.788   3.937  11.048  0.0406 -0.2357  0.3778
  903TIP3    H124200   3.756   3.959  11.136  2.2589 -0.8050  1.3671
  903TIP3    H224201   3.710   3.938  10.993 -1.2923  0.7785  2.2332
  904TIP3   OH224202   3.909   6.041  12.282  0.5385  0.1844  0.6304
  904TIP3    H124203   3.925   5.974  12.216 -1.5537  0.0129  0.2369
  904TIP3    H224204   3.828   6.084  12.253  2.0934  3.1912  0.6296
  905TIP3   OH224205   2.480   2.744   3.430 -0.6105 -0.1628 -0.2091
  905TIP3    H124206   2.429   2.799   3.372 -0.9528  0.0786  0.3198
  905TIP3    H224207   2.538   2.804   3.477 -1.4634 -0.1664  0.8635
  906TIP3   OH224208   0.445   3.288   5.184  0.3031 -0.2270 -0.5736
  906TIP3    H124209   0.509   3.350   5.150  1.0982 -1.2474 -0.9850
  906TIP3    H224210   0.418   3.237   5.107  0.9900 -1.5532  0.0444
  907TIP3   OH224211   0.008   6.423  17.161 -0.5273 -0.1540 -0.4177
  907TIP3    H124212   0.018   6.406  17.067 -0.4149  1.2293 -0.6739
  907TIP3    H224213  -0.017   6.339  17.198  0.6792 -1.0151 -1.4925
  908TIP3   OH224214   5.084   3.322   6.121  0.6160 -0.4657 -0.2914
  908TIP3    H124215   5.106   3.229   6.125 -0.7634 -0.7498  0.9342
  908TIP3    H224216   4.993   3.327   6.150  1.0404  1.4004  0.7715
  909TIP3   OH224217   6.090   3.523   1.684 -0.0341 -0.3121  0.3074
  909TIP3    H124218   6.058   3.480   1.763 -0.8959  0.5984  0.4665
  909TIP3    H224219   6.183   3.541   1.701  0.1224 -1.3466  0.5625
  910TIP3   OH224220   2.219   2.789   3.687 -0.4388  0.2726 -0.3030
  910TIP3    H124221   2.290   2.851   3.700 -1.4915  1.5825 -0.7139
  910TIP3    H224222   2.261   2.713   3.647  1.2521 -0.2115  2.2193
  911TIP3   OH224223   4.206   0.280  17.246 -0.1898  0.3768 -0.2771
  911TIP3    H124224   4.234   0.353  17.301  0.8481 -0.6016  0.5129
  911TIP3    H224225   4.110   0.278  17.256 -0.0337  0.3463  1.3377
  912TIP3   OH224226   6.000   4.438  16.445 -0.2335 -1.0242  0.2787
  912TIP3    H124227   5.982   4.357  16.398 -2.1965  0.3547 -1.4259
  912TIP3    H224228   5.945   4.504  16.402  1.6462  1.3108  1.3150
  913TIP3   OH224229   1.813   2.226  14.762  0.1156 -0.0070 -0.1848
  913TIP3    H124230   1.729   2.271  14.762  1.2721  2.2692  1.5215
  913TIP3    H224231   1.819   2.188  14.850  2.3029  2.7662  0.9396
  914TIP3   OH224232   1.813   4.588  13.824 -0.1994 -0.3767  0.8793
  914TIP3    H124233   1.837   4.576  13.732  0.8992 -1.5676  1.3007
  914TIP3    H224234   1.734   4.535  13.836 -0.1402 -0.5053  0.7026
  915TIP3   OH224235   0.581   1.636  16.794 -0.0730 -0.1990  0.6806
  915TIP3    H124236   0.599   1.556  16.843 -0.1305  0.8763  2.5078
  915TIP3    H224237   0.498   1.668  16.831  1.3170  2.1352  1.9116
  916TIP3   OH224238   6.203   1.189  12.822  0.4708  0.1203  0.3044
  916TIP3    H124239   6.223   1.141  12.902 -0.1609  0.3492  0.6049
  916TIP3    H224240   6.111   1.166  12.803  0.4908  0.3896 -0.1234
  917TIP3   OH224241   2.836   3.474  16.179 -0.0257 -0.6516 -0.1800
  917TIP3    H124242   2.831   3.414  16.254  0.1830  0.3949  0.6875
  917TIP3    H224243   2.928   3.500  16.175  0.0971 -1.2150 -1.2226
  918TIP3   OH224244   3.359   5.423   4.852 -0.8017 -0.0990  0.2261
  918TIP3    H124245   3.380   5.504   4.898  3.9197 -0.4737 -0.9625
  918TIP3    H224246   3.364   5.355   4.919  2.6428 -0.2295 -0.0856
  919TIP3   OH224247   3.646   1.258   1.319  0.2782 -0.5042 -0.0691
  919TIP3    H124248   3.625   1.181   1.266 -2.0905 -0.3274  0.5469
  919TIP3    H224249   3.561   1.288   1.351  1.0676  2.9116 -1.0415
  920TIP3   OH224250   3.446   6.421   0.732  0.0326  0.7173 -0.1226
  920TIP3    H124251   3.385   6.438   0.660 -0.5995 -0.4075  0.1319
  920TIP3    H224252   3.392   6.423   0.811  0.0126 -1.6716 -0.0135
  921TIP3   OH224253   5.118   3.194  16.842  0.1502  0.2387 -0.7737
  921TIP3    H124254   5.028   3.223  16.829  0.0394  0.4804  0.4285
  921TIP3    H224255   5.112   3.122  16.905  0.9756  1.7863  1.1368
  922TIP3   OH224256   2.707   2.423   0.542  0.1471 -0.3511  0.5601
  922TIP3    H124257   2.800   2.402   0.545 -0.0234 -1.2240 -0.1130
  922TIP3    H224258   2.687   2.429   0.449 -0.5990 -0.7769  0.6889
  923TIP3   OH224259   3.099   0.018  14.079 -0.5917  0.0806 -0.1081
  923TIP3    H124260   3.035   0.087  14.064 -1.1032 -0.4484 -0.3496
  923TIP3    H224261   3.050  -0.052  14.122 -0.3301 -0.6012 -0.9035
  924TIP3   OH224262   1.893   1.953   5.295  0.0759 -0.2704 -0.4372
  924TIP3    H124263   1.934   1.897   5.361 -0.0913  0.9216  0.7016
  924TIP3    H224264   1.916   1.913   5.212  2.4615 -0.3818  0.2326
  925TIP3   OH224265   3.586   6.307   6.527 -0.2578  0.0952 -0.3546
  925TIP3    H124266   3.493   6.300   6.504 -0.4696 -1.6847  0.8809
  925TIP3    H224267   3.590   6.380   6.589 -0.9245 -0.1266 -0.0396
  926TIP3   OH224268   2.273   6.744   0.459  0.3404 -0.1776  0.7419
  926TIP3    H124269   2.328   6.753   0.537  2.1216 -2.1595 -0.2217
  926TIP3    H224270   2.209   6.677   0.483 -0.4170  0.6971  1.1878
  927TIP3   OH224271   0.618   6.146  16.628 -0.5020 -0.0191 -0.2693
  927TIP3    H124272   0.608   6.051  16.630  0.7159 -0.1424  0.4639
  927TIP3    H224273   0.587   6.176  16.713  0.2069  0.1257 -0.0619
  928TIP3   OH224274   0.281   3.614   5.707  0.0686  0.9014 -0.3248
  928TIP3    H124275   0.368   3.628   5.671  0.3261  0.2543  0.0332
  928TIP3    H224276   0.235   3.561   5.642  0.4002  0.0765  0.1040
  929TIP3   OH224277   1.738   0.666   1.210 -0.2559 -0.2560  0.0606
  929TIP3    H124278   1.812   0.721   1.184  0.1176 -1.2021 -0.9053
  929TIP3    H224279   1.668   0.729   1.232  0.8052  0.6375  0.9335
  930TIP3   OH224280   6.273   4.383  14.034 -0.6672 -0.6585  0.4016
  930TIP3    H124281   6.192   4.342  14.063 -1.5536  0.3148 -0.6730
  930TIP3    H224282   6.324   4.395  14.114 -1.4959 -1.4498  1.0493
  931TIP3   OH224283   0.224   1.419  13.361  0.1751 -0.2652 -0.4690
  931TIP3    H124284   0.165   1.368  13.306 -0.2486 -0.2782 -0.0045
  931TIP3    H224285   0.301   1.433  13.306  0.5594 -1.9388 -0.4055
  932TIP3   OH224286   5.280   0.098  12.772 -0.4055  0.0298  0.0567
  932TIP3    H124287   5.236   0.175  12.736 -0.3318  0.7203  1.4310
  932TIP3    H224288   5.247   0.091  12.861  0.3360 -0.9632  0.2612
  933TIP3   OH224289   2.497   0.465   0.686 -0.6805 -0.2408  0.6118
  933TIP3    H124290   2.545   0.477   0.768  1.7797  0.7631 -0.9085
  933TIP3    H224291   2.557   0.415   0.630 -1.8112  0.1598 -1.0018
  934TIP3   OH224292   2.655   4.512  11.703 -0.0723 -0.0460  0.0878
  934TIP3    H124293   2.680   4.431  11.748  0.9321 -0.2094 -0.7421
  934TIP3    H224294   2.718   4.577  11.732  0.4113 -0.0846 -0.8579
  935TIP3   OH224295   6.791   1.385  12.728 -0.3083 -0.3151 -0.2344
  935TIP3    H124296   6.786   1.421  12.640 -1.9525 -1.3075 -0.5532
  935TIP3    H224297   6.794   1.462  12.785  0.6169  0.3287 -1.1188
  936TIP3   OH224298   6.107   0.480   3.081  0.1254  0.0126 -0.4218
  936TIP3    H124299   6.078   0.389   3.083  0.3007 -0.0437 -0.5028
  936TIP3    H224300   6.196   0.477   3.048 -0.1028  0.2797 -1.0642
  937TIP3   OH224301   1.543   2.995  15.355 -0.0348 -0.0142 -0.3942
  937TIP3    H124302   1.458   3.039  15.359 -0.5293 -0.8889 -1.0724
  937TIP3    H224303   1.522   2.902  15.364  0.9419 -0.1675  0.3612
  938TIP3   OH224304   3.469   3.306   0.990  0.1200 -0.1195  0.4813
  938TIP3    H124305   3.408   3.262   1.049  0.6740  0.0543  1.1858
  938TIP3    H224306   3.472   3.396   1.022  0.0972  0.0766 -0.0729
  939TIP3   OH224307   5.455   2.742  11.241 -0.6500  0.5823 -0.0363
  939TIP3    H124308   5.472   2.765  11.149 -1.3980 -1.3724 -0.6885
  939TIP3    H224309   5.406   2.817  11.275  0.4749  1.7604 -0.9496
  940TIP3   OH224310   0.761   2.208  13.061  0.3097  0.1083 -0.3254
  940TIP3    H124311   0.770   2.113  13.063 -1.2347 -0.0433 -0.1037
  940TIP3    H224312   0.843   2.241  13.099  0.9501 -1.1205 -0.6374
  941TIP3   OH224313   6.650   4.657   4.210  0.0645 -0.2569  0.3118
  941TIP3    H124314   6.620   4.568   4.227  0.1314 -0.0119  1.8337
  941TIP3    H224315   6.642   4.701   4.295 -2.1320  1.8364 -0.9240
  942TIP3   OH224316   4.667   0.913   2.453  0.1142  0.6465  0.1706
  942TIP3    H124317   4.763   0.911   2.458  0.0794  0.3109  0.7788
  942TIP3    H224318   4.647   0.996   2.411  0.6417  1.2252  1.0508
  943TIP3   OH224319   2.047   1.904  15.944  0.0525  0.2494 -0.5975
  943TIP3    H124320   1.979   1.931  15.882  0.6374 -0.2101 -1.4590
  943TIP3    H224321   2.099   1.840  15.895 -0.7579 -1.7475  1.1148
  944TIP3   OH224322   2.516   1.695  14.309  0.3733 -0.5399  0.2738
  944TIP3    H124323   2.608   1.674  14.292  0.6367 -1.5381  2.6871
  944TIP3    H224324   2.472   1.610  14.308 -0.1857 -0.2571  0.9265
  945TIP3   OH224325   0.610   1.383  11.542  0.2137 -0.2162  0.6981
  945TIP3    H124326   0.701   1.389  11.571  0.3455 -1.7456  0.6663
  945TIP3    H224327   0.578   1.301  11.581 -1.0413  0.1422  0.4412
  946TIP3   OH224328   2.129   3.726   2.576 -0.2918  0.0061  0.2574
  946TIP3    H124329   2.170   3.676   2.505 -2.2088  0.7777 -1.4724
  946TIP3    H224330   2.038   3.697   2.576 -0.8094  1.5683  0.9967
  947TIP3   OH224331   5.510   1.757   3.269 -0.4404 -0.3222  0.0395
  947TIP3    H124332   5.461   1.690   3.317 -0.3332 -0.2624  0.2358
  947TIP3    H224333   5.555   1.708   3.200 -0.4084 -0.4438  0.1452
  948TIP3   OH224334   4.218   0.245  15.923  0.2329  0.1010  0.2181
  948TIP3    H124335   4.190   0.167  15.876 -1.0288  0.9425 -0.4643
  948TIP3    H224336   4.139   0.275  15.968  0.0119  2.4455 -1.6147
  949TIP3   OH224337   2.741   0.923   6.227 -0.1652 -0.1803 -0.2740
  949TIP3    H124338   2.769   0.852   6.284  1.4803  0.7748  0.1443
  949TIP3    H224339   2.726   0.997   6.286 -2.0149 -0.2048 -0.6855
  950TIP3   OH224340   5.664   5.393   3.879  0.0094  1.0851  0.1128
  950TIP3    H124341   5.579   5.383   3.836  0.5500 -0.0820 -0.6977
  950TIP3    H224342   5.726   5.352   3.819  1.0949  1.5666  0.8966
  951TIP3   OH224343   3.220   0.126   0.438 -0.5234 -0.0509 -0.4748
  951TIP3    H124344   3.291   0.188   0.451  1.5757 -2.5996  0.5169
  951TIP3    H224345   3.173   0.125   0.521 -1.4658  1.2495 -0.9664
  952TIP3   OH224346   0.841   6.098  15.676 -0.6097 -0.3976 -0.2802
  952TIP3    H124347   0.750   6.096  15.708 -0.6863  0.0341 -0.4670
  952TIP3    H224348   0.857   6.009  15.644 -0.8187 -0.5981  0.1661
  953TIP3   OH224349   4.779   4.107  12.155 -0.2211 -0.1705 -0.5006
  953TIP3    H124350   4.791   4.091  12.248  0.1304  2.7477 -0.0091
  953TIP3    H224351   4.766   4.019  12.117  1.2198 -1.5211  2.0168
  954TIP3   OH224352   2.495   6.129  15.742  0.0094 -0.3579 -0.4794
  954TIP3    H124353   2.465   6.167  15.825 -1.4284 -2.8449  0.1936
  954TIP3    H224354   2.590   6.125  15.751  0.0385  1.4133  0.1521
  955TIP3   OH224355   2.813   1.939   2.518  0.0596 -0.8572  0.6557
  955TIP3    H124356   2.885   1.885   2.485  0.6008  0.4480 -0.3534
  955TIP3    H224357   2.773   1.977   2.439  0.8252  1.6320  1.4226
  956TIP3   OH224358   3.006   1.941   0.237  0.2046  0.3624  0.3863
  956TIP3    H124359   2.934   1.894   0.278 -0.3245  0.2161 -0.7027
  956TIP3    H224360   2.980   1.952   0.146  2.2173 -1.0804 -0.4157
  957TIP3   OH224361   3.213   2.438  14.954  0.0857 -0.6164 -0.6716
  957TIP3    H124362   3.278   2.378  14.990  0.0133 -0.0377  0.4552
  957TIP3    H224363   3.134   2.421  15.004  0.3367  1.0942  0.3759
  958TIP3   OH224364   2.416   5.316   5.147  0.3498 -0.1529 -0.1100
  958TIP3    H124365   2.497   5.341   5.191  1.1548 -2.8555  0.0428
  958TIP3    H224366   2.445   5.271   5.067 -0.9283 -1.8870  0.3545
  959TIP3   OH224367   1.608   1.333   2.366 -0.0936  0.2084  0.2239
  959TIP3    H124368   1.646   1.373   2.287  0.6097 -1.2028 -0.1792
  959TIP3    H224369   1.588   1.407   2.423  1.0861  1.1450 -0.5365
  960TIP3   OH224370   1.278   1.755   4.525  0.0992 -0.0223 -0.4215
  960TIP3    H124371   1.248   1.673   4.487  1.7273 -0.4064 -0.9347
  960TIP3    H224372   1.364   1.769   4.485  0.3887  1.2758  0.6363
  961TIP3   OH224373   5.915   6.617  15.035 -0.6285 -0.4019  0.2112
  961TIP3    H124374   5.926   6.708  15.061 -0.6577 -0.6490  1.1324
  961TIP3    H224375   5.947   6.613  14.945  0.7714  0.2211  0.6624
  962TIP3   OH224376   3.156   5.243   3.119  0.3875  0.2670  0.1346
  962TIP3    H124377   3.137   5.158   3.158  1.4367  0.6324  1.4542
  962TIP3    H224378   3.110   5.306   3.175 -0.0646  0.6051 -0.6075
  963TIP3   OH224379   5.297   6.569  16.788 -0.4580 -0.3949 -0.0042
  963TIP3    H124380   5.322   6.582  16.879  1.0930  1.0186 -0.6167
  963TIP3    H224381   5.262   6.654  16.760  1.2624 -0.1218 -1.3902
  964TIP3   OH224382   6.302   2.049  13.317 -0.1663 -0.0285  0.5471
  964TIP3    H124383   6.303   2.106  13.394  0.5415 -0.7241  1.0669
  964TIP3    H224384   6.225   2.076  13.267 -0.4459  0.6480  1.3372
  965TIP3   OH224385   0.662   0.204  15.451 -0.0191  0.7129  0.7163
  965TIP3    H124386   0.751   0.223  15.479  0.0705  1.1662  0.1292
  965TIP3    H224387   0.670   0.135  15.385  0.0099  1.6228 -0.2488
  966TIP3   OH224388   4.085   1.472  11.996 -0.2762 -0.2938 -0.3792
  966TIP3    H124389   4.049   1.478  12.084 -1.6510  0.5421 -0.9840
  966TIP3    H224390   4.179   1.488  12.007 -0.6351  1.1339  0.7627
  967TIP3   OH224391   6.671   2.204   4.485 -0.2785 -0.3754 -0.0644
  967TIP3    H124392   6.715   2.277   4.439 -2.5644 -0.5065 -2.5899
  967TIP3    H224393   6.643   2.242   4.568 -0.5654  1.3561 -0.9263
  968TIP3   OH224394   0.436   3.813   1.003  0.1763  0.0600  0.3108
  968TIP3    H124395   0.508   3.752   1.015 -0.6763 -1.4059 -1.8567
  968TIP3    H224396   0.468   3.877   0.940 -0.6196 -1.0196 -1.2365
  969TIP3   OH224397   4.440   4.519   1.177  0.9460 -0.6047 -0.0498
  969TIP3    H124398   4.498   4.486   1.109  2.0703  1.4307 -0.1165
  969TIP3    H224399   4.460   4.613   1.183 -0.1640 -0.4587  2.0578
  970TIP3   OH224400   1.971   3.561  15.049 -0.3375  0.1744  0.0730
  970TIP3    H124401   1.963   3.481  15.101 -0.2802  0.2262  0.1629
  970TIP3    H224402   2.064   3.566  15.027 -0.6500 -0.7672 -1.5207
  971TIP3   OH224403   0.596   5.937  11.882 -0.5195  0.2660  0.1485
  971TIP3    H124404   0.512   5.969  11.915 -0.2267  0.8519  0.3284
  971TIP3    H224405   0.647   5.916  11.960 -0.3952  0.1935  0.0492
  972TIP3   OH224406   0.533   4.805   4.651 -0.1207  0.0210  0.4610
  972TIP3    H124407   0.461   4.784   4.711 -0.6421  0.9438  0.1739
  972TIP3    H224408   0.595   4.854   4.704 -1.3664  2.3159 -0.1270
  973TIP3   OH224409   0.978   6.036   1.576 -0.1535  0.0527 -0.8101
  973TIP3    H124410   0.901   6.081   1.609 -0.4684 -0.6003 -0.6450
  973TIP3    H224411   0.944   5.958   1.533  0.5126 -1.1696  0.8087
  974TIP3   OH224412   1.769   2.542   1.116  0.0878 -0.1790  0.3511
  974TIP3    H124413   1.773   2.602   1.190  1.7932 -1.0109  0.9509
  974TIP3    H224414   1.688   2.564   1.071  0.4317  2.2190  0.8693
  975TIP3   OH224415   5.617   1.832  16.977  0.3202  0.7084  0.0433
  975TIP3    H124416   5.707   1.831  17.011  0.8175 -1.8450 -1.1717
  975TIP3    H224417   5.609   1.917  16.934  1.7163  1.4958  1.2795
  976TIP3   OH224418   0.303   2.796   1.973 -0.2295 -0.2800 -0.1821
  976TIP3    H124419   0.325   2.855   1.900  3.0220 -0.8421  0.2581
  976TIP3    H224420   0.293   2.711   1.931  0.3710 -0.3770 -0.1246
  977TIP3   OH224421   2.072   5.090   3.754 -0.1239  0.4201  0.5935
  977TIP3    H124422   2.134   5.094   3.681  0.2914 -0.7520  0.8779
  977TIP3    H224423   1.992   5.055   3.715  1.0046 -3.0386  1.2891
  978TIP3   OH224424   4.579   0.748   5.288 -0.3698  0.6603 -0.1602
  978TIP3    H124425   4.591   0.805   5.212  0.0129  0.2097 -0.4433
  978TIP3    H224426   4.665   0.707   5.300 -0.5257  0.4717  0.3054
  979TIP3   OH224427   1.674   4.645   5.049 -0.2726  0.6967  0.0548
  979TIP3    H124428   1.598   4.589   5.068 -0.9167  1.5425 -0.0264
  979TIP3    H224429   1.690   4.692   5.131 -0.9816  1.8724 -0.4665
  980TIP3   OH224430   5.492   1.070   5.905 -0.1462  0.8381 -0.1807
  980TIP3    H124431   5.577   1.091   5.945  0.0054 -0.3273  0.1128
  980TIP3    H224432   5.459   1.155   5.876  0.9544  1.3569  0.0261
  981TIP3   OH224433   0.028   6.326   2.917  0.1425  0.1902 -0.4679
  981TIP3    H124434  -0.046   6.280   2.877 -0.3740  1.5839 -1.1470
  981TIP3    H224435   0.064   6.379   2.846  0.7173  0.8391  0.3047
  982TIP3   OH224436   0.178   2.961   5.932  0.0907 -0.0209  0.1880
  982TIP3    H124437   0.213   3.003   6.011 -1.5308 -0.3125  1.0720
  982TIP3    H224438   0.108   3.018   5.903  1.2133  0.5135 -1.5478
  983TIP3   OH224439   0.498   5.210  15.849 -0.1814 -0.4506  0.2883
  983TIP3    H124440   0.591   5.189  15.849 -0.3128 -1.1263 -1.8649
  983TIP3    H224441   0.454   5.125  15.848 -0.7824 -0.1392 -1.2836
  984TIP3   OH224442   2.422   5.985   5.521  0.0147 -0.3792 -0.6890
  984TIP3    H124443   2.436   6.071   5.560  4.3164 -2.2151  2.1393
  984TIP3    H224444   2.415   6.003   5.427 -1.1843  3.1856 -0.0196
  985TIP3   OH224445   3.587   3.806  12.035 -0.3119 -0.5923 -0.0898
  985TIP3    H124446   3.636   3.869  11.983  2.0970 -2.4839 -0.2260
  985TIP3    H224447   3.542   3.751  11.970  1.1078 -1.7087 -0.1654
  986TIP3   OH224448   2.816   5.934   6.671 -0.3921  0.0684  0.2754
  986TIP3    H124449   2.790   5.845   6.650 -0.1554  0.0900 -0.1088
  986TIP3    H224450   2.765   5.989   6.612  0.4710  0.1125 -0.4383
  987TIP3   OH224451   0.886   6.537   6.329 -0.0420 -0.5329 -0.3364
  987TIP3    H124452   0.917   6.464   6.383  0.9460  0.3827  0.3674
  987TIP3    H224453   0.959   6.554   6.269 -0.4799 -0.4767 -0.8492
  988TIP3   OH224454   3.026   0.646   5.947 -0.1178 -0.4055  0.7435
  988TIP3    H124455   3.090   0.686   5.888 -1.7779  0.3929 -0.5638
  988TIP3    H224456   3.034   0.696   6.029  0.1438  0.4253  0.2172
  989TIP3   OH224457   5.837   4.077   1.374  1.1970  0.1625  0.0919
  989TIP3    H124458   5.890   4.054   1.298  1.5311  0.6038  0.1934
  989TIP3    H224459   5.749   4.090   1.338  1.0682 -0.9542 -0.0159
  990TIP3   OH224460   6.535   6.500  13.151 -0.8709 -0.3624 -0.2524
  990TIP3    H124461   6.534   6.523  13.244 -0.6498 -0.3645 -0.2476
  990TIP3    H224462   6.548   6.405  13.149  1.3819 -0.0898 -0.3025
  991TIP3   OH224463   4.191   5.356  14.477 -0.3396  0.4642 -0.2131
  991TIP3    H124464   4.256   5.360  14.407 -0.4938 -0.7095 -0.4348
  991TIP3    H224465   4.231   5.405  14.549 -0.3363  1.9809 -1.2322
  992TIP3   OH224466   6.002   4.515  15.434  0.1204  0.1470 -0.0359
  992TIP3    H124467   5.929   4.453  15.442  2.0242 -1.9319  2.0552
  992TIP3    H224468   6.055   4.480  15.362 -0.1147  0.7784 -0.5191
  993TIP3   OH224469   3.429   4.547  12.628 -0.1935 -0.0253  0.2541
  993TIP3    H124470   3.486   4.581  12.559  0.0870  0.4417  0.7143
  993TIP3    H224471   3.393   4.466  12.591  1.9945 -1.1876  0.5763
  994TIP3   OH224472   2.031   6.462  14.829 -0.2286 -0.2318  0.3546
  994TIP3    H124473   2.125   6.452  14.844 -0.4901 -2.1462  0.8148
  994TIP3    H224474   2.019   6.438  14.737 -0.0883  1.3306 -0.0802
  995TIP3   OH224475   1.778   5.440  14.770 -0.0785 -0.3765  0.4537
  995TIP3    H124476   1.722   5.365  14.756  0.1941 -0.6634  0.8828
  995TIP3    H224477   1.810   5.430  14.860  0.7026 -0.2496  0.1926
  996TIP3   OH224478   0.385   5.921   6.047  0.1628 -0.1189 -0.0333
  996TIP3    H124479   0.408   5.840   6.092 -0.6915 -0.5616 -0.3671
  996TIP3    H224480   0.455   5.982   6.070  0.4814 -0.7575  0.7380
  997TIP3   OH224481   5.857   0.440  13.985 -0.3518 -0.0292  0.3795
  997TIP3    H124482   5.798   0.432  14.060 -1.7034 -1.9523 -0.8482
  997TIP3    H224483   5.922   0.372  13.998 -2.2954 -2.3828 -1.6333
  998TIP3   OH224484   6.628   6.650   1.853 -0.6422  0.0536 -0.0244
  998TIP3    H124485   6.647   6.562   1.818 -2.0584  0.0378 -0.7782
  998TIP3    H224486   6.580   6.634   1.934 -0.0829  0.1350  0.3294
  999TIP3   OH224487   6.668   1.569  13.783  0.1435 -0.3551 -0.7824
  999TIP3    H124488   6.623   1.500  13.832 -0.1082  0.0461 -0.4408
  999TIP3    H224489   6.659   1.543  13.692 -0.5969 -0.4002 -0.7043
 1000TIP3   OH224490   5.030   2.552   4.878 -0.0728 -0.1412 -0.4214
 1000TIP3    H124491   4.953   2.509   4.915  0.4137 -0.6535  0.0191
 1000TIP3    H224492   5.054   2.497   4.803 -0.0354 -0.0899 -0.4463
 1001TIP3   OH224493   6.006   4.298   0.137  0.1707  0.8996  0.6318
 1001TIP3    H124494   5.976   4.389   0.139  2.7656  1.8915 -1.9164
 1001TIP3    H224495   5.932   4.249   0.101 -0.9207  2.1386  1.1805
 1002TIP3   OH224496   1.547   0.593  17.141  0.5145  0.5526 -0.1572
 1002TIP3    H124497   1.510   0.532  17.205 -0.3052  0.5965 -0.5866
 1002TIP3    H224498   1.515   0.563  17.057 -0.2932  1.8552 -0.3270
 1003TIP3   OH224499   0.989   1.038   1.466 -0.3077 -0.3068  0.2061
 1003TIP3    H124500   0.981   0.994   1.551 -0.5928  0.0267  0.3540
 1003TIP3    H224501   1.058   0.990   1.421  0.0076 -0.3471  0.7183
 1004TIP3   OH224502   0.774   4.403   6.345  0.4483 -0.3185 -0.2439
 1004TIP3    H124503   0.741   4.364   6.265  2.2343 -1.7885 -0.3022
 1004TIP3    H224504   0.702   4.395   6.408  1.1081 -4.8747  0.1054
 1005TIP3   OH224505   3.378   3.766   0.868  0.0689  0.1653  0.2567
 1005TIP3    H124506   3.442   3.725   0.810  0.0193 -1.2266  1.1599
 1005TIP3    H224507   3.430   3.817   0.929  0.2532 -0.0983  0.3207
 1006TIP3   OH224508   1.565   2.395   5.703 -0.2139 -0.1982 -0.0913
 1006TIP3    H124509   1.570   2.447   5.623  2.4462 -1.4838 -0.8399
 1006TIP3    H224510   1.599   2.453   5.771  1.4265 -0.4583 -0.6679
 1007TIP3   OH224511   6.161   0.729   3.848 -0.4023  0.6780  0.5321
 1007TIP3    H124512   6.219   0.769   3.783 -0.0271  0.2692  0.6123
 1007TIP3    H224513   6.131   0.648   3.806 -1.1969  1.0636  0.3498
 1008TIP3   OH224514   5.136   1.058   5.844  0.4663  0.3035 -0.3941
 1008TIP3    H124515   5.149   1.131   5.784 -0.6051  1.9157  1.2743
 1008TIP3    H224516   5.159   1.093   5.930  0.2683 -1.4264  0.3887
 1009TIP3   OH224517   6.710   5.858   3.690  0.1488  0.1719  0.2709
 1009TIP3    H124518   6.637   5.881   3.748 -0.6966 -0.9311 -0.3460
 1009TIP3    H224519   6.714   5.929   3.626  1.3458  1.6160  1.8766
 1010TIP3   OH224520   3.902   2.244  12.059 -0.0824  0.0945  0.2471
 1010TIP3    H124521   3.852   2.169  12.026  2.2464 -2.1119  1.5449
 1010TIP3    H224522   3.875   2.253  12.150 -1.7535  2.1088 -0.3949
 1011TIP3   OH224523   3.936   3.013   4.048  0.3300 -0.4391  0.4984
 1011TIP3    H124524   3.860   3.040   3.996 -0.5563 -1.1381  1.4141
 1011TIP3    H224525   3.927   3.061   4.131  2.0440  1.1111 -0.1645
 1012TIP3   OH224526   1.219   6.157  13.655  0.4709 -0.1395  0.0402
 1012TIP3    H124527   1.147   6.094  13.653  0.5946 -0.2635 -0.6822
 1012TIP3    H224528   1.179   6.240  13.629  0.8320 -0.4680 -1.6322
 1013TIP3   OH224529   0.665   5.269   4.774 -0.8585 -0.0082  0.2217
 1013TIP3    H124530   0.749   5.307   4.796  0.1056 -3.2934  2.5148
 1013TIP3    H224531   0.602   5.316   4.828 -0.0279 -0.0179  1.2029
 1014TIP3   OH224532   5.337   2.339   1.654 -0.2146 -0.2348  0.1590
 1014TIP3    H124533   5.417   2.374   1.615 -0.9417  0.4114 -0.7567
 1014TIP3    H224534   5.368   2.275   1.718  1.0924  1.1390  0.9373
 1015TIP3   OH224535   0.370   2.328   3.717 -0.1296 -0.5983 -0.2744
 1015TIP3    H124536   0.394   2.363   3.632 -0.7634 -1.1196 -0.6700
 1015TIP3    H224537   0.308   2.392   3.753  0.3560 -0.2351 -0.0781
 1016TIP3   OH224538   2.304   5.134  13.134  0.3696  0.3235 -0.2810
 1016TIP3    H124539   2.225   5.146  13.081  0.0286  1.8686  0.5339
 1016TIP3    H224540   2.359   5.076  13.083  0.2308  2.1346 -2.5483
 1017TIP3   OH224541   0.325   1.929  16.162  0.4592  0.1997 -0.0463
 1017TIP3    H124542   0.340   2.018  16.128 -0.7845  0.9419  1.2593
 1017TIP3    H224543   0.389   1.920  16.232  0.4533  0.1674 -0.0443
 1018TIP3   OH224544   0.373   4.086  13.325  0.0469 -0.0284 -0.1298
 1018TIP3    H124545   0.340   4.040  13.247  0.5545  0.7600 -0.8240
 1018TIP3    H224546   0.424   4.159  13.289  0.9901 -0.1562  0.9338
 1019TIP3   OH224547   0.058   0.047  14.043 -0.0726  0.0182  0.0421
 1019TIP3    H124548   0.144   0.086  14.028 -0.4016  0.2789 -1.2018
 1019TIP3    H224549   0.066   0.005  14.128  1.2705  0.0788 -0.0397
 1020TIP3   OH224550   2.236   3.831   1.319 -0.2439  0.1521  0.2123
 1020TIP3    H124551   2.263   3.902   1.377 -0.4410  1.3537 -1.1338
 1020TIP3    H224552   2.187   3.875   1.249  0.0974 -1.2535 -0.9269
 1021TIP3   OH224553   6.790   4.906  12.810 -0.0890 -0.8626  0.2629
 1021TIP3    H124554   6.741   4.824  12.822 -3.1698  0.8633  0.1600
 1021TIP3    H224555   6.754   4.964  12.878  2.4255  0.2513  0.6789
 1022TIP3   OH224556   1.181   4.722   0.755 -0.5317 -0.2845  0.0163
 1022TIP3    H124557   1.227   4.644   0.725 -0.7948 -0.4514  0.0438
 1022TIP3    H224558   1.229   4.749   0.834 -0.3702 -0.3492 -0.0591
 1023TIP3   OH224559   3.750   4.594  15.939  0.2845  0.5179  0.0736
 1023TIP3    H124560   3.796   4.529  15.886 -0.5846  0.9905 -1.3009
 1023TIP3    H224561   3.702   4.647  15.875 -1.8491  0.2703  1.4251
 1024TIP3   OH224562   4.400   4.250   4.681  0.1422 -0.1834 -0.2693
 1024TIP3    H124563   4.435   4.255   4.593 -0.2308 -0.7742 -0.4555
 1024TIP3    H224564   4.337   4.178   4.678  1.4436 -1.4124  0.9465
 1025TIP3   OH224565   1.414   6.157  11.651 -0.1377  0.2458 -0.7784
 1025TIP3    H124566   1.329   6.137  11.689  0.9246 -3.2040 -0.0883
 1025TIP3    H224567   1.438   6.242  11.689 -2.5070  0.4572  0.2848
 1026TIP3   OH224568   4.876   1.795  16.791  0.0232  1.2880  0.1935
 1026TIP3    H124569   4.897   1.842  16.872  2.1427  0.6912  0.0187
 1026TIP3    H224570   4.958   1.795  16.742 -0.9597  0.6708 -1.4658
 1027TIP3   OH224571   6.522   6.371  16.601 -0.2348 -0.0563 -0.2826
 1027TIP3    H124572   6.531   6.279  16.576  0.1431  0.3278 -1.5584
 1027TIP3    H224573   6.585   6.418  16.547  1.1881  0.7037  1.9487
 1028TIP3   OH224574   1.428   4.233   4.097 -0.0580  0.2632 -0.3487
 1028TIP3    H124575   1.435   4.287   4.176 -1.3566 -0.6849  0.4236
 1028TIP3    H224576   1.452   4.145   4.125 -0.6529 -0.1044 -0.9810
 1029TIP3   OH224577   6.268   4.099  16.520  0.2518  0.3764  0.3215
 1029TIP3    H124578   6.215   4.168  16.560  0.0254  0.8806 -0.8142
 1029TIP3    H224579   6.204   4.040  16.481  0.4721  0.0623  0.4429
 1030TIP3   OH224580   3.337   2.990   5.085  0.5013 -0.0767  0.4451
 1030TIP3    H124581   3.364   2.938   5.161  1.3908 -0.7296 -0.3201
 1030TIP3    H224582   3.409   2.982   5.023 -0.6247 -0.2963 -0.8594
 1031TIP3   OH224583   0.882   6.685   4.259  0.2013  0.0325 -0.0259
 1031TIP3    H124584   0.874   6.728   4.344  0.7918 -0.3892  0.2401
 1031TIP3    H224585   0.949   6.735   4.213  0.5521 -0.3095  0.1092
 1032TIP3   OH224586   0.151   0.091   0.058 -0.0649  0.5750 -0.0288
 1032TIP3    H124587   0.241   0.071   0.081 -0.6458 -0.4605  1.3855
 1032TIP3    H224588   0.104   0.009   0.072 -1.2334  1.1185 -0.7171
 1033TIP3   OH224589   2.275   3.041  13.048  0.0334  0.3448 -0.7508
 1033TIP3    H124590   2.319   2.957  13.064 -1.3036 -0.4156 -1.0127
 1033TIP3    H224591   2.257   3.041  12.954 -1.8459 -0.0230 -0.4098
 1034TIP3   OH224592   1.228   2.821  15.630 -0.3269 -0.1024  0.4682
 1034TIP3    H124593   1.231   2.773  15.548  1.3464 -1.7199  1.4484
 1034TIP3    H224594   1.141   2.862  15.631 -1.0351 -1.5269 -1.2593
 1035TIP3   OH224595   3.087   0.521   0.542 -0.4009  0.3366 -0.3570
 1035TIP3    H124596   3.163   0.573   0.515  0.7770 -1.4827 -0.5706
 1035TIP3    H224597   3.061   0.558   0.626  0.6567  1.0249 -0.3247
 1036TIP3   OH224598   0.807   0.131   2.416 -0.0440  0.0309  0.0566
 1036TIP3    H124599   0.780   0.041   2.434 -0.2666  0.2874  0.9943
 1036TIP3    H224600   0.725   0.177   2.399  0.1541 -0.2176 -1.7268
 1037TIP3   OH224601   4.429   6.111   3.534 -0.3644 -0.1599 -0.2207
 1037TIP3    H124602   4.376   6.132   3.458  0.6796  0.4635 -0.7852
 1037TIP3    H224603   4.467   6.026   3.514 -3.2142 -1.8661  1.3215
 1038TIP3   OH224604   6.075   4.526  15.782  0.4234 -0.0376  0.3477
 1038TIP3    H124605   6.144   4.590  15.766  0.5155 -0.2051  0.0803
 1038TIP3    H224606   6.111   4.469  15.850  0.4929 -0.0414  0.3072
 1039TIP3   OH224607   0.946   3.651   4.511  0.2080 -0.6788  0.0630
 1039TIP3    H124608   1.041   3.638   4.515  0.0307 -2.4018 -1.0295
 1039TIP3    H224609   0.921   3.622   4.423 -1.2078  0.6455 -0.0026
 1040TIP3   OH224610   3.415   6.314  16.631  0.3936 -0.0307 -0.8305
 1040TIP3    H124611   3.504   6.285  16.649 -0.3086  0.6505  4.2110
 1040TIP3    H224612   3.373   6.237  16.592  2.1354 -1.5696  0.2657
 1041TIP3   OH224613   0.629   0.871   4.799  0.1318 -0.3226  0.0796
 1041TIP3    H124614   0.694   0.913   4.856  0.6851 -0.2138 -0.6241
 1041TIP3    H224615   0.623   0.781   4.832  0.6578 -0.3398  0.1338
 1042TIP3   OH224616   5.385   3.480   3.574  0.0081  0.1161  0.1823
 1042TIP3    H124617   5.454   3.509   3.515  0.9194 -1.1930  0.5844
 1042TIP3    H224618   5.304   3.511   3.534  0.7570  0.8842 -0.7575
 1043TIP3   OH224619   1.581   5.224  12.123 -0.3438 -0.4638 -0.4182
 1043TIP3    H124620   1.626   5.245  12.205 -0.1070  0.2647 -0.7311
 1043TIP3    H224621   1.635   5.156  12.082 -0.5269 -0.9133  0.0873
 1044TIP3   OH224622   3.759   5.597  14.668 -0.6141 -0.3633  0.1277
 1044TIP3    H124623   3.688   5.616  14.728  0.3673  1.5351  0.7200
 1044TIP3    H224624   3.837   5.590  14.724  0.3694  1.7448 -0.9041
 1045TIP3   OH224625   6.122   5.036  13.401 -0.1950 -0.2128  0.2801
 1045TIP3    H124626   6.174   5.108  13.436 -1.4822  0.8392  0.0971
 1045TIP3    H224627   6.097   4.985  13.478 -0.8952  0.6578  0.6527
 1046TIP3   OH224628   2.872   6.401  15.047 -0.1676 -0.0362  0.0792
 1046TIP3    H124629   2.907   6.332  14.991 -1.4847 -0.2359 -0.5047
 1046TIP3    H224630   2.944   6.422  15.107  0.5010 -1.3715 -0.2391
 1047TIP3   OH224631   3.135   2.299   2.863  0.1802 -0.7162  0.6033
 1047TIP3    H124632   3.125   2.392   2.844  0.0833 -1.0661 -1.1158
 1047TIP3    H224633   3.222   2.292   2.903  0.3104  0.0683  0.4556
 1048TIP3   OH224634   3.467   2.748   2.839  0.7580  0.2009 -0.7033
 1048TIP3    H124635   3.398   2.738   2.904  1.1595 -2.3037 -0.6372
 1048TIP3    H224636   3.420   2.764   2.757  0.1840  0.5969 -0.3085
 1049TIP3   OH224637   2.610   2.927  13.412 -0.0183  0.2821  0.1015
 1049TIP3    H124638   2.633   2.857  13.351 -0.3366 -0.4147  0.7684
 1049TIP3    H224639   2.520   2.907  13.437  0.4336  0.0080  1.5361
 1050TIP3   OH224640   0.513   3.954  16.282 -0.0454  0.0868  0.4768
 1050TIP3    H124641   0.592   3.972  16.232  0.5105  0.5484  1.5048
 1050TIP3    H224642   0.518   3.860  16.302 -1.7255 -0.7754 -2.7902
 1051TIP3   OH224643   0.701   4.455  12.634 -0.2448 -0.0912 -0.0240
 1051TIP3    H124644   0.634   4.498  12.687 -1.4102  0.1130 -1.6061
 1051TIP3    H224645   0.655   4.380  12.594  1.0320 -1.2025  0.5418
 1052TIP3   OH224646   0.223   3.587   4.877 -0.0361 -0.8068  0.1119
 1052TIP3    H124647   0.204   3.587   4.783  0.1430  0.6420  0.0666
 1052TIP3    H224648   0.138   3.583   4.919 -0.2142  0.4935 -0.1107
 1053TIP3   OH224649   0.304   1.981   2.970  0.4220 -0.1295  0.4596
 1053TIP3    H124650   0.225   1.955   2.923 -0.5418 -1.0856  2.5490
 1053TIP3    H224651   0.374   1.929   2.930 -0.3542 -0.8315  0.0001
 1054TIP3   OH224652   5.101   0.275  11.095  0.8469  0.3825 -0.3193
 1054TIP3    H124653   5.132   0.277  11.005 -1.7358  0.5457 -1.2542
 1054TIP3    H224654   5.143   0.199  11.134  0.9490 -0.4608 -2.0601
 1055TIP3   OH224655   0.220   1.518  17.228 -0.2146 -0.0092  0.1271
 1055TIP3    H124656   0.228   1.567  17.310  2.7753  1.1998 -0.8166
 1055TIP3    H224657   0.198   1.584  17.162  1.3229 -0.3265 -0.7219
 1056TIP3   OH224658   3.141   2.315   1.999  0.1858  0.0517  0.5803
 1056TIP3    H124659   3.213   2.358   1.952  2.0095 -0.9944  2.3555
 1056TIP3    H224660   3.132   2.230   1.956 -0.7938  0.6239 -0.3827
 1057TIP3   OH224661   6.122   0.338  11.010  0.0241 -0.2304 -0.7526
 1057TIP3    H124662   6.063   0.383  11.070  2.9505  3.2446 -0.3393
 1057TIP3    H224663   6.111   0.245  11.030 -4.0595  0.4208  0.3947
 1058TIP3   OH224664   4.292   1.046   2.156  0.4592 -0.0660 -0.1177
 1058TIP3    H124665   4.291   1.083   2.245 -3.5332 -0.4338  0.0635
 1058TIP3    H224666   4.290   0.952   2.169  0.7880 -0.1438 -0.6196
 1059TIP3   OH224667   0.453   6.416   4.503 -0.1081 -0.7314 -0.2380
 1059TIP3    H124668   0.464   6.394   4.595  2.1778  0.0690 -0.2838
 1059TIP3    H224669   0.401   6.497   4.504 -2.6552 -2.3056  0.1795
 1060TIP3   OH224670   6.312   3.949  14.288  0.4699 -0.1960  0.3561
 1060TIP3    H124671   6.232   3.895  14.287  0.6499 -0.4821 -1.8453
 1060TIP3    H224672   6.306   3.999  14.369 -1.4007 -1.0302  0.7686
 1061TIP3   OH224673   2.605   2.921  13.879 -0.0750 -0.0407 -0.8050
 1061TIP3    H124674   2.582   2.986  13.811 -0.8165 -0.0932 -0.6136
 1061TIP3    H224675   2.527   2.918  13.935  0.1952 -0.6562 -0.4656
 1062TIP3   OH224676   6.387   2.179   0.264  0.2923 -0.4713 -0.2975
 1062TIP3    H124677   6.416   2.267   0.288  1.5174 -0.5987 -1.2861
 1062TIP3    H224678   6.309   2.193   0.211  0.4331  0.0127 -0.3797
 1063TIP3   OH224679   3.220   3.224   4.000 -0.3929 -0.1156  0.2230
 1063TIP3    H124680   3.144   3.194   3.951 -1.0769  1.9900 -0.0685
 1063TIP3    H224681   3.218   3.320   3.992  1.1101  0.1020  1.9500
 1064TIP3   OH224682   5.882   4.909   1.462  0.7251 -0.5476 -0.0412
 1064TIP3    H124683   5.898   5.003   1.463  0.4784 -0.4814 -1.4841
 1064TIP3    H224684   5.787   4.900   1.475  0.8611 -0.6398  0.9390
 1065TIP3   OH224685   4.088   2.552  10.467  0.1455 -0.4130  0.4343
 1065TIP3    H124686   4.006   2.582  10.507  0.4554  0.9226  0.1094
 1065TIP3    H224687   4.120   2.629  10.419  1.2459 -1.1295  0.0085
 1066TIP3   OH224688   1.361   2.336   3.490 -0.0509  0.0282  0.2196
 1066TIP3    H124689   1.399   2.276   3.426 -1.0863 -0.5541  0.1329
 1066TIP3    H224690   1.289   2.378   3.444 -0.7366 -0.3140  0.9585
 1067TIP3   OH224691   2.286   5.396   3.516  0.1727 -0.0001 -0.2515
 1067TIP3    H124692   2.277   5.356   3.430 -0.4697 -1.0035  0.2670
 1067TIP3    H224693   2.254   5.330   3.577 -0.5926  1.1824  0.6628
 1068TIP3   OH224694   2.492   5.272   6.272  0.1625  0.1920 -0.0604
 1068TIP3    H124695   2.549   5.333   6.319  0.4824 -0.4931  0.4445
 1068TIP3    H224696   2.463   5.321   6.195  2.5164  0.1004 -1.0484
 1069TIP3   OH224697   2.669   4.773  11.524 -0.0943  0.4263 -0.1248
 1069TIP3    H124698   2.732   4.730  11.467 -0.1584  0.1578  0.0052
 1069TIP3    H224699   2.654   4.710  11.595 -0.8007  0.3259 -0.3593
 1070TIP3   OH224700   2.594   0.564  11.907  0.4490  0.2492  0.3499
 1070TIP3    H124701   2.540   0.533  11.834  0.4348  1.5660 -0.2049
 1070TIP3    H224702   2.531   0.591  11.974  0.4472  0.1096  0.4041
 1071TIP3   OH224703   2.209   3.712  12.227 -0.2522 -0.6297  0.3902
 1071TIP3    H124704   2.180   3.789  12.276 -0.1983  0.3404 -1.0418
 1071TIP3    H224705   2.193   3.638  12.285 -1.5339  0.3303  1.2882
 1072TIP3   OH224706   2.459   4.324   2.574 -0.1842 -0.1304  0.4915
 1072TIP3    H124707   2.463   4.263   2.501 -0.0184  0.6218 -0.1312
 1072TIP3    H224708   2.526   4.294   2.635  0.6045  0.0517 -0.2913
 1073TIP3   OH224709   2.676   3.089   2.277 -0.5017 -0.0152 -0.2502
 1073TIP3    H124710   2.769   3.087   2.302 -0.0428  0.7285 -1.8101
 1073TIP3    H224711   2.629   3.090   2.360  0.9246  0.8498  0.5749
 1074TIP3   OH224712   6.603   6.255   2.815  0.1718  0.4110 -0.6162
 1074TIP3    H124713   6.557   6.173   2.802 -1.1231  0.7273  1.7201
 1074TIP3    H224714   6.544   6.322   2.780  1.6390  0.3494 -3.4291
 1075TIP3   OH224715   1.564   1.493   2.908  0.2762 -0.8359  0.0692
 1075TIP3    H124716   1.484   1.509   2.858 -0.3040  1.0508  1.5331
 1075TIP3    H224717   1.562   1.399   2.928 -0.0694 -1.3742 -2.3976
 1076TIP3   OH224718   2.151   1.361   3.731  0.0777  0.3376 -0.6938
 1076TIP3    H124719   2.111   1.396   3.651  0.4128  0.3016 -0.8751
 1076TIP3    H224720   2.241   1.392   3.729  0.3306 -0.4021 -0.7673
 1077TIP3   OH224721   2.434   1.578   5.619  0.5174  0.7525 -0.2637
 1077TIP3    H124722   2.391   1.664   5.617 -1.6886 -0.2972  0.1654
 1077TIP3    H224723   2.374   1.520   5.573  1.0383 -0.9696  1.1611
 1078TIP3   OH224724   1.707   1.360  12.177  0.1786  0.2861  0.4176
 1078TIP3    H124725   1.779   1.348  12.115 -1.1256 -1.8610 -0.7262
 1078TIP3    H224726   1.634   1.392  12.124 -0.8742 -1.3246  0.8628
 1079TIP3   OH224727   6.592   3.216   0.186  0.7303 -0.0041 -0.0136
 1079TIP3    H124728   6.520   3.254   0.235  1.0148 -1.7167  1.7810
 1079TIP3    H224729   6.554   3.142   0.140  0.8518  0.5232 -0.9820
 1080TIP3   OH224730   1.162   2.853   6.299  0.1157  0.2891 -0.1662
 1080TIP3    H124731   1.154   2.880   6.208 -1.5246 -1.2267 -0.4825
 1080TIP3    H224732   1.241   2.798   6.302 -0.2919 -0.3325 -0.8375
 1081TIP3   OH224733   2.066   3.348  14.441  0.4056  0.6231  0.0544
 1081TIP3    H124734   2.114   3.424  14.472 -0.8917  1.4261  0.1184
 1081TIP3    H224735   1.985   3.348  14.492 -0.5072  0.3621 -1.3490
 1082TIP3   OH224736   6.170   0.926  16.209  0.1424 -0.1187 -0.4089
 1082TIP3    H124737   6.095   0.867  16.199  0.2810 -0.1492 -1.2872
 1082TIP3    H224738   6.220   0.887  16.281 -1.2403  0.5121  0.9172
 1083TIP3   OH224739   0.689   5.499   0.244  0.0202 -0.2048 -0.2662
 1083TIP3    H124740   0.780   5.499   0.276  0.3621 -0.7314 -1.2018
 1083TIP3    H224741   0.661   5.408   0.254 -1.3509  0.4924  2.5803
 1084TIP3   OH224742   2.467   2.356  11.632 -0.0308 -0.1342  0.1407
 1084TIP3    H124743   2.447   2.306  11.711 -0.2690  0.1442  0.2597
 1084TIP3    H224744   2.468   2.291  11.562 -2.7898  0.0146 -0.1150
 1085TIP3   OH224745   5.280   6.130   2.367  0.2489  0.0029 -0.1816
 1085TIP3    H124746   5.273   6.098   2.457 -0.5031 -1.1395 -0.6371
 1085TIP3    H224747   5.215   6.199   2.361 -0.4722 -0.6728 -0.1632
 1086TIP3   OH224748   0.132   0.767   3.362 -0.0129  0.2899 -0.0181
 1086TIP3    H124749   0.227   0.764   3.348 -0.2043 -0.6901 -1.1572
 1086TIP3    H224750   0.109   0.859   3.350  0.8377  0.5854  0.5807
 1087TIP3   OH224751   6.307   2.082  16.705 -0.7656  0.2262 -0.5395
 1087TIP3    H124752   6.217   2.095  16.676 -0.2374  2.6550 -1.1542
 1087TIP3    H224753   6.331   2.164  16.747  0.3589 -1.2579  1.8590
 1088TIP3   OH224754   0.997   4.401  11.491 -0.6961 -0.2794  0.1310
 1088TIP3    H124755   1.022   4.489  11.517  1.3293 -0.6475 -0.5326
 1088TIP3    H224756   0.992   4.404  11.395  1.4956 -1.4148 -0.0356
 1089TIP3   OH224757   1.554   1.136  11.202 -0.5271  0.2427  0.7328
 1089TIP3    H124758   1.479   1.077  11.206  0.7099 -1.3831  0.8291
 1089TIP3    H224759   1.545   1.193  11.278 -1.5328 -0.1039  0.8757
 1090TIP3   OH224760   3.090   0.886  11.177  0.2791 -0.2245  0.3856
 1090TIP3    H124761   3.178   0.853  11.156 -0.6520 -2.0520 -0.7410
 1090TIP3    H224762   3.054   0.913  11.093 -1.0105 -1.4630  0.5140
 1091TIP3   OH224763   6.138   4.726   3.909 -0.2354 -0.2117  0.0525
 1091TIP3    H124764   6.169   4.803   3.862 -0.3138  0.1487  0.5917
 1091TIP3    H224765   6.193   4.655   3.877  0.2790  0.1874  0.0482
 1092TIP3   OH224766   2.693   6.573   6.100 -0.2554  0.1896 -0.0122
 1092TIP3    H124767   2.759   6.513   6.135  0.1248  0.7432  0.2268
 1092TIP3    H224768   2.640   6.597   6.177  1.0405  1.9916  0.3444
 1093TIP3   OH224769   6.409   6.653  15.736  0.3641 -0.2264  0.3974
 1093TIP3    H124770   6.393   6.742  15.705  1.6952 -0.3240 -0.6411
 1093TIP3    H224771   6.322   6.617  15.754 -0.2500  0.8796 -0.3189
 1094TIP3   OH224772   2.283   1.049  16.757 -0.4798  0.0189 -0.1004
 1094TIP3    H124773   2.300   0.990  16.831 -0.4884  0.4445  0.2418
 1094TIP3    H224774   2.365   1.049  16.708  0.3795  1.6719  1.2716
 1095TIP3   OH224775   3.699   5.220  16.930 -0.3978 -0.2125 -0.4208
 1095TIP3    H124776   3.672   5.202  17.020  0.3928 -1.4713 -0.4176
 1095TIP3    H224777   3.721   5.313  16.929  3.2908 -0.9800  1.6751
 1096TIP3   OH224778   5.738   0.396  11.890  0.0378  0.2927  0.3761
 1096TIP3    H124779   5.707   0.332  11.954  0.7033 -0.6060 -0.1786
 1096TIP3    H224780   5.719   0.355  11.805  0.0338  1.0456  0.0129
 1097TIP3   OH224781   1.611   6.132  15.343  0.4409  0.0245 -0.1615
 1097TIP3    H124782   1.576   6.043  15.345 -1.9020  0.9281  0.7033
 1097TIP3    H224783   1.603   6.163  15.433 -2.1992  2.3671 -1.1364
 1098TIP3   OH224784   2.030   0.644  12.910  0.1596  0.5078 -0.3203
 1098TIP3    H124785   2.061   0.559  12.879 -0.0786  1.3480 -3.0110
 1098TIP3    H224786   1.973   0.624  12.983  0.9220 -1.5729 -0.2777
 1099TIP3   OH224787   6.256   0.537  13.915 -0.3513 -0.8421 -0.3106
 1099TIP3    H124788   6.331   0.568  13.967 -0.4446 -0.9460 -0.1124
 1099TIP3    H224789   6.250   0.444  13.935  0.3026 -1.1126 -1.3844
 1100TIP3   OH224790   6.131   2.785  10.771 -0.6603  0.4687 -0.2687
 1100TIP3    H124791   6.074   2.717  10.735 -1.2956  0.5414  0.5963
 1100TIP3    H224792   6.135   2.852  10.703 -0.5010 -0.1650 -0.8890
 1101TIP3   OH224793   1.863   0.002   1.758  0.5294 -0.0521 -0.5299
 1101TIP3    H124794   1.816   0.053   1.693  1.9823  0.8641 -0.8904
 1101TIP3    H224795   1.948  -0.017   1.718  0.6547 -1.2758  0.2764
 1102TIP3   OH224796   2.103   1.292  16.252 -0.7596  0.1012  0.5086
 1102TIP3    H124797   2.072   1.281  16.162 -0.9066  1.0032  0.4531
 1102TIP3    H224798   2.044   1.237  16.304 -1.0381  0.0416  0.1329
 1103TIP3   OH224799   0.047   4.164  11.818 -0.2792  0.3277 -0.6209
 1103TIP3    H124800   0.068   4.223  11.891 -1.9463 -1.1028  1.0639
 1103TIP3    H224801  -0.025   4.207  11.772  0.3481  0.9272 -1.0490
 1104TIP3   OH224802   3.979   0.126   5.632  0.1396  0.0382  0.3209
 1104TIP3    H124803   3.987   0.198   5.695 -0.4602  1.7828 -1.5245
 1104TIP3    H224804   3.940   0.167   5.555  1.2247 -1.9685 -1.3232
 1105TIP3   OH224805   3.059   4.765  12.261  0.0388 -0.0894 -0.2820
 1105TIP3    H124806   2.990   4.830  12.270 -1.3014 -1.4921 -0.1058
 1105TIP3    H224807   3.137   4.815  12.235 -0.6262  1.7159  1.0681
 1106TIP3   OH224808   5.788   5.544   5.673  0.0469 -0.0847 -0.7919
 1106TIP3    H124809   5.736   5.488   5.731  0.6702  0.3582  0.2068
 1106TIP3    H224810   5.729   5.567   5.602 -0.8368 -0.3462 -0.1498
 1107TIP3   OH224811   6.141   0.465  15.218  0.0787 -0.2319 -0.2662
 1107TIP3    H124812   6.115   0.557  15.213 -1.8191 -0.7492 -0.0969
 1107TIP3    H224813   6.129   0.442  15.310 -2.4033 -1.4698 -0.8582
 1108TIP3   OH224814   4.360   0.887   6.304 -0.3975 -0.0135  0.1209
 1108TIP3    H124815   4.311   0.837   6.240 -0.6613  0.0327  0.2825
 1108TIP3    H224816   4.361   0.976   6.269 -1.9414  0.3495  0.9628
 1109TIP3   OH224817   4.754   5.796  11.019  0.2534 -0.1611  0.0351
 1109TIP3    H124818   4.770   5.719  10.965  0.6808  0.5581 -0.8885
 1109TIP3    H224819   4.689   5.768  11.083  0.3773 -1.2746 -0.3185
 1110TIP3   OH224820   0.747   3.127   1.384  0.5018  0.0680 -0.1660
 1110TIP3    H124821   0.683   3.151   1.451  1.7676 -1.5461  1.6767
 1110TIP3    H224822   0.734   3.033   1.371  2.4837 -0.2683  0.2011
 1111TIP3   OH224823   2.109   2.124  15.260  0.4522 -0.0469 -0.0497
 1111TIP3    H124824   2.145   2.169  15.337  3.7833  0.4098 -1.8081
 1111TIP3    H224825   2.100   2.033  15.288  2.1491  0.0100  0.7232
 1112TIP3   OH224826   0.977   0.914  10.725  0.2836  0.2835 -0.6338
 1112TIP3    H124827   0.999   0.828  10.689  0.3027  0.5634 -1.3083
 1112TIP3    H224828   1.022   0.918  10.809 -1.0139 -0.9966  0.1370
 1113TIP3   OH224829   5.603   6.401   0.904  0.2272 -0.9502 -0.5377
 1113TIP3    H124830   5.642   6.463   0.966 -1.3132 -0.3037 -0.1876
 1113TIP3    H224831   5.563   6.456   0.837  1.1464 -1.6366 -1.6513
 1114TIP3   OH224832   3.259   3.629  12.047 -0.1589 -0.4997 -0.1660
 1114TIP3    H124833   3.345   3.586  12.053 -0.5474 -1.3106 -0.3427
 1114TIP3    H224834   3.202   3.563  12.009 -0.7443  0.2240 -0.5578
 1115TIP3   OH224835   5.415   3.832   5.158  0.6205 -0.1497  0.4197
 1115TIP3    H124836   5.359   3.808   5.232  0.6492 -1.0427  0.1537
 1115TIP3    H224837   5.357   3.877   5.097 -0.5051 -3.7175 -1.2314
 1116TIP3   OH224838   5.813   5.714  13.344 -0.5724  0.0874 -0.8494
 1116TIP3    H124839   5.884   5.778  13.346  0.2752 -0.8636  0.5159
 1116TIP3    H224840   5.831   5.661  13.266  0.1734 -0.0957 -0.5539
 1117TIP3   OH224841   4.976   6.614   1.753  0.1374 -0.3665 -0.1251
 1117TIP3    H124842   5.002   6.646   1.839  0.8773 -0.6589 -0.2356
 1117TIP3    H224843   4.953   6.522   1.768 -0.9677 -0.0716 -0.0027
 1118TIP3   OH224844   0.331   2.953   4.041  0.7783  0.4389 -0.3576
 1118TIP3    H124845   0.406   2.936   4.097  0.2671  1.1997  0.5693
 1118TIP3    H224846   0.361   2.930   3.953  1.1846 -2.0346  0.3838
 1119TIP3   OH224847   1.257   5.512  13.947 -0.3005  0.4000  0.3940
 1119TIP3    H124848   1.171   5.546  13.922 -0.2784  1.4171  1.6210
 1119TIP3    H224849   1.272   5.548  14.035  2.5364  2.4956 -0.8819
 1120TIP3   OH224850   5.613   5.229   1.085 -0.2186 -0.3232  0.3102
 1120TIP3    H124851   5.539   5.266   1.036  0.4981  1.3631  0.4541
 1120TIP3    H224852   5.579   5.220   1.175 -0.1109  0.9166  0.4869
 1121TIP3   OH224853   4.411   3.491  12.390 -0.6742  0.1697  0.8372
 1121TIP3    H124854   4.352   3.423  12.421  0.0057 -0.1720  1.4074
 1121TIP3    H224855   4.426   3.546  12.467  2.0176 -1.3994  1.5162
 1122TIP3   OH224856   3.712   0.800   4.990  0.2167  0.0852  0.0507
 1122TIP3    H124857   3.798   0.823   4.955  0.0743 -0.2781 -0.5451
 1122TIP3    H224858   3.717   0.705   5.005  0.1937  0.1960  0.7864
 1123TIP3   OH224859   0.671   3.181   1.671 -0.4593 -0.3382 -0.0320
 1123TIP3    H124860   0.673   3.247   1.741 -0.2164 -0.3644 -0.0160
 1123TIP3    H224861   0.674   3.097   1.718  1.0089 -0.3524 -0.1205
 1124TIP3   OH224862   6.164   3.952   2.993 -0.2745  0.2690  0.4078
 1124TIP3    H124863   6.258   3.952   2.974  0.0765 -1.2248  2.0990
 1124TIP3    H224864   6.137   3.861   2.979 -0.9734  0.1780  2.2390
 1125TIP3   OH224865   6.702   5.572   0.686 -0.3383 -0.2440  0.1028
 1125TIP3    H124866   6.728   5.522   0.609 -1.0387  0.3382 -0.5180
 1125TIP3    H224867   6.712   5.511   0.759 -1.6448 -1.4287 -0.6906
 1126TIP3   OH224868   3.839   6.186   1.609  0.0168 -0.1461  0.7435
 1126TIP3    H124869   3.874   6.239   1.538 -1.9275 -0.1881 -0.2996
 1126TIP3    H224870   3.821   6.248   1.679 -1.6959  0.5298 -0.2521
 1127TIP3   OH224871   3.957   4.783   4.104 -0.5353 -0.7060  0.3998
 1127TIP3    H124872   3.991   4.798   4.016 -1.2757  0.8244  0.3697
 1127TIP3    H224873   4.027   4.735   4.148  0.2504 -0.6120 -0.7072
 1128TIP3   OH224874   3.950   0.372   0.351 -0.0271 -0.6274 -0.4419
 1128TIP3    H124875   3.933   0.446   0.293  0.2593 -1.2991 -1.3998
 1128TIP3    H224876   4.045   0.361   0.350 -0.0931 -1.2430 -0.6199
 1129TIP3   OH224877   2.902   4.537  16.621  0.2164  0.5384  0.6279
 1129TIP3    H124878   2.835   4.606  16.624 -0.3055  0.0284  1.0377
 1129TIP3    H224879   2.864   4.469  16.566 -0.2070 -0.3597  2.0056
 1130TIP3   OH224880   4.215   1.733  14.526 -0.4394  0.7267  0.3375
 1130TIP3    H124881   4.259   1.818  14.537  0.3989  0.3211  0.1665
 1130TIP3    H224882   4.284   1.668  14.542  0.0673  0.0895 -3.7822
 1131TIP3   OH224883   0.554   2.837  12.173 -0.1342 -0.1512  0.5213
 1131TIP3    H124884   0.624   2.883  12.218  0.1468  0.2432 -0.3166
 1131TIP3    H224885   0.595   2.757  12.138 -0.6231 -1.0717  1.9879
 1132TIP3   OH224886   2.965   5.495   5.673 -0.1517 -0.1288 -0.1622
 1132TIP3    H124887   2.913   5.572   5.651  0.2355  1.0667  2.9041
 1132TIP3    H224888   3.040   5.499   5.613 -1.9638 -0.2052 -2.5319
 1133TIP3   OH224889   6.524   0.507  16.076 -0.3780 -0.0806 -0.4566
 1133TIP3    H124890   6.554   0.574  16.016  1.3491 -0.0332  0.4419
 1133TIP3    H224891   6.566   0.528  16.159 -2.1789 -0.5473  0.6054
 1134TIP3   OH224892   5.730   2.847  13.057  0.4685 -0.2874  0.2427
 1134TIP3    H124893   5.702   2.938  13.057  1.0943 -0.0906  0.1701
 1134TIP3    H224894   5.822   2.850  13.030  0.6896 -0.8715  0.9102
 1135TIP3   OH224895   4.265   3.422   4.778 -0.5579 -0.0093  0.1336
 1135TIP3    H124896   4.258   3.511   4.814 -1.0293  0.0095  0.0009
 1135TIP3    H224897   4.177   3.404   4.744 -0.5608 -0.6741  0.5010
 1136TIP3   OH224898   2.598   3.079  12.822  0.1206 -0.1233 -0.5092
 1136TIP3    H124899   2.534   3.076  12.751  0.2875  0.2988 -0.6805
 1136TIP3    H224900   2.603   2.989  12.854  0.1312 -0.3385 -1.1116
 1137TIP3   OH224901   1.988   0.548  14.642 -0.7437  0.2170 -0.5909
 1137TIP3    H124902   1.934   0.627  14.632 -0.3612  0.4721 -0.6204
 1137TIP3    H224903   2.036   0.542  14.559  0.8278  1.1458  0.2320
 1138TIP3   OH224904   4.131   4.860   5.724 -0.0468 -0.1576 -0.1310
 1138TIP3    H124905   4.115   4.934   5.665 -1.7207 -0.7254 -0.4238
 1138TIP3    H224906   4.085   4.883   5.805  0.2408 -0.4432  0.1180
 1139TIP3   OH224907   0.197   6.616   1.716 -0.0130 -0.0149  0.4131
 1139TIP3    H124908   0.128   6.639   1.654 -0.9254 -4.9769 -0.5848
 1139TIP3    H224909   0.278   6.624   1.666 -0.5870 -2.1037 -0.8931
 1140TIP3   OH224910   5.083   2.459   4.026 -0.4722 -0.2645  0.1432
 1140TIP3    H124911   5.160   2.464   3.969  1.3944 -1.2275  2.5069
 1140TIP3    H224912   5.014   2.426   3.969  0.4172  2.0622 -2.4233
 1141TIP3   OH224913   5.640   3.509  12.397 -0.4408  0.1278 -0.2143
 1141TIP3    H124914   5.608   3.422  12.374 -0.2998  0.3423 -1.2292
 1141TIP3    H224915   5.665   3.502  12.490  0.9180 -1.3200 -0.6642
 1142TIP3   OH224916   3.999   2.719   6.234  0.5911 -0.4071 -0.3658
 1142TIP3    H124917   4.057   2.726   6.310 -0.6076  0.9529  0.4455
 1142TIP3    H224918   4.034   2.645   6.184  3.3824  0.7481 -0.2138
 1143TIP3   OH224919   0.695   1.150  12.817 -0.5746  0.3564  0.3503
 1143TIP3    H124920   0.624   1.185  12.763 -0.6527  1.3590  1.0882
 1143TIP3    H224921   0.734   1.227  12.859  0.6271 -0.2333  0.3461
 1144TIP3   OH224922   6.021   2.445  11.718 -0.6958 -0.3666  0.8490
 1144TIP3    H124923   6.005   2.358  11.753 -0.1740 -1.6625 -1.9771
 1144TIP3    H224924   6.013   2.435  11.623  1.7120  2.1336  0.2985
 1145TIP3   OH224925   6.247   3.583   0.748  0.1918  0.4680 -0.3839
 1145TIP3    H124926   6.284   3.582   0.836 -0.4231 -0.9187 -0.1337
 1145TIP3    H224927   6.159   3.618   0.760  0.2710  0.7193 -0.5244
 1146TIP3   OH224928   5.184   5.323   3.649 -0.5226 -0.1429 -0.1125
 1146TIP3    H124929   5.099   5.342   3.689 -1.4508 -0.6518 -1.7712
 1146TIP3    H224930   5.196   5.229   3.663 -0.5357 -0.1923 -0.4268
 1147TIP3   OH224931   3.452   3.837  15.888 -0.9175 -0.0588 -0.0289
 1147TIP3    H124932   3.433   3.930  15.872 -3.1108  0.1127  2.9739
 1147TIP3    H224933   3.380   3.808  15.944  1.1698 -2.8735  1.3013
 1148TIP3   OH224934   0.133   0.127   4.649 -0.1238 -0.3639  0.8882
 1148TIP3    H124935   0.134   0.173   4.565  0.4835 -0.7182  0.7025
 1148TIP3    H224936   0.043   0.097   4.658 -0.2183 -0.2260  0.4170
 1149TIP3   OH224937   2.056   0.213  12.385  0.1194  0.2390  0.4978
 1149TIP3    H124938   2.082   0.283  12.324  2.0404  0.1902  1.2383
 1149TIP3    H224939   2.060   0.133  12.332  1.8384  0.1884  0.6874
 1150TIP3   OH224940   3.256   2.082  16.608 -0.1252  0.0511 -0.1458
 1150TIP3    H124941   3.309   2.003  16.596 -1.6275 -0.7519 -1.7003
 1150TIP3    H224942   3.314   2.142  16.654  1.8908 -1.0702 -1.1224
 1151TIP3   OH224943   4.980   4.824  14.514  0.1540 -0.5326  0.5281
 1151TIP3    H124944   4.998   4.916  14.496 -0.6369 -0.5220 -0.2529
 1151TIP3    H224945   4.914   4.800  14.449  0.8838 -1.8507  0.2714
 1152TIP3   OH224946   6.053   4.740  13.823  0.1775 -0.3794  0.2605
 1152TIP3    H124947   5.993   4.796  13.871  0.4767 -1.3545  1.7962
 1152TIP3    H224948   6.129   4.731  13.880  0.6171 -1.4221 -0.4705
 1153TIP3   OH224949   5.866   5.880  15.317  0.0732 -0.3274 -0.9147
 1153TIP3    H124950   5.776   5.912  15.317 -0.0747 -0.7355 -0.7271
 1153TIP3    H224951   5.917   5.950  15.276 -0.3435 -0.1391 -1.1094
 1154TIP3   OH224952   5.243   5.811  16.713 -0.3248 -0.7217  0.7301
 1154TIP3    H124953   5.320   5.855  16.749  0.5963 -0.9261 -0.9474
 1154TIP3    H224954   5.257   5.718  16.732 -0.4036 -0.7002  0.8867
 1155TIP3   OH224955   3.341   2.085   3.087  0.4537  0.4555 -0.4629
 1155TIP3    H124956   3.261   2.043   3.053 -0.6432  1.2378  1.0881
 1155TIP3    H224957   3.309   2.145   3.155  2.2001  2.2654 -1.2190
 1156TIP3   OH224958   4.253   1.541  12.995  0.3199  0.5382  0.6545
 1156TIP3    H124959   4.207   1.480  13.054  2.2982  1.2823  3.0709
 1156TIP3    H224960   4.183   1.584  12.946 -1.2072 -2.3965  0.1488
 1157TIP3   OH224961   5.065   1.074  14.607  0.2257  0.1468 -0.4408
 1157TIP3    H124962   5.122   1.021  14.552 -1.7941 -0.1700 -2.3235
 1157TIP3    H224963   4.981   1.076  14.560 -0.3604  3.3262  0.5658
 1158TIP3   OH224964   0.876   2.811   4.194  0.6766  0.1632 -0.3301
 1158TIP3    H124965   0.962   2.769   4.182 -0.5035 -2.2014 -0.7920
 1158TIP3    H224966   0.825   2.783   4.118 -0.8620  0.5865  0.5283
 1159TIP3   OH224967   2.481   0.060   3.432 -0.0394 -0.0719 -0.5874
 1159TIP3    H124968   2.560   0.011   3.454  0.8382  0.9418 -1.4628
 1159TIP3    H224969   2.510   0.151   3.425 -1.2932  0.3175 -0.8395
 1160TIP3   OH224970   2.981   1.052   5.608 -0.1187  0.4128  0.2906
 1160TIP3    H124971   2.896   1.050   5.651  0.2915  0.8096  1.1416
 1160TIP3    H224972   2.990   1.143   5.578 -0.6578 -0.0085 -1.1625
 1161TIP3   OH224973   6.500   0.856  17.092  0.1639 -0.3255 -0.3764
 1161TIP3    H124974   6.576   0.803  17.070  0.0357  0.2354 -2.3043
 1161TIP3    H224975   6.536   0.943  17.111  0.1870 -0.5763  0.7440
 1162TIP3   OH224976   6.605   3.129   5.357 -0.0474 -0.3122 -0.0622
 1162TIP3    H124977   6.684   3.123   5.303 -1.4905  1.7240 -2.5613
 1162TIP3    H224978   6.584   3.223   5.357 -1.0602 -0.5210  2.6653
 1163TIP3   OH224979   6.270   0.507   1.299 -0.4059 -0.0153  0.0682
 1163TIP3    H124980   6.364   0.510   1.282 -0.6901 -0.5570 -1.7430
 1163TIP3    H224981   6.260   0.442   1.368  0.4507 -0.7305 -0.4674
 1164TIP3   OH224982   2.061   5.033  13.037  0.2322 -0.0714 -0.1131
 1164TIP3    H124983   2.077   4.944  13.008 -2.3866 -1.3902  2.3031
 1164TIP3    H224984   2.001   5.070  12.971  1.8963  0.1891 -1.5086
 1165TIP3   OH224985   0.191   5.062   5.093  0.1586  0.0454 -0.0666
 1165TIP3    H124986   0.128   5.019   5.035  0.3417 -1.3926  0.7946
 1165TIP3    H224987   0.137   5.113   5.153 -0.1864 -1.0979  0.5998
 1166TIP3   OH224988   4.977   2.232  16.436  0.5330  0.1122  0.6127
 1166TIP3    H124989   5.006   2.322  16.448 -0.0007  0.4264 -0.3989
 1166TIP3    H224990   5.014   2.185  16.510  2.1587  0.8484  0.2780
 1167TIP3   OH224991   1.563   6.341   2.272  0.2338 -0.3732 -0.2848
 1167TIP3    H124992   1.548   6.288   2.194  1.3216  0.0068 -0.7616
 1167TIP3    H224993   1.579   6.277   2.341  0.0675 -0.6996 -0.5453
 1168TIP3   OH224994   2.142   2.858  16.415 -0.3449  0.2254  1.1643
 1168TIP3    H124995   2.090   2.784  16.385 -0.0292  0.2736  0.4843
 1168TIP3    H224996   2.197   2.822  16.485 -2.7420  0.6370  3.3393
 1169TIP3   OH224997   6.022   4.429   6.319 -0.4929 -0.3514  0.0855
 1169TIP3    H124998   5.976   4.423   6.235  0.6587  0.9261 -0.6614
 1169TIP3    H224999   5.998   4.348   6.365 -1.5560 -0.8274 -1.2486
 1170TIP3   OH225000   6.415   6.814   0.866  0.0803  0.2135  0.2204
 1170TIP3    H125001   6.500   6.857   0.874  0.9221 -1.6583  1.7112
 1170TIP3    H225002   6.353   6.875   0.908  1.0949  0.3993  1.4690
 1171TIP3   OH225003   4.284   2.784  13.727  0.4416 -0.5733  0.2546
 1171TIP3    H125004   4.352   2.750  13.669  0.5392 -0.9700  0.6010
 1171TIP3    H225005   4.232   2.707  13.752 -1.4684  0.0153 -1.7450
 1172TIP3   OH225006   5.511   0.224  15.683  0.3062 -0.0731 -0.5110
 1172TIP3    H125007   5.427   0.207  15.641  0.2693 -2.5304  0.4548
 1172TIP3    H225008   5.504   0.315  15.714 -2.0866 -0.2945 -0.2590
 1173TIP3   OH225009   3.209   0.728  14.408  0.0305  0.5935 -0.2673
 1173TIP3    H125010   3.150   0.702  14.338  0.5427 -0.0971 -0.4484
 1173TIP3    H225011   3.263   0.797  14.370 -1.3736  2.0028  0.2345
 1174TIP3   OH225012   5.859   0.849  11.502  0.2904  0.3520 -0.4727
 1174TIP3    H125013   5.802   0.871  11.574  1.4807 -0.1936  0.6616
 1174TIP3    H225014   5.925   0.918  11.501  0.4027  0.2432 -0.8996
 1175TIP3   OH225015   5.680   1.180   0.684 -0.2771  0.0147 -0.1337
 1175TIP3    H125016   5.611   1.242   0.708 -0.5210 -0.3292  0.0431
 1175TIP3    H225017   5.642   1.094   0.699 -0.0537 -0.1848 -0.7150
 1176TIP3   OH225018   4.701   3.733  13.399  0.5782 -0.1166  0.4351
 1176TIP3    H125019   4.759   3.788  13.346 -0.0814  0.3798  0.2097
 1176TIP3    H225020   4.750   3.716  13.479  0.5319  1.4248  0.8203
 1177TIP3   OH225021   2.441   4.254  16.202  0.1290 -0.4203  0.3300
 1177TIP3    H125022   2.507   4.268  16.134  1.9357  0.7071  2.2647
 1177TIP3    H225023   2.489   4.216  16.275 -1.3527  0.4820  1.8008
 1178TIP3   OH225024   1.066   2.999   5.331 -0.1506  0.4618  0.2410
 1178TIP3    H125025   1.069   3.083   5.378  0.5011  0.3767  0.3670
 1178TIP3    H225026   1.065   3.024   5.239 -1.1449  0.6274  0.2981
 1179TIP3   OH225027   5.508   2.930  17.180  0.1518 -0.1553  0.3310
 1179TIP3    H125028   5.466   2.846  17.196  1.0252 -0.5758  0.4449
 1179TIP3    H225029   5.437   2.987  17.149 -0.6326 -0.6393  1.2302
 1180TIP3   OH225030   2.087   2.235  11.737  0.2519  0.2867 -0.2579
 1180TIP3    H125031   2.154   2.230  11.668 -0.6546 -0.0751 -1.1230
 1180TIP3    H225032   2.029   2.305  11.709 -0.2341  0.0048  0.0360
 1181TIP3   OH225033   1.960   4.785   1.974  0.3286  0.1060 -0.0310
 1181TIP3    H125034   1.878   4.752   2.012  0.3169 -2.3273 -2.0423
 1181TIP3    H225035   1.932   4.855   1.914 -0.2259 -0.3938 -0.3568
 1182TIP3   OH225036   5.931   2.138  14.375  0.4344  0.5614 -0.0208
 1182TIP3    H125037   5.904   2.065  14.432 -1.7461  0.6314 -0.9210
 1182TIP3    H225038   5.907   2.217  14.424  1.3488  0.6682  0.2654
 1183TIP3   OH225039   0.014   0.115  15.997  0.1943 -0.9961  0.0783
 1183TIP3    H125040  -0.031   0.073  16.070 -2.8031 -0.7072 -1.5450
 1183TIP3    H225041   0.008   0.209  16.017 -0.2251 -0.9397 -0.3238
 1184TIP3   OH225042   3.053   6.238  13.024 -0.0253 -0.0924 -0.6548
 1184TIP3    H125043   2.989   6.208  12.959  0.1511 -0.1142 -0.8194
 1184TIP3    H225044   3.112   6.163  13.035  0.3855  0.1757 -1.0242
 1185TIP3   OH225045   2.015   3.953   0.691 -0.2034 -0.1974 -0.5039
 1185TIP3    H125046   2.009   3.879   0.751  2.0021  1.4879  1.9095
 1185TIP3    H225047   2.109   3.968   0.680 -0.6061  1.9132 -1.3294
 1186TIP3   OH225048   3.891   3.687  15.639  0.5545 -0.6044  0.0063
 1186TIP3    H125049   3.933   3.726  15.562  1.4285 -0.4267  0.5634
 1186TIP3    H225050   3.798   3.701  15.625  0.7585  0.2067 -0.6130
 1187TIP3   OH225051   2.234   5.449  11.938 -0.0415 -0.3072 -0.1508
 1187TIP3    H125052   2.189   5.460  11.855  0.5934 -2.7218 -0.8601
 1187TIP3    H225053   2.282   5.367  11.929  1.6200  0.3741  1.8892
 1188TIP3   OH225054   3.623   1.457  15.978 -0.5325 -0.5838  0.8138
 1188TIP3    H125055   3.601   1.545  15.949  1.7204  0.2247  1.4635
 1188TIP3    H225056   3.539   1.414  15.991 -1.6379  1.0804 -0.6771
 1189TIP3   OH225057   0.724   1.843   4.615 -0.1256 -0.1194  0.5660
 1189TIP3    H125058   0.816   1.863   4.627 -0.2688  0.6232  0.4267
 1189TIP3    H225059   0.680   1.928   4.620 -1.0233 -0.6800  2.7419
 1190TIP3   OH225060   5.840   6.015   1.571  0.2195  0.2322 -0.8649
 1190TIP3    H125061   5.770   6.005   1.506 -0.9039 -0.9461  0.5044
 1190TIP3    H225062   5.916   5.971   1.531 -0.7883 -1.5125 -0.9169
 1191TIP3   OH225063   3.422   2.424  16.317 -0.3614 -0.2448  0.0276
 1191TIP3    H125064   3.483   2.426  16.391  0.2556 -1.8701 -0.4191
 1191TIP3    H225065   3.399   2.516  16.304  2.6826  0.5479 -0.3470
 1192TIP3   OH225066   6.693   2.302  12.793 -0.3330  0.1252 -0.2674
 1192TIP3    H125067   6.661   2.220  12.754  2.2845  0.0553 -2.4107
 1192TIP3    H225068   6.743   2.274  12.870  2.0658 -0.5219 -1.9896
 1193TIP3   OH225069   3.546   1.425   1.117 -0.1205  0.0377  0.0566
 1193TIP3    H125070   3.622   1.402   1.064  0.6847 -1.3199  1.7460
 1193TIP3    H225071   3.509   1.502   1.074  1.8077  0.3099 -1.1685
 1194TIP3   OH225072   2.065   0.099   0.090  0.0208 -0.2343  0.7572
 1194TIP3    H125073   1.994   0.132   0.146  2.1922  0.7590  3.0490
 1194TIP3    H225074   2.060   0.152   0.011 -0.6212  1.1637  1.7174
 1195TIP3   OH225075   3.490   6.107  16.382 -0.3970  0.6085 -0.1074
 1195TIP3    H125076   3.446   6.050  16.319 -0.7348  0.3220  0.3862
 1195TIP3    H225077   3.474   6.066  16.467  0.1920  0.9076  0.1502
 1196TIP3   OH225078   0.814   3.629   0.335  0.4269  0.1253 -0.1132
 1196TIP3    H125079   0.737   3.686   0.329 -0.1689 -0.8286 -1.9901
 1196TIP3    H225080   0.787   3.559   0.395  0.3974  0.6490  0.4857
 1197TIP3   OH225081   3.959   1.326  11.109 -0.0828  0.5584  0.4893
 1197TIP3    H125082   4.026   1.272  11.067 -0.6063  1.2853 -1.3517
 1197TIP3    H225083   3.876   1.288  11.080 -0.4621  1.0338  0.9384
 1198TIP3   OH225084   3.216   3.870   2.506 -0.4370  0.1992 -0.0027
 1198TIP3    H125085   3.165   3.808   2.453  1.7057 -0.6712 -1.1299
 1198TIP3    H225086   3.199   3.955   2.467 -0.7804 -0.1252 -0.5686
 1199TIP3   OH225087   5.440   1.782   5.411 -0.8614 -0.0132 -0.2990
 1199TIP3    H125088   5.393   1.819   5.336 -0.9089 -1.1890 -0.8548
 1199TIP3    H225089   5.402   1.695   5.423 -0.9561  0.2314  1.1965
 1200TIP3   OH225090   4.007   0.969   1.046  0.4709 -0.0224  0.6036
 1200TIP3    H125091   3.996   1.032   1.117  0.4540  0.1386  0.4599
 1200TIP3    H225092   4.091   0.992   1.006  1.0752 -0.9027  1.3523
 1201TIP3   OH225093   0.558   2.633  15.420  0.3498 -0.1601  0.0955
 1201TIP3    H125094   0.525   2.618  15.508 -2.0588 -1.3828 -0.9636
 1201TIP3    H225095   0.507   2.707  15.387  0.7488 -0.1460 -0.5047
 1202TIP3   OH225096   0.747   3.570  17.072 -0.4349 -0.0117 -0.4224
 1202TIP3    H125097   0.837   3.600  17.067 -0.6236  0.5387 -0.5643
 1202TIP3    H225098   0.747   3.485  17.028 -0.0108  0.0449 -0.5282
 1203TIP3   OH225099   0.210   3.524   4.569 -0.1122  0.0582  0.2019
 1203TIP3    H125100   0.189   3.489   4.482  0.4963 -2.6206  1.0730
 1203TIP3    H225101   0.132   3.504   4.622 -0.1031  0.8255  0.5169
 1204TIP3   OH225102   5.837   3.395  12.173 -0.1552 -0.4729 -0.2351
 1204TIP3    H125103   5.933   3.390  12.178 -0.3170 -2.1171  1.7874
 1204TIP3    H225104   5.813   3.456  12.243 -0.5557  0.5311 -1.2365
 1205TIP3   OH225105   4.517   5.598   4.490 -0.8006  0.2141  0.3830
 1205TIP3    H125106   4.601   5.638   4.511 -0.9447  0.1041  1.2236
 1205TIP3    H225107   4.537   5.534   4.422 -0.0539 -0.3700  1.1321
 1206TIP3   OH225108   2.870   3.363   0.416  0.3730 -0.1640  0.4668
 1206TIP3    H125109   2.830   3.308   0.350 -0.7110 -1.4094  2.1318
 1206TIP3    H225110   2.916   3.302   0.474  1.5091  0.9180  0.7299
 1207TIP3   OH225111   0.189   1.702   6.515 -0.2221 -0.2062  0.6831
 1207TIP3    H125112   0.182   1.659   6.600 -1.5035  1.3535  1.3915
 1207TIP3    H225113   0.251   1.773   6.530  1.9766 -1.8059 -0.5102
 1208TIP3   OH225114   6.623   4.814  15.162  0.8533 -0.3713 -0.4458
 1208TIP3    H125115   6.636   4.842  15.072 -1.4060  0.4405 -0.5612
 1208TIP3    H225116   6.585   4.727  15.156  0.3134 -0.1480 -0.2862
 1209TIP3   OH225117   3.800   5.643   4.767 -0.2455  0.3745  0.3963
 1209TIP3    H125118   3.776   5.611   4.680  0.1174  0.1973  0.3615
 1209TIP3    H225119   3.895   5.655   4.763 -0.3045  0.9102  0.5892
 1210TIP3   OH225120   1.017   0.253  16.990 -0.2387  0.3407 -0.2946
 1210TIP3    H125121   1.019   0.159  17.002  0.8645 -0.0284 -2.8943
 1210TIP3    H225122   1.092   0.286  17.040  0.3097 -0.3434 -0.6666
 1211TIP3   OH225123   0.860   5.747   1.114  0.0600 -0.4962  0.9213
 1211TIP3    H125124   0.952   5.746   1.140  0.4306  3.7859  0.1542
 1211TIP3    H225125   0.843   5.838   1.092 -3.6970 -1.6853 -1.4731
 1212TIP3   OH225126   4.674   0.105  11.673 -0.1952  0.4390 -0.2831
 1212TIP3    H125127   4.624   0.031  11.640  2.0301 -0.9573 -0.6410
 1212TIP3    H225128   4.629   0.131  11.753 -1.3701 -0.8852 -0.5003
 1213TIP3   OH225129   5.705   2.897   5.109  0.2144  0.0299 -0.0834
 1213TIP3    H125130   5.745   2.894   5.196 -0.4107  0.3565  0.2221
 1213TIP3    H225131   5.708   2.990   5.085 -0.3674  0.0587 -0.0508
 1214TIP3   OH225132   3.401   0.125  11.865  0.3204  0.3797  0.5933
 1214TIP3    H125133   3.491   0.149  11.842  0.3582 -0.0579  0.2756
 1214TIP3    H225134   3.408   0.088  11.953  0.6983 -1.1352 -0.0572
 1215TIP3   OH225135   4.405   1.042   5.003 -0.4342  0.1287 -0.0897
 1215TIP3    H125136   4.490   1.001   5.020  0.7407  1.4621 -2.5218
 1215TIP3    H225137   4.403   1.118   5.061 -1.6562 -2.0093  2.7826
 1216TIP3   OH225138   6.536   3.395  12.121 -0.7175  0.7710  0.2183
 1216TIP3    H125139   6.593   3.402  12.045  0.4722 -2.0842  0.7454
 1216TIP3    H225140   6.449   3.418  12.089 -0.3187 -0.7944 -2.1341
 1217TIP3   OH225141   2.458   4.022  11.622  0.1471  0.2115 -0.3791
 1217TIP3    H125142   2.491   3.965  11.692  0.6891 -1.1321 -1.6892
 1217TIP3    H225143   2.492   3.983  11.541 -0.6899  1.5759 -1.4213
 1218TIP3   OH225144   5.139   3.661   1.126 -0.1604  0.5641  1.0565
 1218TIP3    H125145   5.184   3.595   1.179 -0.5957 -0.1568  0.5284
 1218TIP3    H225146   5.132   3.737   1.184  3.8111  1.5087  0.3960
 1219TIP3   OH225147   1.820   3.860   1.830 -0.2815  0.1740 -0.2012
 1219TIP3    H125148   1.734   3.903   1.831 -0.8977 -0.9478 -1.8113
 1219TIP3    H225149   1.804   3.774   1.870  0.3112  0.3551  0.4194
 1220TIP3   OH225150   3.142   0.974   5.858 -0.0658 -0.0753  0.1013
 1220TIP3    H125151   3.167   0.930   5.939 -1.5684 -0.5140  0.3527
 1220TIP3    H225152   3.139   0.904   5.792  1.8947  0.4052 -0.5132
 1221TIP3   OH225153   2.398   0.549   6.045  0.4766  0.0836 -0.1081
 1221TIP3    H125154   2.483   0.580   6.079  1.0310 -0.7981 -0.6805
 1221TIP3    H225155   2.333   0.601   6.093  1.3047  0.1055  1.0167
 1222TIP3   OH225156   4.098   2.831  16.672 -0.2957  0.2861 -0.3634
 1222TIP3    H125157   4.055   2.805  16.591  1.2276  0.5794 -1.2915
 1222TIP3    H225158   4.130   2.920  16.655  0.3365  0.2188  0.4303
 1223TIP3   OH225159   5.259   0.669  11.556  0.6517 -0.2565 -0.1960
 1223TIP3    H125160   5.349   0.637  11.564  0.1990 -1.5784 -0.2718
 1223TIP3    H225161   5.207   0.591  11.541 -0.9406  0.0828  2.9971
 1224TIP3   OH225162   4.339   6.723   3.508  0.4075  0.5068 -0.2774
 1224TIP3    H125163   4.390   6.655   3.552 -1.2461 -1.0799 -0.7582
 1224TIP3    H225164   4.283   6.759   3.577  2.1019  2.2163  0.2404
 1225TIP3   OH225165   1.422   0.593   4.652 -0.5885  0.2094 -0.5663
 1225TIP3    H125166   1.456   0.513   4.612  1.3105 -0.0785  1.5141
 1225TIP3    H225167   1.492   0.622   4.711 -2.3786  1.8662  0.8060
 1226TIP3   OH225168   6.747   4.555   1.381 -0.0391  0.0917 -0.3279
 1226TIP3    H125169   6.790   4.619   1.439 -0.6279  2.3136 -2.2721
 1226TIP3    H225170   6.776   4.580   1.293  0.1813 -2.7295 -1.0820
 1227TIP3   OH225171   4.417   0.625  12.263 -0.1313 -0.3349  0.0984
 1227TIP3    H125172   4.391   0.619  12.356 -0.3446  0.2172  0.0767
 1227TIP3    H225173   4.360   0.562  12.219 -0.1681 -0.4556  0.3156
 1228TIP3   OH225174   2.189   6.086  15.102  0.1063  0.5400 -0.1337
 1228TIP3    H125175   2.219   6.174  15.076  0.4116 -0.0020 -1.7060
 1228TIP3    H225176   2.259   6.053  15.158  1.5664  0.0667 -2.1716
 1229TIP3   OH225177   1.415   0.308   0.544  0.0124 -0.1627 -0.1118
 1229TIP3    H125178   1.396   0.234   0.601  0.3002  0.3959  0.7121
 1229TIP3    H225179   1.332   0.354   0.536  0.0163 -0.1340  0.0125
 1230TIP3   OH225180   3.806   2.311   0.173 -0.4492  0.0574 -0.0955
 1230TIP3    H125181   3.869   2.332   0.104  0.5120  0.8284  1.0044
 1230TIP3    H225182   3.776   2.396   0.206 -0.3506 -0.3012  0.9385
 1231TIP3   OH225183   3.987   0.668  13.575  0.3648  0.6101  0.5737
 1231TIP3    H125184   3.971   0.574  13.564 -1.7503  1.1325 -1.3961
 1231TIP3    H225185   4.082   0.677  13.576  0.5849 -1.6351  1.5610
 1232TIP3   OH225186   0.193   3.838   3.129  0.0696  0.2187  0.8682
 1232TIP3    H125187   0.229   3.917   3.168  1.2695 -0.0109  0.2502
 1232TIP3    H225188   0.196   3.774   3.201  1.4150  0.0540  0.6906
 1233TIP3   OH225189   6.797   4.833  11.766  0.5733  0.2574  0.2281
 1233TIP3    H125190   6.786   4.738  11.771  0.8102  0.2856  1.3089
 1233TIP3    H225191   6.857   4.846  11.693 -1.6869 -0.2459 -1.8137
 1234TIP3   OH225192   2.906   4.094  16.091 -0.5897 -0.1565 -0.1722
 1234TIP3    H125193   2.870   4.037  16.159  0.8795  0.1972  0.9301
 1234TIP3    H225194   2.934   4.034  16.021 -0.1506 -0.6927  0.4621
 1235TIP3   OH225195   0.216   0.594  13.858 -0.2784  0.3660 -0.0289
 1235TIP3    H125196   0.210   0.630  13.769  0.6222  0.3003 -0.1221
 1235TIP3    H225197   0.254   0.666  13.910  1.1168 -0.2756 -0.1266
 1236TIP3   OH225198   2.968   1.472  16.632 -0.3395  0.0551 -0.2311
 1236TIP3    H125199   2.917   1.438  16.558 -1.1843  0.3093  0.2270
 1236TIP3    H225200   3.053   1.494  16.594 -1.0011  0.8586 -1.2773
 1237TIP3   OH225201   6.314   4.108   2.446 -0.0683 -0.2244  0.0123
 1237TIP3    H125202   6.305   4.047   2.520  2.2766 -0.6671 -0.0128
 1237TIP3    H225203   6.387   4.165   2.471  0.0441  0.3244 -1.4997
 1238TIP3   OH225204   2.651   1.295  11.341  0.7013  0.1013 -0.6656
 1238TIP3    H125205   2.663   1.321  11.250 -0.3884 -0.7709 -1.0571
 1238TIP3    H225206   2.722   1.341  11.388  1.2103  0.6224 -1.9184
 1239TIP3   OH225207   4.581   3.325  10.432 -0.0707  0.0561  0.8081
 1239TIP3    H125208   4.551   3.411  10.461 -0.7610 -0.2481  0.9840
 1239TIP3    H225209   4.571   3.327  10.337  2.2860  1.0915  0.5272
 1240TIP3   OH225210   1.167   2.398  14.302 -0.0822 -0.0952 -0.8853
 1240TIP3    H125211   1.173   2.459  14.229  0.6773 -0.6182 -1.2785
 1240TIP3    H225212   1.196   2.314  14.265 -1.8349 -0.8675 -0.5594
 1241TIP3   OH225213   5.984   5.431  14.660 -0.5588 -0.0185 -0.1634
 1241TIP3    H125214   6.041   5.508  14.652  0.6092 -0.8797 -0.1096
 1241TIP3    H225215   5.937   5.428  14.576  0.9197 -0.4643 -0.9805
 1242TIP3   OH225216   0.656   6.587   1.246 -0.2046 -0.5867 -0.1345
 1242TIP3    H125217   0.717   6.591   1.172  0.0140  0.3521  0.0909
 1242TIP3    H225218   0.601   6.510   1.228  1.2040 -1.5953 -0.2012
 1243TIP3   OH225219   3.850   5.413  13.933  0.0860 -0.2538 -0.4836
 1243TIP3    H125220   3.885   5.460  14.009 -1.6324 -2.3881  1.6878
 1243TIP3    H225221   3.928   5.377  13.889  1.0743  0.7734  0.4027
 1244TIP3   OH225222   1.128   5.176   1.627 -0.2812 -0.5693 -0.7251
 1244TIP3    H125223   1.136   5.241   1.696 -1.0020 -1.6546  0.4092
 1244TIP3    H225224   1.065   5.214   1.565 -2.0852 -0.9338  0.8377
 1245TIP3   OH225225   5.955   1.358  15.785 -0.1598 -0.2678  0.1396
 1245TIP3    H125226   6.019   1.397  15.844  1.3766 -1.2084 -0.8855
 1245TIP3    H225227   5.916   1.433  15.740 -0.1137  0.3387  1.0849
 1246TIP3   OH225228   5.460   6.230   0.593  0.3845  0.2080  0.3729
 1246TIP3    H125229   5.441   6.320   0.567  1.0031 -0.6366 -3.1882
 1246TIP3    H225230   5.542   6.237   0.643  1.3157  1.4236 -1.2810
 1247TIP3   OH225231   0.231   2.287   2.619 -0.1641  0.6330  0.4709
 1247TIP3    H125232   0.143   2.308   2.590  1.2708  3.5465 -2.0772
 1247TIP3    H225233   0.232   2.191   2.625 -2.8966  0.4282 -1.3962
 1248TIP3   OH225234   5.899   1.831  17.071 -0.5825 -0.2910 -0.5841
 1248TIP3    H125235   5.933   1.830  16.981 -0.4871  2.0993 -0.5955
 1248TIP3    H225236   5.957   1.771  17.119  1.5663  1.1056 -1.3741
 1249TIP3   OH225237   0.331   3.036   2.986 -0.3291 -0.0354 -0.7729
 1249TIP3    H125238   0.242   3.026   2.952 -0.4551  3.5197 -1.6375
 1249TIP3    H225239   0.321   3.081   3.070  0.5139 -2.0150  0.4278
 1250TIP3   OH225240   2.381   0.279  14.859  0.7506 -0.0487 -0.6834
 1250TIP3    H125241   2.339   0.365  14.847  0.3351  0.0027  1.0047
 1250TIP3    H225242   2.451   0.278  14.794  0.1513  1.1859 -1.3731
 1251TIP3   OH225243   2.896   0.521  12.018 -0.7232 -0.1854  0.6566
 1251TIP3    H125244   2.809   0.528  11.979 -0.0192 -1.2690 -1.2051
 1251TIP3    H225245   2.923   0.611  12.035 -1.9466  0.1874  0.6693
 1252TIP3   OH225246   1.668   6.764  12.032  0.7198 -0.2914  0.3931
 1252TIP3    H125247   1.631   6.802  12.112  4.3853  2.3638  0.9522
 1252TIP3    H225248   1.594   6.760  11.971 -1.1046  2.1949  2.3215
 1253TIP3   OH225249   0.710   1.159   4.805  0.6343  0.3321  0.1728
 1253TIP3    H125250   0.782   1.155   4.742 -0.3165  1.2235 -0.9994
 1253TIP3    H225251   0.654   1.085   4.782  0.5807  0.3223  0.3351
 1254TIP3   OH225252   3.935   0.007  12.758  0.1435  0.4159  0.5655
 1254TIP3    H125253   3.961   0.089  12.716  3.0360 -0.6035  0.3044
 1254TIP3    H225254   3.963  -0.062  12.698 -0.7118 -0.8334  1.5748
 1255TIP3   OH225255   3.320   4.455  11.194  0.4174  0.0197 -0.1814
 1255TIP3    H125256   3.254   4.501  11.246  1.3343  0.6665  0.4180
 1255TIP3    H225257   3.292   4.470  11.103  0.1488  0.9151  0.0384
 1256TIP3   OH225258   6.031   2.645  14.820  0.1957  0.4059  0.1539
 1256TIP3    H125259   6.086   2.661  14.897  0.9036  0.1982 -0.2999
 1256TIP3    H225260   5.987   2.562  14.838  0.4464  0.3014  0.2901
 1257TIP3   OH225261   5.839   1.268   1.256  0.4067  0.3376  0.5217
 1257TIP3    H125262   5.745   1.274   1.241  1.0221  3.6357 -2.7856
 1257TIP3    H225263   5.866   1.190   1.209 -0.3168  0.9582 -0.9683
 1258TIP3   OH225264   3.659   2.918  11.863 -0.1773 -0.0915 -0.5940
 1258TIP3    H125265   3.582   2.907  11.808 -1.0229 -0.1748  0.5996
 1258TIP3    H225266   3.681   3.011  11.854 -0.3367 -0.0940 -1.0318
 1259TIP3   OH225267   1.634   1.780  16.470 -0.1883  0.2431 -0.1430
 1259TIP3    H125268   1.593   1.865  16.457  0.3111  0.5083 -0.0006
 1259TIP3    H225269   1.727   1.800  16.484  0.3029 -0.4485 -2.1790
 1260TIP3   OH225270   6.295   0.273   6.408  0.3927 -0.9843 -0.1568
 1260TIP3    H125271   6.303   0.220   6.487 -0.3365 -0.5824  0.1942
 1260TIP3    H225272   6.291   0.209   6.337 -0.4731 -1.4110  0.2588
 1261TIP3   OH225273   1.262   3.759   2.537  0.4652 -0.0946  0.2738
 1261TIP3    H125274   1.220   3.748   2.452 -0.5270  0.5192  0.6712
 1261TIP3    H225275   1.221   3.692   2.593  1.0192 -0.4117  0.3008
 1262TIP3   OH225276   4.225   1.488   6.126 -0.5059 -0.0496 -0.9863
 1262TIP3    H125277   4.175   1.519   6.202 -1.2887 -2.7448 -0.3483
 1262TIP3    H225278   4.160   1.480   6.057 -0.4851 -1.1589 -0.8752
 1263TIP3   OH225279   0.210   2.601   4.973  0.2706 -0.0097  0.8100
 1263TIP3    H125280   0.184   2.517   4.935  2.0596 -0.3721  0.3437
 1263TIP3    H225281   0.212   2.661   4.898 -0.0442  0.2297  0.9889
 1264TIP3   OH225282   6.252   2.909  14.538 -0.0253 -0.0052 -0.0697
 1264TIP3    H125283   6.315   2.949  14.478 -0.5587  0.3088 -0.4169
 1264TIP3    H225284   6.271   2.815  14.533  0.1162  0.0477 -0.5146
 1265TIP3   OH225285   3.568   4.936   2.132 -0.4246 -0.2567 -0.7347
 1265TIP3    H125286   3.475   4.942   2.153 -0.4518 -2.5127 -0.1594
 1265TIP3    H225287   3.571   4.898   2.044 -0.0178 -2.9579  0.3986
 1266TIP3   OH225288   3.193   2.240   3.242 -0.2079  1.1060 -0.2405
 1266TIP3    H125289   3.216   2.333   3.238 -0.0414  1.1194  0.7023
 1266TIP3    H225290   3.103   2.239   3.276  0.5795  0.8758  1.9655
 1267TIP3   OH225291   0.433   5.350  17.176  0.9694  0.1198  0.0891
 1267TIP3    H125292   0.504   5.409  17.202  1.5539 -2.1009  3.8145
 1267TIP3    H225293   0.477   5.271  17.146  0.1217  0.0611 -1.0197
 1268TIP3   OH225294   0.379   0.855   4.226  0.2082 -0.5872  0.0522
 1268TIP3    H125295   0.401   0.943   4.197  0.7349 -1.0017 -0.8130
 1268TIP3    H225296   0.354   0.866   4.318  0.9239  0.3601  0.1439
 1269TIP3   OH225297   1.440   4.889   4.437 -0.4885 -0.3944  0.3274
 1269TIP3    H125298   1.505   4.905   4.505 -2.0154  0.0049  1.7138
 1269TIP3    H225299   1.435   4.972   4.389 -0.7879 -0.0728  0.9162
 1270TIP3   OH225300   6.230   1.205   0.241 -0.2852  0.2083  0.3013
 1270TIP3    H125301   6.252   1.135   0.302  0.4271  2.3205  2.5634
 1270TIP3    H225302   6.134   1.203   0.235 -0.2407 -1.3552 -0.2133
 1271TIP3   OH225303   2.520   2.983   1.872 -0.1823  0.8312 -0.2937
 1271TIP3    H125304   2.523   3.065   1.921  0.3446  1.5367 -1.4736
 1271TIP3    H225305   2.582   2.996   1.800  0.9745 -1.1349  0.3146
 1272TIP3   OH225306   1.833   1.097   3.300  0.6001  0.3944  0.4707
 1272TIP3    H125307   1.741   1.098   3.323  0.2042 -2.8896 -0.7002
 1272TIP3    H225308   1.878   1.132   3.377 -1.5025  0.8990  1.4967
 1273TIP3   OH225309   0.812   3.607  11.086  0.0611  0.4069  0.3977
 1273TIP3    H125310   0.817   3.659  11.006  0.5778 -0.6631 -0.2744
 1273TIP3    H225311   0.718   3.600  11.105 -0.0900  0.1110 -0.4703
 1274TIP3   OH225312   2.565   0.204   5.316 -0.3152  0.0228  0.2168
 1274TIP3    H125313   2.509   0.129   5.294  2.2343 -1.4868 -1.4055
 1274TIP3    H225314   2.542   0.270   5.251  1.8623 -1.7146 -2.4670
 1275TIP3   OH225315   3.120   5.258  12.466 -0.6419  0.0957 -0.7314
 1275TIP3    H125316   3.083   5.170  12.476 -1.1306  0.4040  0.3049
 1275TIP3    H225317   3.079   5.309  12.536  2.6495  0.1688  1.2667
 1276TIP3   OH225318   2.459   5.661   3.841  0.3547 -0.0708  0.3553
 1276TIP3    H125319   2.464   5.639   3.748 -2.2479  0.1132  0.1195
 1276TIP3    H225320   2.538   5.713   3.858  0.9523 -0.2706 -1.6997
 1277TIP3   OH225321   6.410   5.417  16.827  0.5320 -0.3935 -0.1562
 1277TIP3    H125322   6.326   5.417  16.782  0.6415 -0.6578 -0.3641
 1277TIP3    H225323   6.475   5.424  16.757  0.7707 -2.4011 -0.1798
 1278TIP3   OH225324   1.153   4.056   6.418 -0.0404  0.3945 -0.4726
 1278TIP3    H125325   1.234   4.091   6.455  0.1301  0.4548 -0.8966
 1278TIP3    H225326   1.173   3.964   6.401 -0.0317  0.4330 -0.6673
 1279TIP3   OH225327   6.066   6.281  12.373 -0.0311 -0.4832 -0.6376
 1279TIP3    H125328   6.070   6.245  12.461  0.4876 -0.8303 -0.8063
 1279TIP3    H225329   5.980   6.324  12.369 -0.4908 -1.3539 -0.3093
 1280TIP3   OH225330   1.298   0.896  16.193  0.1146  0.6879  0.0957
 1280TIP3    H125331   1.262   0.829  16.251 -0.9163  1.1209 -0.0170
 1280TIP3    H225332   1.390   0.872  16.181 -0.2043 -0.6040  0.1835
 1281TIP3   OH225333   1.145   3.387   3.989  0.0085 -0.6222  0.2150
 1281TIP3    H125334   1.204   3.457   4.017 -0.9335  0.8422 -1.3618
 1281TIP3    H225335   1.105   3.356   4.070 -0.3479  1.4002  0.8585
 1282TIP3   OH225336   1.207   5.971  11.679  0.1569  0.2382  0.1938
 1282TIP3    H125337   1.148   5.961  11.754 -2.1161  1.1770 -1.4322
 1282TIP3    H225338   1.271   5.901  11.690  0.5058  1.0024  3.5708
 1283TIP3   OH225339   2.894   2.854  14.195  0.6514 -0.0657  0.5302
 1283TIP3    H125340   2.853   2.923  14.142  0.3681  0.4612  1.4254
 1283TIP3    H225341   2.966   2.822  14.140  0.7725  0.9251  0.0983
 1284TIP3   OH225342   5.461   1.717  13.002  0.7179 -0.0717 -0.7791
 1284TIP3    H125343   5.451   1.737  13.096  1.9538 -2.0386 -0.2101
 1284TIP3    H225344   5.510   1.635  13.000 -0.6596 -0.8699 -3.1496
 1285TIP3   OH225345   3.395   0.045   5.956  0.5562  0.1916 -0.6650
 1285TIP3    H125346   3.472   0.080   6.000  0.9233  1.3432 -2.1849
 1285TIP3    H225347   3.341   0.122   5.937 -0.5227 -0.5042 -0.4671
 1286TIP3   OH225348   3.509   3.524   2.609 -0.0065 -0.1691 -0.5650
 1286TIP3    H125349   3.498   3.614   2.580  1.5802  0.6015  1.1721
 1286TIP3    H225350   3.593   3.496   2.572 -0.1215 -0.6817 -0.4487
 1287TIP3   OH225351   0.318   1.324  14.260 -0.3762  0.1267  0.5059
 1287TIP3    H125352   0.240   1.376  14.243 -0.1285 -0.0744 -1.4013
 1287TIP3    H225353   0.381   1.354  14.194  0.3307 -1.4016  0.4765
 1288TIP3   OH225354   3.878   1.104  12.671 -0.5912 -0.0766  0.0676
 1288TIP3    H125355   3.930   1.152  12.736 -0.2269 -1.2524  0.6653
 1288TIP3    H225356   3.788   1.112  12.702 -0.4799 -0.1580  0.4203
 1289TIP3   OH225357   6.670   6.501  11.127 -0.0889  0.0701 -0.5986
 1289TIP3    H125358   6.589   6.510  11.076 -2.0407  2.5360  2.7052
 1289TIP3    H225359   6.735   6.550  11.076 -1.6432  1.3507 -1.4275
 1290TIP3   OH225360   2.744   6.579   0.411 -0.3546 -0.0045 -0.1447
 1290TIP3    H125361   2.801   6.526   0.468 -1.2026 -0.1281  0.6121
 1290TIP3    H225362   2.779   6.668   0.419 -0.2147 -0.0912  0.2652
 1291TIP3   OH225363   1.620   1.984   3.485  0.5817 -0.4321 -0.0904
 1291TIP3    H125364   1.569   1.918   3.533  1.6826 -0.4389  1.0945
 1291TIP3    H225365   1.603   2.066   3.531  2.5393 -0.6316  1.0777
 1292TIP3   OH225366   1.825   2.742   1.306 -0.3682  0.2649 -0.1939
 1292TIP3    H125367   1.896   2.711   1.362 -2.0856 -0.8260  1.4355
 1292TIP3    H225368   1.843   2.835   1.292  0.1189  0.5280  2.1036
 1293TIP3   OH225369   6.092   5.274   4.013 -0.2386  0.1765 -0.2467
 1293TIP3    H125370   6.113   5.262   3.920 -1.0843 -1.6458 -0.2145
 1293TIP3    H225371   6.010   5.226   4.026 -1.6930  2.8594  0.8108
 1294TIP3   OH225372   2.220   0.346   5.083  0.0978 -0.6355  0.2393
 1294TIP3    H125373   2.195   0.428   5.126 -0.3025  0.0158 -1.1936
 1294TIP3    H225374   2.315   0.351   5.076 -0.1035  1.0601 -2.3606
 1295TIP3   OH225375   0.580   0.873  12.362 -0.2500 -0.2437 -0.4278
 1295TIP3    H125376   0.534   0.823  12.295 -2.7843  1.2332  0.1357
 1295TIP3    H225377   0.627   0.941  12.313  0.5666 -1.1802 -0.9427
 1296TIP3   OH225378   6.726   5.365   5.020  0.4634  0.3609 -0.9917
 1296TIP3    H125379   6.680   5.338   4.941 -0.8990  1.2462 -0.5122
 1296TIP3    H225380   6.713   5.460   5.024  2.5021  0.6697 -0.9554
 1297TIP3   OH225381   6.122   1.626  15.069 -0.0534  0.5319  0.3770
 1297TIP3    H125382   6.166   1.670  15.142  1.2497 -1.4508  0.8421
 1297TIP3    H225383   6.103   1.696  15.006  3.3396  1.5847  0.4041
 1298TIP3   OH225384   6.717   6.596   1.033  0.3891 -0.2779 -0.4506
 1298TIP3    H125385   6.708   6.655   1.108  0.3353 -1.0956  0.1919
 1298TIP3    H225386   6.724   6.509   1.071  2.4190 -0.5251 -1.3003
 1299TIP3   OH225387   2.293   3.973   0.693 -0.1902 -0.0895  0.2457
 1299TIP3    H125388   2.338   3.947   0.774  0.8735  2.3759  0.5151
 1299TIP3    H225389   2.362   4.012   0.639 -0.9218 -1.5946 -1.8220
 1300TIP3   OH225390   0.077   6.341  11.901 -0.3340 -0.2792  0.1510
 1300TIP3    H125391   0.162   6.382  11.918 -0.8978  0.1962  1.9583
 1300TIP3    H225392   0.053   6.301  11.985 -3.0972  1.8723  0.4479
 1301TIP3   OH225393   0.543   4.716   0.502 -0.1724  0.2499  0.5460
 1301TIP3    H125394   0.577   4.643   0.451  0.9710  1.4010 -0.3483
 1301TIP3    H225395   0.471   4.750   0.450  0.7223  1.1572 -0.1057
 1302TIP3   OH225396   4.521   4.867  14.695 -0.2284 -0.0383 -0.3684
 1302TIP3    H125397   4.499   4.941  14.639  1.8072  1.9487  1.3403
 1302TIP3    H225398   4.440   4.846  14.741 -1.0364  0.5744 -1.5169
 1303TIP3   OH225399   3.370   5.798   0.492  0.2066  0.1220  0.7162
 1303TIP3    H125400   3.358   5.705   0.475  1.3556 -0.1053  1.1107
 1303TIP3    H225401   3.282   5.835   0.487 -0.4199 -1.1912  1.7980
 1304TIP3   OH225402   1.103   6.305  16.017 -0.3367 -0.4428  0.0074
 1304TIP3    H125403   1.096   6.381  16.075 -0.9896  0.9537 -1.8263
 1304TIP3    H225404   1.174   6.253  16.053 -0.2376  0.7659  1.6126
 1305TIP3   OH225405   4.564   4.637  11.596  0.2056  0.1267  0.0897
 1305TIP3    H125406   4.627   4.571  11.625  0.7825 -0.7900 -3.0824
 1305TIP3    H225407   4.487   4.586  11.570 -0.4455  0.9578  0.3823
 1306TIP3   OH225408   1.299   1.270   3.098  0.3001 -0.5053  0.2045
 1306TIP3    H125409   1.215   1.229   3.121 -0.5701  1.4936  0.8068
 1306TIP3    H225410   1.303   1.348   3.155  0.8206  1.4325 -2.3956
 1307TIP3   OH225411   5.967   3.922  12.705  0.1906  0.0849 -0.0162
 1307TIP3    H125412   5.919   3.998  12.739 -0.5590 -1.2553  2.0292
 1307TIP3    H225413   5.993   3.874  12.783  1.6982 -1.1470 -1.2561
 1308TIP3   OH225414   0.439   3.507  12.095  0.3889  0.4858  0.1891
 1308TIP3    H125415   0.419   3.415  12.076  0.4490  0.7330 -1.1443
 1308TIP3    H225416   0.363   3.555  12.061  0.2980  0.9251  0.9941
 1309TIP3   OH225417   1.257   1.543  12.298 -0.0883  0.0914 -0.2157
 1309TIP3    H125418   1.275   1.608  12.230  1.0802 -0.0315 -0.0164
 1309TIP3    H225419   1.227   1.466  12.249 -0.7821  0.5234 -0.4895
 1310TIP3   OH225420   1.588   3.620   4.737  0.1707 -0.2527  0.7341
 1310TIP3    H125421   1.555   3.530   4.735 -1.0433  0.1533  2.0114
 1310TIP3    H225422   1.561   3.654   4.822  2.5119  0.6320  1.1457
 1311TIP3   OH225423   6.200   0.454   0.413 -0.7789 -0.1171  0.0597
 1311TIP3    H125424   6.144   0.532   0.412 -4.5301 -2.6468 -0.8988
 1311TIP3    H225425   6.206   0.428   0.321 -0.2348 -1.3876  0.4424
 1312TIP3   OH225426   3.421   4.879   4.023 -0.0136 -0.3810 -0.2353
 1312TIP3    H125427   3.437   4.923   3.940  0.8987  0.0195  0.1416
 1312TIP3    H225428   3.329   4.854   4.020 -0.1488  0.2059 -1.0960
 1313TIP3   OH225429   3.853   1.669  16.293  0.1312  0.2844 -0.2963
 1313TIP3    H125430   3.772   1.619  16.301 -0.5260  1.6200  1.5361
 1313TIP3    H225431   3.870   1.671  16.199 -2.0507  0.1627 -0.7183
 1314TIP3   OH225432   3.653   2.987   1.800  0.4545 -0.0998  0.4585
 1314TIP3    H125433   3.663   2.967   1.893 -0.2947  0.4135  0.6560
 1314TIP3    H225434   3.588   3.057   1.798  1.8634  1.2202 -0.3226
 1315TIP3   OH225435   5.990   5.292  13.258 -0.2815 -0.2464 -0.2636
 1315TIP3    H125436   6.065   5.347  13.237 -0.2314 -0.6884 -1.2682
 1315TIP3    H225437   5.915   5.337  13.220 -0.2719 -0.7364 -0.8728
 1316TIP3   OH225438   3.727   6.248   4.902 -0.2617 -0.0965  0.3275
 1316TIP3    H125439   3.703   6.336   4.874  0.4145 -0.0549 -0.1442
 1316TIP3    H225440   3.655   6.219   4.958 -1.1250  0.2471 -0.5913
 1317TIP3   OH225441   2.156   6.013   2.074  0.5362  0.2967 -0.5353
 1317TIP3    H125442   2.088   6.032   2.009  1.4257 -0.2616 -1.6462
 1317TIP3    H225443   2.155   6.088   2.133 -1.1623  0.2239 -0.4276
 1318TIP3   OH225444   2.216   2.630  12.361 -0.1937  0.4371 -0.9636
 1318TIP3    H125445   2.123   2.654  12.367 -0.6937 -1.6543  0.3803
 1318TIP3    H225446   2.261   2.712  12.343 -2.3137  1.4860 -1.6621
 1319TIP3   OH225447   1.288   6.794  16.823 -0.2225 -0.3372  0.3181
 1319TIP3    H125448   1.253   6.800  16.735 -0.4978  1.0430  0.5172
 1319TIP3    H225449   1.345   6.717  16.821  0.8007  0.4476 -1.4183
 1320TIP3   OH225450   5.693   5.467   1.936 -0.1195 -0.0045  0.6610
 1320TIP3    H125451   5.689   5.492   2.028 -0.8253 -0.0694  0.6539
 1320TIP3    H225452   5.676   5.372   1.936 -0.4974  0.0622  0.4320
 1321TIP3   OH225453   0.275   4.570  16.995  0.0177  0.1601 -0.4997
 1321TIP3    H125454   0.274   4.486  16.950  2.5566  0.0817 -0.4572
 1321TIP3    H225455   0.210   4.561  17.065 -0.5947 -1.3142 -1.2420
 1322TIP3   OH225456   4.096   1.239   1.305 -0.2571  0.0526 -0.0419
 1322TIP3    H125457   4.019   1.289   1.277  1.0921  1.2428 -1.6926
 1322TIP3    H225458   4.149   1.230   1.226  1.5542 -0.3002  1.1863
 1323TIP3   OH225459   5.291   2.346  15.726 -0.0861  0.1594 -0.0560
 1323TIP3    H125460   5.342   2.419  15.692  0.5383 -0.9825 -1.6491
 1323TIP3    H225461   5.221   2.387  15.776  1.2976  1.7893  0.5806
 1324TIP3   OH225462   0.966   4.386   5.128  0.1943 -0.4774 -0.2178
 1324TIP3    H125463   1.011   4.324   5.071  1.0535  0.1555 -0.2420
 1324TIP3    H225464   0.873   4.376   5.107  0.2788 -2.0242  0.0477
 1325TIP3   OH225465   6.188   4.872   1.579  1.0500  0.1458  0.3872
 1325TIP3    H125466   6.196   4.778   1.563  0.7430  0.2726 -0.5149
 1325TIP3    H225467   6.095   4.885   1.597  0.9151  0.4376 -0.5311
 1326TIP3   OH225468   6.112   1.686  13.061 -0.3590  0.3404  0.6534
 1326TIP3    H125469   6.017   1.678  13.060 -0.1241 -3.5651  1.5973
 1326TIP3    H225470   6.139   1.643  13.142  2.2253  1.4739  0.4556
 1327TIP3   OH225471   0.034   4.044  14.787 -0.2122  0.5586  0.0961
 1327TIP3    H125472   0.038   4.010  14.876  0.3727 -0.1277 -0.1812
 1327TIP3    H225473  -0.039   3.997  14.747 -0.2498  0.6073  0.1082
 1328TIP3   OH225474   6.517   3.661  12.210  0.6257 -0.8154 -0.1006
 1328TIP3    H125475   6.587   3.599  12.229  1.1246 -0.5390 -1.0319
 1328TIP3    H225476   6.505   3.656  12.116  0.3112  0.1352 -0.1168
 1329TIP3   OH225477   1.066   3.137   3.128  0.1971 -0.3742  0.1502
 1329TIP3    H125478   1.125   3.083   3.180  1.1990 -1.7850 -2.3340
 1329TIP3    H225479   0.979   3.113   3.157  0.6499 -3.0653 -0.6104
 1330TIP3   OH225480   5.398   0.695  15.869 -1.0002  0.5824 -0.1248
 1330TIP3    H125481   5.352   0.706  15.952  0.8685  1.4150  0.8236
 1330TIP3    H225482   5.371   0.771  15.817 -1.0914  0.7871  0.2214
 1331TIP3   OH225483   5.229   0.062   1.684 -0.3627 -0.3324  0.2992
 1331TIP3    H125484   5.247  -0.016   1.736  1.2297  0.2889  0.7106
 1331TIP3    H225485   5.289   0.055   1.610 -0.8877  0.0255 -0.1637
 1332TIP3   OH225486   6.076   4.513  12.274 -0.1793  0.1588 -0.2468
 1332TIP3    H125487   6.167   4.491  12.256 -0.2492 -2.1519  1.8748
 1332TIP3    H225488   6.026   4.468  12.206  0.2804  2.4948 -2.2049
 1333TIP3   OH225489   4.368   2.278   5.382 -0.2045 -0.4135 -0.2902
 1333TIP3    H125490   4.428   2.319   5.320  0.4807 -0.3414  0.4085
 1333TIP3    H225491   4.396   2.187   5.387 -0.3313 -0.4483 -0.1860
 1334TIP3   OH225492   1.218   6.199  14.826 -0.3702 -0.0056 -0.0535
 1334TIP3    H125493   1.295   6.250  14.854 -1.7625  1.5021  1.1590
 1334TIP3    H225494   1.193   6.238  14.742 -2.1133  2.1586  1.4055
 1335TIP3   OH225495   2.359   3.198  16.093 -0.2893 -0.4051  0.5890
 1335TIP3    H125496   2.378   3.287  16.121  0.4941 -0.2543 -0.3828
 1335TIP3    H225497   2.444   3.163  16.064 -0.7745 -1.1053 -0.0158
 1336TIP3   OH225498   0.029   0.277  12.163 -0.3514  0.3466 -0.0597
 1336TIP3    H125499   0.024   0.316  12.076 -1.1842 -1.1156 -0.6740
 1336TIP3    H225500   0.099   0.326  12.207 -1.5992  2.7729 -0.6759
 1337TIP3   OH225501   4.444   5.303   4.069  0.5951  0.8023  0.3450
 1337TIP3    H125502   4.439   5.359   3.992 -1.2735 -0.4741 -0.4847
 1337TIP3    H225503   4.354   5.299   4.102  0.3911 -2.9069 -0.4729
 1338TIP3   OH225504   6.402   4.643   1.945 -0.0769 -0.1319  0.1986
 1338TIP3    H125505   6.426   4.592   1.868 -0.8500  0.2212 -0.2787
 1338TIP3    H225506   6.482   4.647   1.997  0.2639 -0.9476 -0.2594
 1339TIP3   OH225507   4.431   0.593   2.864 -0.4528 -0.4828  0.1199
 1339TIP3    H125508   4.427   0.514   2.918 -3.0991 -0.6380 -0.2283
 1339TIP3    H225509   4.341   0.605   2.833  0.4185  1.2631 -1.8522
 1340TIP3   OH225510   5.016   0.065  12.639 -0.6454  0.1386 -0.0446
 1340TIP3    H125511   4.970   0.115  12.706 -0.9438  1.0725 -0.9329
 1340TIP3    H225512   5.014   0.121  12.561  2.0985  0.2902 -0.0810
 1341TIP3   OH225513   3.242   3.491   4.052 -0.5008  0.0167 -0.3628
 1341TIP3    H125514   3.327   3.525   4.080 -0.3653  2.3079 -3.3423
 1341TIP3    H225515   3.181   3.561   4.071 -1.3296 -0.6615 -0.5076
 1342TIP3   OH225516   4.835   3.899   4.546  0.1686 -0.0465  0.6948
 1342TIP3    H125517   4.918   3.936   4.576  0.5392  0.2813 -0.7316
 1342TIP3    H225518   4.855   3.810   4.520 -0.4010 -0.7460  2.5348
 1343TIP3   OH225519   1.605   2.921   1.946  0.4923  0.1161 -0.6707
 1343TIP3    H125520   1.566   3.002   1.914  1.5827  1.8086  2.0975
 1343TIP3    H225521   1.696   2.924   1.915  1.0973  0.9828  1.0841
 1344TIP3   OH225522   6.180   6.743  14.861  0.2993 -0.2509  0.0491
 1344TIP3    H125523   6.254   6.799  14.883 -1.9251  2.4588  0.9492
 1344TIP3    H225524   6.132   6.791  14.793 -0.6159 -1.9544 -0.5352
 1345TIP3   OH225525   5.658   1.190  11.517 -0.1031  0.1945  0.0951
 1345TIP3    H125526   5.586   1.215  11.459 -0.6264 -0.9343  0.2397
 1345TIP3    H225527   5.727   1.253  11.498 -1.5805  2.1254  0.8971
 1346TIP3   OH225528   0.021   1.722   4.225 -0.4680  0.0846 -0.3014
 1346TIP3    H125529  -0.021   1.808   4.224  2.6343  1.6498 -0.1082
 1346TIP3    H225530   0.096   1.731   4.166  0.5690 -2.1241  0.6223
 1347TIP3   OH225531   2.301   2.448   4.015  0.3044  0.3060 -0.1629
 1347TIP3    H125532   2.249   2.390   4.071 -1.0887  2.0475  0.3956
 1347TIP3    H225533   2.368   2.484   4.074 -0.1383  0.8661  0.0052
 1348TIP3   OH225534   4.407   1.444   2.423 -0.4950 -0.0775  0.1621
 1348TIP3    H125535   4.330   1.390   2.441  0.1408 -0.6335  1.2857
 1348TIP3    H225536   4.465   1.386   2.374 -0.4569  0.0818  0.0198
 1349TIP3   OH225537   3.426   3.710  11.063 -0.9527  0.0331 -0.7506
 1349TIP3    H125538   3.460   3.798  11.080 -1.9003  0.5872 -1.6404
 1349TIP3    H225539   3.337   3.712  11.097 -0.2979 -1.2726  1.1577
 1350TIP3   OH225540   5.879   5.727   1.604  0.0609 -0.1377  0.5226
 1350TIP3    H125541   5.954   5.785   1.589 -1.6564  3.0603  3.5254
 1350TIP3    H225542   5.915   5.656   1.657  1.1709  1.0235  1.3837
 1351TIP3   OH225543   1.572   1.777   4.731  0.1861 -0.4042  0.1935
 1351TIP3    H125544   1.612   1.857   4.764 -1.7704 -0.0470  1.7930
 1351TIP3    H225545   1.543   1.799   4.643  0.2141  0.4494  0.3937
 1352TIP3   OH225546   5.318   3.632   0.052  0.2458  0.5320  0.1959
 1352TIP3    H125547   5.292   3.721   0.076  1.6145  0.7694  0.9057
 1352TIP3    H225548   5.236   3.583   0.046 -0.3981  1.4121  1.6011
 1353TIP3   OH225549   2.536   5.161  14.747 -0.0820  0.7369  0.1310
 1353TIP3    H125550   2.477   5.086  14.754  0.0090  0.7936  1.7583
 1353TIP3    H225551   2.543   5.194  14.837 -0.3403  2.8647 -0.6173
 1354TIP3   OH225552   4.780   0.154   4.789 -0.1071 -0.4215 -0.6257
 1354TIP3    H125553   4.844   0.181   4.855 -1.1369  0.7366 -0.1005
 1354TIP3    H225554   4.831   0.101   4.727  1.2732  0.1288  0.0217
 1355TIP3   OH225555   6.180   4.366   0.356  0.2632 -0.4308  0.4108
 1355TIP3    H125556   6.242   4.433   0.327 -2.0547  1.6001 -0.0612
 1355TIP3    H225557   6.159   4.317   0.276 -0.4247  0.3493  0.0979
 1356TIP3   OH225558   1.819   3.924  17.111  0.4507 -0.4994  0.3143
 1356TIP3    H125559   1.867   3.875  17.044 -0.5945 -1.3090  0.1594
 1356TIP3    H225560   1.733   3.941  17.073  0.4286  0.5314  0.7867
 1357TIP3   OH225561   1.488   5.348   1.878 -0.0699 -0.4039  0.3526
 1357TIP3    H125562   1.530   5.334   1.793  1.9266  1.7522  0.9121
 1357TIP3    H225563   1.447   5.264   1.899 -0.4396 -1.0376 -2.6323
 1358TIP3   OH225564   4.823   4.154   5.117  0.1374  0.6670  0.0523
 1358TIP3    H125565   4.878   4.166   5.040  0.3710  0.4145  0.1773
 1358TIP3    H225566   4.864   4.081   5.165  0.0845  0.9257  0.4928
 1359TIP3   OH225567   0.465   4.738   1.028  0.2625 -0.6532  0.0522
 1359TIP3    H125568   0.461   4.701   0.940 -0.3674 -1.7405  0.5213
 1359TIP3    H225569   0.460   4.662   1.086 -0.6341  0.1314  1.0318
 1360TIP3   OH225570   2.681   3.432  14.409 -0.0374  0.3614  0.3396
 1360TIP3    H125571   2.678   3.448  14.315 -1.0283 -1.1364  0.1027
 1360TIP3    H225572   2.760   3.379  14.422  0.3404  0.9448  0.4051
 1361TIP3   OH225573   3.552   3.662  13.532 -0.1927 -0.1560  0.5990
 1361TIP3    H125574   3.487   3.684  13.598 -1.1855 -1.1628 -0.0244
 1361TIP3    H225575   3.613   3.604  13.578 -1.7367 -2.1074  0.2531
 1362TIP3   OH225576   5.255   6.633  13.508 -0.2877 -0.4513 -0.2711
 1362TIP3    H125577   5.333   6.633  13.564  0.9619  0.3208 -1.9904
 1362TIP3    H225578   5.263   6.553  13.457  0.1643  0.3816 -1.5192
 1363TIP3   OH225579   6.616   6.127   0.279 -0.2847 -0.6866  0.4004
 1363TIP3    H125580   6.533   6.087   0.302 -0.7332  0.9636  1.7540
 1363TIP3    H225581   6.679   6.091   0.341 -0.0702 -1.5197 -0.2793
 1364TIP3   OH225582   3.041   4.293   4.590  0.1711 -0.4707 -0.5981
 1364TIP3    H125583   3.105   4.358   4.621 -0.7348 -0.4657  1.3282
 1364TIP3    H225584   2.974   4.290   4.659  0.2246 -3.5129 -0.6129
 1365TIP3   OH225585   5.405   0.203   2.222  0.4562 -0.0981 -0.4444
 1365TIP3    H125586   5.478   0.183   2.164  0.0306  0.0941 -1.0434
 1365TIP3    H225587   5.330   0.158   2.183  0.9993 -3.5380  2.2201
 1366TIP3   OH225588   5.210   0.408  15.878 -0.2663 -0.4600  0.3350
 1366TIP3    H125589   5.197   0.322  15.840  1.2341 -0.7308  0.3977
 1366TIP3    H225590   5.210   0.468  15.803 -0.7427 -0.5799  0.2398
 1367TIP3   OH225591   3.336   3.282  13.493  0.6718  0.2725 -0.4026
 1367TIP3    H125592   3.394   3.298  13.568 -0.4313  0.2363  0.4659
 1367TIP3    H225593   3.373   3.337  13.423  1.7228  0.2918  0.1545
 1368TIP3   OH225594   1.872   0.647   1.967  0.1999 -0.0925 -0.0777
 1368TIP3    H125595   1.942   0.702   1.934 -0.0238  1.4112  1.8584
 1368TIP3    H225596   1.907   0.610   2.049 -0.5224 -0.9409 -0.1356
 1369TIP3   OH225597   4.262   6.152   0.508 -0.5778  0.0979 -0.6535
 1369TIP3    H125598   4.226   6.090   0.445 -1.7278 -0.3384  0.4189
 1369TIP3    H225599   4.215   6.234   0.491 -0.4120  0.1687 -0.7867
 1370TIP3   OH225600   0.039   5.252  13.548  0.4574 -0.4803  0.3414
 1370TIP3    H125601   0.085   5.334  13.564 -0.5032  0.0212  0.5575
 1370TIP3    H225602   0.075   5.220  13.466 -0.0560  0.8034 -0.4053
 1371TIP3   OH225603   6.815   3.097  10.583  0.8432 -0.3622 -0.7051
 1371TIP3    H125604   6.746   3.063  10.526 -1.0308  0.4337  1.0270
 1371TIP3    H225605   6.813   3.192  10.568  0.7124 -0.2092  0.2652
 1372TIP3   OH225606   3.764   4.346   3.374 -0.2825 -0.0904  0.0758
 1372TIP3    H125607   3.739   4.377   3.287 -0.6891  0.7260  0.4877
 1372TIP3    H225608   3.707   4.271   3.391 -0.7062  0.2110 -0.0415
 1373TIP3   OH225609   0.162   4.495   6.121 -0.6448  0.5344 -0.1788
 1373TIP3    H125610   0.144   4.565   6.184 -0.9007  0.2197  0.0983
 1373TIP3    H225611   0.234   4.445   6.161 -0.0979  0.9504 -0.6254
 1374TIP3   OH225612   2.073   5.780   6.482 -0.1528 -0.1354  0.4110
 1374TIP3    H125613   2.078   5.872   6.507 -0.1455  0.4147 -1.5950
 1374TIP3    H225614   1.981   5.758   6.489 -0.1950  0.1023  0.6052
 1375TIP3   OH225615   2.815   5.154   4.154 -0.0532  0.4420  0.3497
 1375TIP3    H125616   2.746   5.214   4.127  0.1347  0.7403  0.5349
 1375TIP3    H225617   2.790   5.070   4.115  0.0698  0.8096 -0.5294
 1376TIP3   OH225618   2.615   2.113   4.844  0.1303  0.0734  0.1279
 1376TIP3    H125619   2.621   2.030   4.798  0.7760 -0.4428  1.1230
 1376TIP3    H225620   2.704   2.148   4.842  0.2776 -0.1881  1.3810
 1377TIP3   OH225621   6.370   2.130   0.921 -0.0092 -0.2600  0.3061
 1377TIP3    H125622   6.457   2.161   0.894 -1.3833  2.3038 -1.4121
 1377TIP3    H225623   6.362   2.156   1.012  1.7502 -2.2531  1.0718
 1378TIP3   OH225624   3.056   5.705   1.365  0.0659  0.7003 -0.3791
 1378TIP3    H125625   2.990   5.638   1.344 -0.4601  1.2945 -0.6276
 1378TIP3    H225626   3.006   5.780   1.397  0.7791  0.3399  1.6343
 1379TIP3   OH225627   4.589   3.519   0.293  0.0561 -0.3714 -0.7616
 1379TIP3    H125628   4.643   3.577   0.239  1.0257  0.6100  1.1916
 1379TIP3    H225629   4.632   3.519   0.378 -1.5377 -1.7432  0.0793
 1380TIP3   OH225630   3.329   2.790  11.903 -0.5213 -0.0438  0.1914
 1380TIP3    H125631   3.335   2.885  11.913  0.9307  0.1447 -2.1198
 1380TIP3    H225632   3.354   2.756  11.989 -2.6256  1.6542  1.5516
 1381TIP3   OH225633   4.458   1.150   3.208  0.1586  0.3542  0.2481
 1381TIP3    H125634   4.462   1.170   3.114  2.9763  1.3356  0.5309
 1381TIP3    H225635   4.458   1.054   3.212  0.6897  0.3035 -0.7564
 1382TIP3   OH225636   4.807   2.360  16.760  0.4655 -0.0289 -0.5508
 1382TIP3    H125637   4.714   2.382  16.749  0.8951  1.8373 -0.7115
 1382TIP3    H225638   4.807   2.284  16.818 -1.1306  0.8183  0.6276
 1383TIP3   OH225639   6.791   6.674   6.591  0.3682  0.5768  0.4143
 1383TIP3    H125640   6.832   6.750   6.550 -1.6344  1.9290  0.9001
 1383TIP3    H225641   6.723   6.647   6.529  0.1428  0.0271  0.8971
 1384TIP3   OH225642   6.461   1.945  12.130 -0.5002 -0.2054  0.2604
 1384TIP3    H125643   6.528   2.012  12.146 -0.2566 -0.4547  0.2966
 1384TIP3    H225644   6.480   1.877  12.194 -0.4880 -0.4980 -0.0520
 1385TIP3   OH225645   5.638   6.465  16.882 -0.5000 -0.2996  1.0964
 1385TIP3    H125646   5.556   6.503  16.850 -2.4059 -3.3230  2.1567
 1385TIP3    H225647   5.625   6.458  16.977  1.3756  0.0686  1.3866
 1386TIP3   OH225648   5.735   6.794  17.055 -0.4053 -0.9713  0.3128
 1386TIP3    H125649   5.713   6.719  17.109  2.9657 -1.7392  0.7377
 1386TIP3    H225650   5.704   6.771  16.967  0.4978 -2.8275  0.4638
 1387TIP3   OH225651   1.406   3.586   3.500  0.0702 -0.1803 -0.0349
 1387TIP3    H125652   1.323   3.567   3.545  0.2660 -0.6129  0.1500
 1387TIP3    H225653   1.472   3.542   3.553  0.5946  1.4268  0.6520
 1388TIP3   OH225654   1.039   3.937  12.952  0.0680 -0.0738 -0.0551
 1388TIP3    H125655   1.080   3.983  13.025  0.1520 -1.4884  0.8193
 1388TIP3    H225656   1.095   3.860  12.939  0.3388  0.4227 -1.9436
 1389TIP3   OH225657   5.300   4.624  14.711  0.2344  0.3063  0.2340
 1389TIP3    H125658   5.295   4.551  14.773 -0.8190  2.0063  2.2538
 1389TIP3    H225659   5.226   4.611  14.652 -0.1772 -0.0662  0.8208
 1390TIP3   OH225660   3.705   1.340   3.402  0.4318 -0.1642 -0.4200
 1390TIP3    H125661   3.681   1.345   3.310 -1.9962 -1.1354  0.1067
 1390TIP3    H225662   3.628   1.375   3.448  2.5090  2.5035  1.1494
 1391TIP3   OH225663   0.476   0.634  13.697  0.0322  0.0570 -0.0204
 1391TIP3    H125664   0.430   0.552  13.675 -0.8868  0.1409  1.5395
 1391TIP3    H225665   0.567   0.608  13.708 -0.2686 -0.7791  0.5358
 1392TIP3   OH225666   0.867   4.486  13.069 -0.3328  0.9528 -0.2929
 1392TIP3    H125667   0.808   4.539  13.015 -1.5823 -1.0250 -0.9375
 1392TIP3    H225668   0.810   4.420  13.108  1.0731  0.5421  1.0752
 1393TIP3   OH225669   3.564   3.259  16.231 -0.0994  0.3318 -0.0665
 1393TIP3    H125670   3.514   3.195  16.181 -0.9892  1.5003 -0.6956
 1393TIP3    H225671   3.510   3.276  16.308  0.8154 -0.7424  0.8351
 1394TIP3   OH225672   5.947   1.282  16.237  0.0107  0.5536 -0.1104
 1394TIP3    H125673   6.010   1.353  16.249  0.1911  0.7272 -1.9721
 1394TIP3    H225674   5.977   1.236  16.159 -2.2103  0.6691 -1.0607
 1395TIP3   OH225675   6.143   2.560  16.425  0.5621 -0.7014  0.4195
 1395TIP3    H125676   6.232   2.579  16.453  0.4753  2.4447 -1.2916
 1395TIP3    H225677   6.129   2.614  16.347 -3.9581  1.6259  2.6122
 1396TIP3   OH225678   1.523   3.125   1.762  0.0805  0.6628  0.2962
 1396TIP3    H125679   1.467   3.175   1.822 -1.8780 -1.7136  0.5540
 1396TIP3    H225680   1.494   3.152   1.674  0.2741  1.2977  0.4262
 1397TIP3   OH225681   4.872   1.744   0.367  0.1426  0.3304  0.0655
 1397TIP3    H125682   4.820   1.797   0.306 -0.3085 -0.1538  0.0222
 1397TIP3    H225683   4.962   1.756   0.339 -0.0155  0.5767 -0.3398
 1398TIP3   OH225684   6.086   5.374  17.120  0.4490  0.3462  0.3197
 1398TIP3    H125685   6.032   5.313  17.170 -1.4689 -0.6781 -2.8543
 1398TIP3    H225686   6.157   5.321  17.085 -0.7271  0.1129 -1.7223
 1399TIP3   OH225687   1.746   0.078  15.671  0.3081  0.1982  0.0367
 1399TIP3    H125688   1.684   0.099  15.600  0.4552  0.7054  0.0584
 1399TIP3    H225689   1.764   0.162  15.712 -0.9842 -0.3123  1.6897
 1400TIP3   OH225690   2.697   6.305   4.943 -0.1844  0.2993  0.5875
 1400TIP3    H125691   2.699   6.216   4.976  1.7107 -0.3484 -1.1971
 1400TIP3    H225692   2.607   6.316   4.910  0.0547 -1.5167 -0.7161
 1401TIP3   OH225693   0.781   1.232   2.278 -0.2217 -0.4562 -0.1366
 1401TIP3    H125694   0.746   1.152   2.318 -0.2492 -0.1230  0.5118
 1401TIP3    H225695   0.827   1.276   2.349  0.3575 -0.2159 -0.6545
 1402TIP3   OH225696   5.934   3.490   3.092  0.1712 -0.1315  0.1503
 1402TIP3    H125697   5.900   3.521   3.176  1.1312 -2.0519  1.2991
 1402TIP3    H225698   5.882   3.411   3.073  2.1858 -1.6392  0.6678
 1403TIP3   OH225699   1.399   4.121   4.536  0.2629 -0.1259 -0.0290
 1403TIP3    H125700   1.486   4.091   4.563  1.2482  2.5691 -0.0693
 1403TIP3    H225701   1.416   4.187   4.469 -1.8742 -0.2104 -0.6948
 1404TIP3   OH225702   2.168   3.279  15.569  0.9223 -0.0373 -0.1537
 1404TIP3    H125703   2.213   3.298  15.651  0.2667 -1.1254  0.4619
 1404TIP3    H225704   2.149   3.366  15.533 -0.6873  0.5092  1.8973
 1405TIP3   OH225705   1.573   5.005   2.572 -0.0320 -0.4446  0.3524
 1405TIP3    H125706   1.608   4.919   2.598 -0.0405 -0.5148  0.1339
 1405TIP3    H225707   1.573   5.056   2.653  2.4817  0.2221 -0.0308
 1406TIP3   OH225708   2.004   1.391   5.976 -0.5646  0.2881  0.2222
 1406TIP3    H125709   1.958   1.382   6.060  0.0587  1.1649  0.6685
 1406TIP3    H225710   1.976   1.315   5.925  0.9260 -1.6343  2.1320
 1407TIP3   OH225711   2.135   2.828   1.311  0.7701 -0.0592  0.3603
 1407TIP3    H125712   2.207   2.837   1.374 -0.6706  1.2341  1.9004
 1407TIP3    H225713   2.064   2.881   1.349 -1.0586 -1.4666 -1.0024
 1408TIP3   OH225714   6.726   2.256  13.625 -0.2633 -0.0434  0.0718
 1408TIP3    H125715   6.764   2.260  13.537  1.0884 -0.1842  0.6370
 1408TIP3    H225716   6.652   2.196  13.616 -0.1258 -0.0681 -0.9662
 1409TIP3   OH225717   0.943   3.550   3.930 -0.2427 -0.2458 -0.1773
 1409TIP3    H125718   0.858   3.504   3.935 -0.1373 -0.3097  1.3259
 1409TIP3    H225719   1.007   3.482   3.951 -0.1266  0.6820  2.6625
 1410TIP3   OH225720   1.687   6.701  13.292 -0.2305  0.1154 -0.3329
 1410TIP3    H125721   1.725   6.629  13.241 -0.5855 -0.2304 -0.1088
 1410TIP3    H225722   1.694   6.777  13.234 -0.4144 -0.2265 -0.8046
 1411TIP3   OH225723   5.088   0.429  11.545  0.4919 -0.0063  0.3349
 1411TIP3    H125724   5.160   0.366  11.540  0.8811  0.3215  1.5382
 1411TIP3    H225725   5.015   0.386  11.501  1.5856 -0.1074 -1.3891
 1412TIP3   OH225726   3.872   5.977  15.577  0.0374  0.3213  0.1651
 1412TIP3    H125727   3.862   5.887  15.546  0.7532 -0.6605  2.6592
 1412TIP3    H225728   3.782   6.011  15.580 -0.4005 -0.8509  0.7605
 1413TIP3   OH225729   1.242   4.500  14.752 -0.1688  0.2908  0.4762
 1413TIP3    H125730   1.226   4.594  14.746  0.7701  0.4507  0.4502
 1413TIP3    H225731   1.331   4.493  14.786 -0.2513 -0.5883  0.5088
 1414TIP3   OH225732   4.792   2.801  15.701  0.0062 -0.0294 -0.3583
 1414TIP3    H125733   4.800   2.712  15.734  2.5499 -0.0881 -1.0522
 1414TIP3    H225734   4.760   2.791  15.611 -1.6513 -0.1239  0.2266
 1415TIP3   OH225735   3.993   1.136  14.751 -0.3140  0.3630 -0.4281
 1415TIP3    H125736   3.974   1.043  14.756  1.2211  0.0141 -0.8069
 1415TIP3    H225737   3.977   1.160  14.660  0.2069  0.2568 -0.5486
 1416TIP3   OH225738   3.084   4.498  10.422  0.4955  0.0119  0.3480
 1416TIP3    H125739   3.039   4.430  10.473  2.3774 -0.2540  1.7041
 1416TIP3    H225740   3.033   4.505  10.341 -3.2314  1.1708  2.6581
 1417TIP3   OH225741   6.566   2.014   0.398 -0.5916 -0.4173 -0.7348
 1417TIP3    H125742   6.494   2.070   0.371 -0.4836 -0.4963 -1.1970
 1417TIP3    H225743   6.642   2.049   0.352  0.2813  1.5347  2.0364
 1418TIP3   OH225744   4.813   5.922  13.976 -0.0282  0.4461  0.1593
 1418TIP3    H125745   4.829   5.877  14.059  0.8746  2.5263  1.1544
 1418TIP3    H225746   4.901   5.941  13.941 -0.3980 -0.2690 -1.2055
 1419TIP3   OH225747   5.833   4.587  14.842 -0.1291 -0.3973 -0.1437
 1419TIP3    H125748   5.872   4.598  14.929 -1.4421  1.1236  0.2688
 1419TIP3    H225749   5.771   4.516  14.853 -0.0014 -0.4805  0.0568
 1420TIP3   OH225750   2.799   1.403  16.404 -0.2854  0.4064  0.1245
 1420TIP3    H125751   2.850   1.418  16.324 -2.5134 -0.0704 -1.4268
 1420TIP3    H225752   2.767   1.490  16.428  0.7649  0.6219  0.7865
 1421TIP3   OH225753   6.213   1.163  16.090  0.2955  0.2577  0.3348
 1421TIP3    H125754   6.271   1.191  16.161 -0.8598 -1.0519  1.8344
 1421TIP3    H225755   6.207   1.068  16.100 -1.8366  0.3250  0.0011
 1422TIP3   OH225756   0.462   3.671   4.996  0.3104  0.9228 -0.5369
 1422TIP3    H125757   0.440   3.762   4.979 -0.6366  0.5847 -1.1485
 1422TIP3    H225758   0.399   3.620   4.944  1.5082 -0.0721 -1.0569
 1423TIP3   OH225759   0.104   2.696  11.362 -0.2852  0.1449  0.0568
 1423TIP3    H125760   0.111   2.741  11.278 -2.4334  0.7628  0.1593
 1423TIP3    H225761   0.034   2.632  11.350  1.6777 -2.1293  0.3942
 1424TIP3   OH225762   2.850   4.728  15.504  0.2116  0.0585 -0.5714
 1424TIP3    H125763   2.881   4.644  15.472  1.2921  0.8305 -1.6023
 1424TIP3    H225764   2.893   4.739  15.589 -0.1875 -0.5743 -0.2888
 1425TIP3   OH225765   0.482   4.164  15.570 -0.1349  0.1514 -0.3254
 1425TIP3    H125766   0.443   4.246  15.601 -0.7225  0.1651 -1.0888
 1425TIP3    H225767   0.430   4.095  15.612 -1.1676  0.1662 -1.5167
 1426TIP3   OH225768   3.672   6.418  12.751  0.2824  0.1870  0.5084
 1426TIP3    H125769   3.718   6.451  12.829 -2.0732  4.3385  0.2668
 1426TIP3    H225770   3.729   6.442  12.678  0.8065 -0.5502  0.6658
 1427TIP3   OH225771   4.194   1.843   0.180  0.1206 -0.8551  0.3491
 1427TIP3    H125772   4.131   1.889   0.123  0.9693  0.2758  0.3067
 1427TIP3    H225773   4.209   1.760   0.136 -0.0910 -0.4555 -0.5036
 1428TIP3   OH225774   2.454   6.118   0.167  0.1904  0.3987  0.4531
 1428TIP3    H125775   2.442   6.203   0.124  0.7400  0.0600 -0.3800
 1428TIP3    H225776   2.400   6.057   0.116  0.1519  0.1648  0.7726
 1429TIP3   OH225777   3.000   1.225  11.780  0.0052  0.2725 -0.2504
 1429TIP3    H125778   3.068   1.164  11.808 -0.3423  0.1807  0.4000
 1429TIP3    H225779   3.012   1.232  11.685  1.1681  0.5614 -0.0894
 1430TIP3   OH225780   6.546   0.051  14.727  0.4694  0.5444 -0.0538
 1430TIP3    H125781   6.493   0.130  14.715  0.7802  1.1836  2.5135
 1430TIP3    H225782   6.600   0.070  14.803  0.6782 -2.0832  0.4983
 1431TIP3   OH225783   6.046   3.535   5.125  0.1223  0.3020  0.0980
 1431TIP3    H125784   6.100   3.512   5.049  1.0089 -1.4222  1.2063
 1431TIP3    H225785   5.959   3.549   5.090  0.6206 -0.0719 -1.3020
 1432TIP3   OH225786   6.268   6.107   4.434 -0.1727  0.0721  0.1132
 1432TIP3    H125787   6.252   6.059   4.352  0.2034 -1.0470  0.6888
 1432TIP3    H225788   6.181   6.138   4.460 -0.3338  0.2119 -0.5731
 1433TIP3   OH225789   3.147   3.722  15.256 -0.0979  0.1356  0.1976
 1433TIP3    H125790   3.211   3.761  15.197 -0.4993 -0.7021 -0.7997
 1433TIP3    H225791   3.091   3.668  15.200 -0.8693 -0.1779  1.2423
 1434TIP3   OH225792   5.803   4.948  15.608  0.4819  0.0993 -0.0449
 1434TIP3    H125793   5.759   4.950  15.693  0.3966 -0.1465 -0.0830
 1434TIP3    H225794   5.869   4.879  15.616  0.1769 -0.2255 -0.3235
 1435TIP3   OH225795   2.111   3.087   0.659 -0.0380  0.4465 -0.0511
 1435TIP3    H125796   2.035   3.043   0.622  0.3790 -2.1063  1.9825
 1435TIP3    H225797   2.173   3.093   0.585  0.1333 -3.0077 -0.2946
 1436TIP3   OH225798   3.174   1.621   0.040  0.8294 -0.4313 -0.2037
 1436TIP3    H125799   3.122   1.541   0.032 -0.7729  0.4896  0.5738
 1436TIP3    H225800   3.148   1.656   0.125  2.1671  0.4663 -0.1646
 1437TIP3   OH225801   0.909   6.171  16.751  0.6113  0.0070 -0.6783
 1437TIP3    H125802   0.827   6.179  16.703  0.7991 -1.1339 -1.2158
 1437TIP3    H225803   0.902   6.087  16.796  0.6562  0.8313  0.8910
 1438TIP3   OH225804   1.551   1.842   3.776 -0.3356  0.1401 -0.6806
 1438TIP3    H125805   1.558   1.816   3.868 -0.8338  1.6524 -0.2068
 1438TIP3    H225806   1.615   1.787   3.731 -0.2601 -0.7910  0.5242
 1439TIP3   OH225807   2.402   3.442  15.365  0.0578 -0.0831  0.0270
 1439TIP3    H125808   2.485   3.400  15.343 -0.0624  0.0169 -0.6228
 1439TIP3    H225809   2.417   3.481  15.451  0.5567 -0.3991  0.0855
 1440TIP3   OH225810   5.776   6.564  15.258 -0.4380  0.6364 -0.4290
 1440TIP3    H125811   5.696   6.521  15.227  0.4412  0.3435 -2.3142
 1440TIP3    H225812   5.831   6.571  15.181  1.2390  1.1500  0.7959
 1441TIP3   OH225813   1.404   4.929  16.820  0.3753 -0.0668  0.0647
 1441TIP3    H125814   1.441   4.889  16.742 -1.3050 -1.5513  0.0228
 1441TIP3    H225815   1.429   4.871  16.891  1.8195  1.2293  0.6479
 1442TIP3   OH225816   0.278   6.381   6.233  0.0827  0.1073  0.1033
 1442TIP3    H125817   0.208   6.432   6.275  1.2414  0.6436  1.4112
 1442TIP3    H225818   0.306   6.436   6.159 -0.5664  0.0881 -0.1641
 1443TIP3   OH225819   2.221   1.353  13.496 -0.4616 -0.0061 -0.4399
 1443TIP3    H125820   2.226   1.447  13.476  0.7043 -0.2866 -1.4799
 1443TIP3    H225821   2.286   1.312  13.439 -0.8693 -1.4432  0.0999
 1444TIP3   OH225822   0.283   1.220  11.611 -0.0044  0.0849 -0.4069
 1444TIP3    H125823   0.320   1.296  11.567  1.2843 -1.2092 -1.6108
 1444TIP3    H225824   0.335   1.212  11.691 -0.5756  0.8529  0.0442
 1445TIP3   OH225825   4.718   2.155  11.630 -0.5764 -0.2686  0.0378
 1445TIP3    H125826   4.767   2.235  11.654 -1.5398  0.2454  0.3318
 1445TIP3    H225827   4.783   2.085  11.636 -0.0365  0.3020  1.1245
 1446TIP3   OH225828   4.536   4.652  10.613 -1.2272  0.4061  0.2172
 1446TIP3    H125829   4.483   4.572  10.602  0.0093 -0.5485  1.1161
 1446TIP3    H225830   4.475   4.715  10.651 -1.0670 -1.5006  3.8164
 1447TIP3   OH225831   1.654   5.407   3.456 -0.4009  0.1657  0.2575
 1447TIP3    H125832   1.643   5.498   3.427  1.1752  0.6466  1.0677
 1447TIP3    H225833   1.578   5.390   3.511 -0.8486  0.9075 -0.1267
 1448TIP3   OH225834   4.284   3.467   5.913  0.0380 -0.4399 -0.3042
 1448TIP3    H125835   4.352   3.475   5.981  0.6242 -1.5549 -0.7492
 1448TIP3    H225836   4.310   3.531   5.846  0.9589 -1.2362 -0.7208
 1449TIP3   OH225837   2.342   0.197   0.160 -0.2968 -0.6188  0.2828
 1449TIP3    H125838   2.292   0.129   0.114 -0.0179 -0.6219 -0.0227
 1449TIP3    H225839   2.294   0.212   0.242 -2.0642  0.9745 -0.9827
 1450TIP3   OH225840   6.120   0.457  14.315  0.1548  0.6540 -0.8042
 1450TIP3    H125841   6.201   0.496  14.282  0.4017 -0.0235 -1.0200
 1450TIP3    H225842   6.051   0.516  14.285  0.6404  1.7240  0.1649
 1451TIP3   OH225843   4.891   4.867  15.565  0.6832  0.1009  0.4163
 1451TIP3    H125844   4.906   4.887  15.657 -1.4602  3.0348  0.1789
 1451TIP3    H225845   4.978   4.846  15.531  1.3172 -2.5738  3.4067
 1452TIP3   OH225846   6.240   3.057  16.122 -0.0718  0.3241 -0.4120
 1452TIP3    H125847   6.260   3.147  16.148 -1.2361  1.2892 -2.6877
 1452TIP3    H225848   6.310   3.004  16.161  2.1514  2.5476 -1.2546
 1453TIP3   OH225849   4.111   6.271   5.187 -0.9052 -0.3237  0.2346
 1453TIP3    H125850   4.060   6.347   5.215 -0.2930 -0.0642  0.6735
 1453TIP3    H225851   4.067   6.196   5.227 -0.7207 -0.0634  0.9324
 1454TIP3   OH225852   4.226   1.842   0.490  0.2241  0.5782 -0.7960
 1454TIP3    H125853   4.131   1.844   0.501  0.1174 -1.5852 -1.0296
 1454TIP3    H225854   4.239   1.797   0.406  1.4673  0.3816 -0.5068
 1455TIP3   OH225855   6.046   1.734  16.099 -0.8181 -0.2803  0.7825
 1455TIP3    H125856   6.061   1.644  16.069 -0.1902 -0.4793  1.6628
 1455TIP3    H225857   6.027   1.783  16.019  0.3694 -0.8887  0.1104
 1456TIP3   OH225858   0.240   0.146   3.513 -0.2447  0.5078 -0.3953
 1456TIP3    H125859   0.253   0.190   3.429 -1.4345  0.4805 -0.6070
 1456TIP3    H225860   0.192   0.066   3.490 -1.7544  1.1440  0.4441
 1457TIP3   OH225861   6.674   3.871  16.157  0.4292  0.6437  0.0160
 1457TIP3    H125862   6.663   3.955  16.112 -3.4224  0.3402  0.1801
 1457TIP3    H225863   6.640   3.887  16.245  1.1980 -0.6368  0.5503
 1458TIP3   OH225864   0.088   2.331   4.073  0.5149  0.3773 -0.1278
 1458TIP3    H125865   0.028   2.346   4.146  0.5551  0.6031 -0.1412
 1458TIP3    H225866   0.116   2.240   4.083  0.1705  0.2693 -0.1191
 1459TIP3   OH225867   2.381   4.108   2.890 -0.0787  0.2383  0.6759
 1459TIP3    H125868   2.367   4.021   2.854  0.7851 -1.4340  4.2068
 1459TIP3    H225869   2.449   4.147   2.835 -1.5036 -0.7021 -1.8232
 1460TIP3   OH225870   6.031   2.135  15.390 -0.4034  0.1082 -0.6862
 1460TIP3    H125871   5.969   2.158  15.459 -0.2511 -0.4436 -0.3684
 1460TIP3    H225872   6.016   2.201  15.322 -1.5527 -0.1981 -0.7436
 1461TIP3   OH225873   2.600   0.718  15.350  0.2649 -0.2144 -0.3701
 1461TIP3    H125874   2.573   0.659  15.279  0.6446  0.0796 -0.7617
 1461TIP3    H225875   2.567   0.676  15.429  1.8336 -1.7641 -0.4948
 1462TIP3   OH225876   1.861   0.360  15.442 -0.3450 -0.1007 -0.0501
 1462TIP3    H125877   1.917   0.361  15.519 -1.4003  0.2993  0.7272
 1462TIP3    H225878   1.915   0.322  15.373  0.8858  0.3077  0.6766
 1463TIP3   OH225879   1.522   3.653   3.115  0.5126  0.0099  0.1095
 1463TIP3    H125880   1.595   3.684   3.169  1.2626  1.3297 -1.6123
 1463TIP3    H225881   1.533   3.698   3.032 -1.2595 -1.1512 -0.7869
 1464TIP3   OH225882   5.147   1.076   0.150 -0.1899 -0.6796  0.3592
 1464TIP3    H125883   5.183   0.992   0.176 -0.2734 -1.3217 -1.5178
 1464TIP3    H225884   5.224   1.129   0.128 -0.1304 -0.2022  1.6682
 1465TIP3   OH225885   1.181   4.401   2.518 -0.6245  0.2219 -0.8273
 1465TIP3    H125886   1.242   4.432   2.586  1.0405 -0.6484 -1.8714
 1465TIP3    H225887   1.231   4.408   2.437 -1.8799 -0.6721 -1.6857
 1466TIP3   OH225888   0.908   1.374   4.691 -0.7510  0.1791 -0.0958
 1466TIP3    H125889   0.898   1.348   4.783  0.5372  0.6501  0.1837
 1466TIP3    H225890   0.952   1.459   4.695  2.8767 -1.5452 -1.2356
 1467TIP3   OH225891   5.404   0.877  14.866 -0.4353 -0.5717 -0.1047
 1467TIP3    H125892   5.355   0.835  14.795 -0.7260 -1.3154  0.5185
 1467TIP3    H225893   5.384   0.970  14.858  0.1192 -0.5555 -1.4442
 1468TIP3   OH225894   3.632   6.717   3.956 -0.0980  0.3484  0.2034
 1468TIP3    H125895   3.594   6.711   4.044 -0.9246  1.9552 -0.0108
 1468TIP3    H225896   3.669   6.631   3.940 -0.5548 -0.1836  1.8545
 1469TIP3   OH225897   5.181   3.275  14.656 -0.2522  0.7598 -0.4098
 1469TIP3    H125898   5.113   3.209  14.664 -0.6722  1.1026 -1.0955
 1469TIP3    H225899   5.167   3.313  14.569  2.2566 -0.7712 -1.5330
 1470TIP3   OH225900   6.033   1.594  16.645 -0.1039 -0.1369  0.1807
 1470TIP3    H125901   5.982   1.518  16.618  0.3577 -0.3267 -0.1674
 1470TIP3    H225902   6.113   1.557  16.683  0.9741  0.1879 -1.6989
 1471TIP3   OH225903   5.636   2.252   6.473 -0.1114  0.5238 -0.0009
 1471TIP3    H125904   5.725   2.253   6.508  0.4461  1.7122 -1.3764
 1471TIP3    H225905   5.630   2.170   6.424  0.4947  0.7951 -0.5354
 1472TIP3   OH225906   5.210   4.855  14.291  0.1594 -0.1426 -0.4917
 1472TIP3    H125907   5.229   4.859  14.385 -0.1604  0.5708 -0.4535
 1472TIP3    H225908   5.228   4.764  14.267 -0.9051 -0.6219  0.4984
 1473TIP3   OH225909   5.891   5.956   2.178  0.2680  0.4681  0.3259
 1473TIP3    H125910   5.898   6.044   2.215  1.9248  1.2609 -1.7490
 1473TIP3    H225911   5.894   5.898   2.254  0.7378  2.1402  1.6273
 1474TIP3   OH225912   4.626   5.475   2.702 -0.6843 -0.1339 -0.5585
 1474TIP3    H125913   4.709   5.465   2.657 -0.8849 -1.0008 -0.7581
 1474TIP3    H225914   4.648   5.512   2.787 -0.1606  0.2381 -0.8608
 1475TIP3   OH225915   3.250   5.938   6.869 -0.2760  0.0971  0.2025
 1475TIP3    H125916   3.233   6.024   6.832 -3.4921 -0.1532  0.9154
 1475TIP3    H225917   3.290   5.888   6.798 -1.4136  1.2174 -1.2355
 1476TIP3   OH225918   5.425   0.985  11.014  0.2365  0.2315  0.1228
 1476TIP3    H125919   5.338   0.955  11.037  0.8624 -1.0142  0.8854
 1476TIP3    H225920   5.483   0.945  11.078  1.3005  1.6222  0.0769
 1477TIP3   OH225921   6.051   0.237  14.071 -0.0177  0.0484 -0.1374
 1477TIP3    H125922   6.069   0.299  14.142  0.2834 -1.0128  0.7389
 1477TIP3    H225923   6.037   0.153  14.116 -1.7048 -0.2660 -1.2046
 1478TIP3   OH225924   6.507   3.958   5.844  0.3866  0.4594 -0.6892
 1478TIP3    H125925   6.597   3.937   5.866 -0.6316 -1.6681  1.7790
 1478TIP3    H225926   6.486   4.035   5.898 -0.2267 -1.0441  1.2929
 1479TIP3   OH225927   3.624   3.703  15.567 -0.3283  0.0928 -0.2367
 1479TIP3    H125928   3.569   3.679  15.642 -1.5134  0.7781 -0.8826
 1479TIP3    H225929   3.568   3.688  15.491  0.1029  1.5819 -0.8560
 1480TIP3   OH225930   3.965   0.401   2.674  0.0055 -0.3300  0.3835
 1480TIP3    H125931   3.876   0.436   2.678  0.1372 -0.0463  0.9264
 1480TIP3    H225932   3.968   0.335   2.743  0.4556  0.2319  0.9074
 1481TIP3   OH225933   4.927   0.151  11.888 -0.6555  0.3503  0.5179
 1481TIP3    H125934   4.957   0.067  11.922 -2.8553 -0.4056  0.6945
 1481TIP3    H225935   4.877   0.128  11.810 -0.3079  1.6080 -0.0786
 1482TIP3   OH225936   3.501   4.294   1.484 -0.2702  0.8999  0.1275
 1482TIP3    H125937   3.452   4.376   1.481  0.5775  1.4206  0.5225
 1482TIP3    H225938   3.536   4.284   1.396 -1.8311  0.0537 -0.4304
 1483TIP3   OH225939   2.312   2.804  17.244  0.2589  0.0372  0.1074
 1483TIP3    H125940   2.218   2.786  17.236  0.1525  0.5966  0.0461
 1483TIP3    H225941   2.354   2.718  17.240 -0.3063 -0.2791  0.9605
 1484TIP3   OH225942   2.591   4.361  11.408 -0.5898  0.1274  0.4940
 1484TIP3    H125943   2.637   4.440  11.380 -0.9476  0.3163  0.4373
 1484TIP3    H225944   2.498   4.382  11.397 -0.6511 -0.7459 -0.7505
 1485TIP3   OH225945   3.643   4.057   3.284 -0.0734 -0.5959  0.2728
 1485TIP3    H125946   3.554   4.077   3.314  0.9894  1.7124  2.0345
 1485TIP3    H225947   3.686   4.019   3.361  0.3184 -2.3152 -0.7613
 1486TIP3   OH225948   5.574   2.029  10.911 -0.2781  0.1187 -0.7003
 1486TIP3    H125949   5.526   2.106  10.943  0.5232  0.2412  0.2247
 1486TIP3    H225950   5.575   1.969  10.985  1.5104  0.3569 -0.5144
 1487TIP3   OH225951   0.621   0.047   0.320 -0.7159 -0.0114  0.1785
 1487TIP3    H125952   0.658   0.117   0.267 -0.3410  0.2293  0.7493
 1487TIP3    H225953   0.602   0.088   0.404  2.2569 -1.2390  1.5365
 1488TIP3   OH225954   2.133   5.940   5.682  0.5237 -0.8148 -0.4700
 1488TIP3    H125955   2.220   5.906   5.706 -0.1998 -1.7731  0.8722
 1488TIP3    H225956   2.092   5.961   5.766 -1.1534 -1.9093 -0.9927
 1489TIP3   OH225957   0.972   4.919  17.211  0.2610  0.2633  0.2140
 1489TIP3    H125958   0.955   4.825  17.221  2.1062 -0.3777 -2.1470
 1489TIP3    H225959   0.887   4.957  17.189 -0.0276 -1.2669 -1.3889
 1490TIP3   OH225960   1.811   2.602   5.592 -0.5552  1.0423  0.0950
 1490TIP3    H125961   1.903   2.629   5.587 -0.7222  1.3074 -2.0702
 1490TIP3    H225962   1.814   2.507   5.578 -0.6378  1.1163 -0.4436
 1491TIP3   OH225963   5.739   3.285  14.368  0.0473  0.4887  0.4853
 1491TIP3    H125964   5.648   3.257  14.379  0.1456  0.6426  1.7596
 1491TIP3    H225965   5.745   3.310  14.276 -0.6343 -1.5359 -0.1367
 1492TIP3   OH225966   1.661   6.100   4.512  0.0827  0.5915  0.5238
 1492TIP3    H125967   1.688   6.115   4.602  1.1765 -4.8101  1.2289
 1492TIP3    H225968   1.740   6.117   4.460 -0.0161  1.7315  0.7173
 1493TIP3   OH225969   2.037   0.221   0.700 -0.0179 -0.2566 -0.6189
 1493TIP3    H125970   2.064   0.140   0.744 -1.2448 -0.0270  0.5953
 1493TIP3    H225971   2.118   0.269   0.685  0.3406  0.3577  2.8299
 1494TIP3   OH225972   5.354   6.634   5.864  0.1235 -0.4409  0.0234
 1494TIP3    H125973   5.358   6.693   5.938  2.3828 -1.0868  0.4681
 1494TIP3    H225974   5.376   6.688   5.788  2.1773 -0.6574  0.4295
 1495TIP3   OH225975   6.294   1.779  14.454 -0.1165  0.5626  0.1365
 1495TIP3    H125976   6.321   1.846  14.517  2.7422 -0.5355  0.1878
 1495TIP3    H225977   6.311   1.696  14.499 -2.3303 -0.2255 -0.4226
 1496TIP3   OH225978   5.579   4.649   2.426 -0.6294  0.3510  0.5903
 1496TIP3    H125979   5.611   4.669   2.514  2.0837 -3.4668  0.6502
 1496TIP3    H225980   5.651   4.675   2.368 -1.5950  1.0414 -0.3127
 1497TIP3   OH225981   6.814   0.376  16.105  0.4629  0.7092  0.1880
 1497TIP3    H125982   6.833   0.431  16.181  1.3668  0.0252  0.4639
 1497TIP3    H225983   6.876   0.406  16.038  0.6181  0.3626  0.1757
 1498TIP3   OH225984   1.253   1.234  13.458  0.4757 -0.2753 -0.0167
 1498TIP3    H125985   1.333   1.196  13.423  0.9492 -1.3416  2.1294
 1498TIP3    H225986   1.239   1.189  13.541 -2.1021  0.2311 -0.1272
 1499TIP3   OH225987   2.795   2.485  11.348 -0.1155  0.2619  0.0188
 1499TIP3    H125988   2.752   2.433  11.280 -1.5337  2.2941 -0.6863
 1499TIP3    H225989   2.725   2.511  11.407  0.7564  0.4546  0.9967
 1500TIP3   OH225990   5.737   2.582   2.123 -0.2239 -0.1594  0.1661
 1500TIP3    H125991   5.652   2.614   2.094 -0.9066  0.3263  2.6242
 1500TIP3    H225992   5.717   2.510   2.182  1.1493 -1.1611 -0.5391
 1501TIP3   OH225993   5.048   4.650  12.237  0.0227 -0.0449 -0.0746
 1501TIP3    H125994   4.978   4.665  12.301  0.7390  1.2494  0.4233
 1501TIP3    H225995   5.105   4.585  12.278  0.3577  0.6161  0.4966
 1502TIP3   OH225996   1.305   1.420  14.076  0.1273 -0.3437 -0.4062
 1502TIP3    H125997   1.393   1.414  14.038 -0.5185 -0.0095 -2.0027
 1502TIP3    H225998   1.311   1.490  14.140  0.8481  0.1387 -0.9943
 1503TIP3   OH225999   4.471   2.476  15.893  0.2112  0.2914  0.2296
 1503TIP3    H126000   4.493   2.407  15.956  1.2473  0.2345 -0.1939
 1503TIP3    H226001   4.404   2.528  15.938 -3.2919 -3.0529 -0.7876
 1504TIP3   OH226002   4.786   5.550  15.360  0.7279 -0.5032  0.0347
 1504TIP3    H126003   4.861   5.492  15.371  0.1640 -0.7777  2.8087
 1504TIP3    H226004   4.724   5.500  15.308  1.9858 -0.6892 -1.3283
 1505TIP3   OH226005   5.748   2.211  11.330 -0.9298  0.5571  0.9033
 1505TIP3    H126006   5.654   2.192  11.339 -0.5676 -1.3348  0.8822
 1505TIP3    H226007   5.763   2.209  11.236 -0.8824  0.9189  0.9032
 1506TIP3   OH226008   2.768   4.464   3.705  0.0127  0.1776  0.8007
 1506TIP3    H126009   2.737   4.504   3.623  1.7706  2.0969  1.0468
 1506TIP3    H226010   2.688   4.440   3.751 -1.0458  1.4453 -0.3325
 1507TIP3   OH226011   4.605   3.655   2.535  0.1080  0.0144  0.0038
 1507TIP3    H126012   4.634   3.741   2.503  0.5200  0.2134  0.8970
 1507TIP3    H226013   4.547   3.622   2.466 -0.1440  1.0579 -0.2872
 1508TIP3   OH226014   1.531   0.176   5.393  0.2368  0.1482 -0.6088
 1508TIP3    H126015   1.580   0.158   5.313  1.1647 -2.6819  0.5232
 1508TIP3    H226016   1.585   0.240   5.439  1.9178 -1.4087 -0.3266
 1509TIP3   OH226017   4.694   5.982   1.399  0.3710  0.5971  0.0064
 1509TIP3    H126018   4.638   6.052   1.434 -0.0136  0.7114 -0.8285
 1509TIP3    H226019   4.772   6.028   1.367 -0.3198  0.7555 -1.4540
 1510TIP3   OH226020   3.959   4.692   5.534  0.0654 -0.2669 -0.3081
 1510TIP3    H126021   4.007   4.698   5.617 -2.1782 -0.6988  1.0638
 1510TIP3    H226022   3.884   4.750   5.545 -0.1676 -0.2015 -2.1106
 1511TIP3   OH226023   3.995   4.135  11.046  0.2262  0.4763  0.1304
 1511TIP3    H126024   3.922   4.080  11.016 -1.2261  1.7689  1.2048
 1511TIP3    H226025   3.986   4.217  10.997  1.9090  0.0786 -0.8814
 1512TIP3   OH226026   2.789   6.155  10.894  0.5589 -0.2368 -0.7298
 1512TIP3    H126027   2.737   6.183  10.818 -0.7033  1.4023  0.6856
 1512TIP3    H226028   2.792   6.060  10.888 -0.6351 -0.1996 -2.1336
 1513TIP3   OH226029   6.736   3.542   3.851 -0.0849 -0.5103 -0.1063
 1513TIP3    H126030   6.703   3.452   3.847  2.0987 -1.3148 -0.9023
 1513TIP3    H226031   6.698   3.584   3.773  0.5015 -1.3381 -0.8589
 1514TIP3   OH226032   1.495   5.595  13.846 -0.4871  0.0835  0.1127
 1514TIP3    H126033   1.414   5.579  13.894 -0.4277  0.0437  0.2008
 1514TIP3    H226034   1.527   5.678  13.880 -1.4263  1.0192 -1.2106
 1515TIP3   OH226035   1.197   2.742  16.454 -0.0410  0.2529  0.8493
 1515TIP3    H126036   1.242   2.811  16.504  0.4714  0.0109  0.7279
 1515TIP3    H226037   1.253   2.665  16.464 -1.4944 -0.6375  2.4284
 1516TIP3   OH226038   1.975   2.696  14.337 -0.2062 -0.3702  0.7656
 1516TIP3    H126039   2.024   2.745  14.403  1.3751 -0.1182 -0.5520
 1516TIP3    H226040   2.028   2.618  14.321 -1.4614 -1.2876  1.0506
 1517TIP3   OH226041   0.542   6.335   2.927 -0.5961 -0.0634  0.5131
 1517TIP3    H126042   0.523   6.289   2.845  0.6366  0.1105  0.1249
 1517TIP3    H226043   0.568   6.423   2.900  1.5087 -0.5208  0.9709
 1518TIP3   OH226044   6.699   0.346   4.838  0.1294 -0.4172  0.1525
 1518TIP3    H126045   6.607   0.368   4.823  0.2733  0.5313  0.6428
 1518TIP3    H226046   6.747   0.410   4.787  0.5545  0.4604  1.6262
 1519TIP3   OH226047   5.799   3.570   5.406 -0.1700 -0.2458  0.0790
 1519TIP3    H126048   5.756   3.523   5.478 -1.4061 -0.1925 -0.6059
 1519TIP3    H226049   5.737   3.562   5.332  1.9049 -1.9555 -1.5511
 1520TIP3   OH226050   5.984   2.330   2.553 -0.2422 -0.2762 -0.4355
 1520TIP3    H126051   5.903   2.354   2.508  0.7687  0.0872 -2.0889
 1520TIP3    H226052   6.041   2.406   2.543  0.3342 -0.5475  0.6696
 1521TIP3   OH226053   1.264   1.328   3.520 -0.6866 -0.0247  0.1007
 1521TIP3    H126054   1.203   1.298   3.453 -1.0822 -0.1899  0.5362
 1521TIP3    H226055   1.294   1.247   3.562  0.3359  0.0011 -0.5449
 1522TIP3   OH226056   4.736   1.186  12.989 -0.2551  0.1190  0.3257
 1522TIP3    H126057   4.809   1.183  13.051  0.6414 -1.6921 -0.7716
 1522TIP3    H226058   4.663   1.144  13.034 -0.2576  0.7536  0.9313
 1523TIP3   OH226059   1.474   3.369  15.748 -0.7043 -0.3249 -0.6649
 1523TIP3    H126060   1.558   3.340  15.714 -0.8542 -1.0366 -0.4173
 1523TIP3    H226061   1.469   3.332  15.836 -0.3507  1.4518  0.1354
 1524TIP3   OH226062   2.562   2.834  15.372 -0.2955 -0.0590  0.0981
 1524TIP3    H126063   2.549   2.894  15.299 -1.1432  1.0625  1.1463
 1524TIP3    H226064   2.656   2.834  15.388 -0.3412  1.3782  0.4020
 1525TIP3   OH226065   0.179   0.624  13.547  0.0045  0.1354 -0.8561
 1525TIP3    H126066   0.202   0.605  13.456 -1.9720 -0.5089 -1.2440
 1525TIP3    H226067   0.086   0.644  13.544 -0.3420 -1.0733  1.1917
 1526TIP3   OH226068   5.501   3.773   0.729  0.6371  0.1281 -0.4921
 1526TIP3    H126069   5.528   3.736   0.813 -0.7162  1.6310  0.6434
 1526TIP3    H226070   5.414   3.736   0.714 -0.2352  1.9104  0.0854
 1527TIP3   OH226071   5.117   2.087   5.427 -0.0139 -0.4359 -0.3348
 1527TIP3    H126072   5.044   2.049   5.379 -0.5948 -1.7741  1.5569
 1527TIP3    H226073   5.189   2.089   5.364 -1.8099  1.5301 -2.4415
 1528TIP3   OH226074   1.408   3.918  14.462 -0.1581 -0.4511  0.1520
 1528TIP3    H126075   1.488   3.866  14.456 -0.4633 -1.1225  1.5983
 1528TIP3    H226076   1.341   3.864  14.419  0.3404  0.5190 -1.8826
 1529TIP3   OH226077   5.778   2.861  15.044  0.2598  0.2457 -0.3058
 1529TIP3    H126078   5.698   2.812  15.063  0.4330 -1.5873 -3.8669
 1529TIP3    H226079   5.846   2.795  15.037  1.5672  1.5259  0.0649
 1530TIP3   OH226080   3.113   0.063  14.852  0.0876  0.3864  0.0926
 1530TIP3    H126081   3.115  -0.028  14.824  0.1145  0.0259  1.2456
 1530TIP3    H226082   3.158   0.064  14.936 -0.7313  1.2960  0.5430
 1531TIP3   OH226083   5.107   1.200  17.126  0.0395  0.2181  0.3266
 1531TIP3    H126084   5.172   1.174  17.061 -0.9069 -1.5787  0.0595
 1531TIP3    H226085   5.031   1.227  17.075 -1.0241 -2.0271  0.6179
 1532TIP3   OH226086   2.448   1.206  14.722  0.0237 -0.0341  0.1529
 1532TIP3    H126087   2.432   1.246  14.637 -1.4693 -0.5733  0.1707
 1532TIP3    H226088   2.448   1.280  14.784  1.3660  0.3855 -0.3286
 1533TIP3   OH226089   4.543   1.369   5.726  0.5920 -0.1081 -0.0040
 1533TIP3    H126090   4.582   1.408   5.804  0.3644  0.8748 -0.3690
 1533TIP3    H226091   4.568   1.428   5.655  2.6186 -2.1563 -1.0484
 1534TIP3   OH226092   1.111   1.486  13.906  0.1378  0.0069  0.2642
 1534TIP3    H126093   1.173   1.537  13.855 -0.2704  1.3529  1.0817
 1534TIP3    H226094   1.150   1.481  13.993 -0.5480  0.2467  0.5915
 1535TIP3   OH226095   6.415   0.468  11.791  0.4123 -0.2217  0.4368
 1535TIP3    H126096   6.440   0.455  11.700  1.0397 -0.4058  0.6375
 1535TIP3    H226097   6.438   0.387  11.835  0.0996 -0.1390  0.7610
 1536TIP3   OH226098   2.079   6.637  15.799  0.1518 -0.1905  0.1075
 1536TIP3    H126099   2.113   6.572  15.861  1.9093  1.8936  1.3869
 1536TIP3    H226100   2.116   6.611  15.715  0.9628 -0.7563  0.6379
 1537TIP3   OH226101   4.435   1.228   1.170 -0.1249  0.2006 -0.2036
 1537TIP3    H126102   4.450   1.153   1.228 -0.2235 -0.5563 -1.1282
 1537TIP3    H226103   4.514   1.282   1.178 -0.7331  0.8368  1.6945
 1538TIP3   OH226104   2.656   3.889   5.098 -0.5870  0.1671 -0.2389
 1538TIP3    H126105   2.619   3.877   5.010 -0.9920  0.4400 -0.1101
 1538TIP3    H226106   2.581   3.917   5.151 -0.7543 -1.8171  0.6228
 1539TIP3   OH226107   4.359   1.011   3.509 -0.1695 -0.0006  0.8083
 1539TIP3    H126108   4.400   0.967   3.584  1.9888  0.3850 -0.0993
 1539TIP3    H226109   4.399   0.969   3.433 -0.3749  1.4365 -0.1008
 1540TIP3   OH226110   3.809   6.051  13.326  0.2390  0.0679 -0.0230
 1540TIP3    H126111   3.845   6.000  13.399 -0.0520 -0.0769  0.0180
 1540TIP3    H226112   3.867   6.127  13.320  0.7160 -0.2959 -0.1222
 1541TIP3   OH226113   0.418   1.262  11.191 -0.0090  0.5692  0.2675
 1541TIP3    H126114   0.394   1.192  11.251 -0.4991  1.1049  0.7009
 1541TIP3    H226115   0.468   1.219  11.122 -0.5109 -0.2464  0.4119
 1542TIP3   OH226116   4.427   6.701   4.032  0.0665  0.0181 -0.1536
 1542TIP3    H126117   4.429   6.609   4.006 -0.8881 -0.1713  0.4108
 1542TIP3    H226118   4.473   6.748   3.962  1.1078 -0.9606 -0.1294
 1543TIP3   OH226119   6.694   4.932  14.841  0.9649 -0.1974 -0.0213
 1543TIP3    H126120   6.608   4.901  14.812  1.2632 -0.5740 -0.5157
 1543TIP3    H226121   6.742   4.948  14.759  1.5585 -0.5460  0.2580
 1544TIP3   OH226122   2.260   6.818  14.364  0.0748  0.6232 -0.5150
 1544TIP3    H126123   2.334   6.775  14.407 -0.3020 -0.0991 -0.5968
 1544TIP3    H226124   2.205   6.848  14.437 -0.0723  0.2579 -0.4766
 1545TIP3   OH226125   3.446   1.913   4.806  0.7457  0.1027 -0.1940
 1545TIP3    H126126   3.362   1.913   4.852  0.4825 -1.0863 -0.6523
 1545TIP3    H226127   3.465   2.006   4.790  0.4820  0.4949  1.6379
 1546TIP3   OH226128   0.474   3.270  17.231  0.0011 -0.8054 -0.8014
 1546TIP3    H126129   0.404   3.213  17.263  2.0215 -2.6585  0.4864
 1546TIP3    H226130   0.505   3.315  17.309  2.5881 -2.6733 -0.6968
 1547TIP3   OH226131   5.118   4.476  14.470  0.2024  0.0932  0.0631
 1547TIP3    H126132   5.066   4.515  14.540  1.3041  1.7721 -0.0271
 1547TIP3    H226133   5.054   4.444  14.406 -0.7691 -0.3154  1.2249
 1548TIP3   OH226134   5.046   1.412  12.952  0.9496  0.4147 -0.5605
 1548TIP3    H126135   5.064   1.348  13.021 -1.1455 -1.1323 -1.3926
 1548TIP3    H226136   4.968   1.458  12.982 -0.1540 -0.4784 -1.9978
 1549TIP3   OH226137   3.970   5.302  15.904  0.2385  0.4191 -0.3546
 1549TIP3    H126138   3.923   5.356  15.968 -0.5589 -0.6010 -0.0684
 1549TIP3    H226139   3.936   5.332  15.819 -0.8422 -0.1995 -0.1551
 1550TIP3   OH226140   4.549   0.964  15.732 -0.1212 -0.6811 -0.0744
 1550TIP3    H126141   4.557   0.873  15.759 -1.8491 -1.3343 -1.6836
 1550TIP3    H226142   4.455   0.982  15.733  0.1823  1.0177 -0.0032
 1551TIP3   OH226143   0.770   3.895  15.803 -0.1981 -0.4337  1.0252
 1551TIP3    H126144   0.849   3.896  15.749  0.9010 -1.4158  2.5622
 1551TIP3    H226145   0.791   3.951  15.878 -1.6036  0.6905  0.6090
 1552TIP3   OH226146   1.525   0.896  14.535 -0.0305  0.5591  0.2918
 1552TIP3    H126147   1.470   0.820  14.515 -0.8374  1.3548 -0.6142
 1552TIP3    H226148   1.491   0.965  14.478  2.5334  0.8218 -1.0072
 1553TIP3   OH226149   0.555   0.418  13.068  0.4101 -0.0348 -0.2580
 1553TIP3    H126150   0.598   0.414  12.982 -2.2165  0.2093 -1.6521
 1553TIP3    H226151   0.532   0.511  13.078  0.5796 -0.0902  0.6261
 1554TIP3   OH226152   2.721   5.195   1.340 -0.4199 -0.1820  0.6119
 1554TIP3    H126153   2.806   5.182   1.381 -0.9596 -1.1796  1.4324
 1554TIP3    H226154   2.741   5.208   1.247  0.7236  1.1009  1.0310
 1555TIP3   OH226155   1.057   4.556  13.980 -0.5946 -0.1857 -0.1052
 1555TIP3    H126156   1.121   4.547  14.051 -0.6233  0.4981  0.0151
 1555TIP3    H226157   1.104   4.528  13.902  0.7250  2.7668 -0.4500
 1556TIP3   OH226158   4.831   2.440  14.350 -0.2083 -0.6905  0.3289
 1556TIP3    H126159   4.737   2.428  14.336 -0.1549 -0.1743 -0.5156
 1556TIP3    H226160   4.853   2.519  14.301  0.6134 -0.6388  0.7637
 1557TIP3   OH226161   6.708   5.242  14.042 -0.6915 -0.3373 -0.1699
 1557TIP3    H126162   6.744   5.247  14.130 -0.1121 -1.9088 -0.3118
 1557TIP3    H226163   6.766   5.182  13.995 -2.6508 -1.8028 -0.8058
 1558TIP3   OH226164   6.171   3.770  16.057  0.1296  0.1171  0.7601
 1558TIP3    H126165   6.258   3.740  16.031 -0.6783 -0.4584 -1.3964
 1558TIP3    H226166   6.179   3.865  16.061  0.4566  0.1911 -1.0815
 1559TIP3   OH226167   0.932   1.984  11.729 -0.3360  0.3526 -0.0240
 1559TIP3    H126168   0.948   1.979  11.635 -1.9062 -0.0388 -0.2888
 1559TIP3    H226169   0.999   2.043  11.762 -0.1388  0.9542 -1.4740
 1560TIP3   OH226170   5.757   0.041   3.808 -0.4417  0.9376 -0.2132
 1560TIP3    H126171   5.817   0.025   3.881 -0.6474  1.6202  0.1055
 1560TIP3    H226172   5.719   0.127   3.826 -1.1435  0.7300 -0.6772
 1561TIP3   OH226173   6.202   3.077   5.428  0.1085 -0.0103 -0.7887
 1561TIP3    H126174   6.175   3.121   5.509 -0.4511  1.0956 -1.5448
 1561TIP3    H226175   6.120   3.043   5.391  0.0676  1.1570 -1.8291
 1562TIP3   OH226176   3.874   1.613  15.758 -0.1052 -0.3284  0.2884
 1562TIP3    H126177   3.848   1.702  15.731  0.5208 -0.4469 -0.7292
 1562TIP3    H226178   3.822   1.555  15.702 -0.2873 -0.6081  0.7419
 1563TIP3   OH226179   0.111   1.122  15.998  0.2575  0.4232  0.1386
 1563TIP3    H126180   0.194   1.074  16.009  0.2371  0.8028  2.0612
 1563TIP3    H226181   0.128   1.208  16.038 -0.5178  1.1156 -1.0181
 1564TIP3   OH226182   0.521   3.338  16.617 -0.6526 -0.1413 -0.0657
 1564TIP3    H126183   0.584   3.351  16.546 -0.4122 -1.0189 -0.0272
 1564TIP3    H226184   0.439   3.373  16.583 -0.1587  1.0001 -0.1273
 1565TIP3   OH226185   5.744   3.555  16.171 -0.0181 -0.3280  0.1325
 1565TIP3    H126186   5.760   3.477  16.225  1.5050  0.7583  1.2935
 1565TIP3    H226187   5.725   3.625  16.235 -2.3052  0.0796 -0.9242
 1566TIP3   OH226188   6.495   0.027   1.718  0.2865 -0.2657 -0.5620
 1566TIP3    H126189   6.401   0.029   1.739  0.2050  2.6133 -1.0546
 1566TIP3    H226190   6.526  -0.055   1.756 -2.1989 -0.6952  0.6365
 1567TIP3   OH226191   4.300   3.110   1.378 -0.1965  0.3471  0.1134
 1567TIP3    H126192   4.393   3.094   1.393 -0.4980 -1.6352  0.0478
 1567TIP3    H226193   4.273   3.165   1.451  0.5008 -1.1193  1.5290
 1568TIP3   OH226194   4.287   2.637   5.140 -0.0004 -0.1098  0.3838
 1568TIP3    H126195   4.316   2.613   5.227  0.7087  1.2857  0.5470
 1568TIP3    H226196   4.284   2.733   5.141  2.2646  0.0287 -1.8415
 1569TIP3   OH226197   2.961   6.488   5.461  0.7798 -0.3858  0.0558
 1569TIP3    H126198   3.050   6.507   5.489  0.6286 -1.3842  1.2425
 1569TIP3    H226199   2.961   6.506   5.367  1.5568  1.9697  0.4782
 1570TIP3   OH226200   1.303   4.427  14.121  0.2798 -0.3342  0.0155
 1570TIP3    H126201   1.297   4.338  14.155 -0.2126 -0.0890  0.5860
 1570TIP3    H226202   1.324   4.416  14.028  2.5865 -1.0017  0.5759
 1571TIP3   OH226203   1.264   5.361   3.693 -0.0585  0.0172 -0.0353
 1571TIP3    H126204   1.283   5.432   3.632  0.7636  1.3453  1.7376
 1571TIP3    H226205   1.350   5.325   3.715 -0.4237 -1.1209 -0.4232
 1572TIP3   OH226206   5.813   6.671   5.451  0.2408  0.0899  0.5709
 1572TIP3    H126207   5.834   6.613   5.378  0.9091  1.5318 -0.4060
 1572TIP3    H226208   5.732   6.635   5.488  0.2759 -1.0512 -0.4474
 1573TIP3   OH226209   5.887   6.625  12.511  0.0302 -0.1210 -0.4249
 1573TIP3    H126210   5.960   6.674  12.474 -0.0863 -0.0590 -0.5706
 1573TIP3    H226211   5.928   6.556  12.562  0.1847 -0.8949 -1.5844
 1574TIP3   OH226212   4.632   0.035  13.273  0.5620  0.9307 -0.5296
 1574TIP3    H126213   4.649   0.100  13.342  1.9293 -0.4718  0.4928
 1574TIP3    H226214   4.550  -0.007  13.300 -0.4685  2.3628 -1.3315
 1575TIP3   OH226215   5.028   1.870  12.075  0.3561  0.3624  0.0830
 1575TIP3    H126216   5.067   1.883  11.989  0.8517  3.2210  0.6614
 1575TIP3    H226217   4.934   1.863  12.059  0.4114  1.2984 -0.6762
 1576TIP3   OH226218   2.822   0.985   5.133 -0.2564 -0.0844 -0.1515
 1576TIP3    H126219   2.736   0.961   5.099 -0.5159 -0.0769  0.4921
 1576TIP3    H226220   2.882   0.922   5.094 -0.3724  0.6664 -1.5848
 1577TIP3   OH226221   5.027   3.664   0.548 -0.1806 -0.3098 -0.2556
 1577TIP3    H126222   5.110   3.634   0.584 -1.1071 -2.3930  0.2424
 1577TIP3    H226223   5.047   3.685   0.457  0.6657 -1.9038 -0.4548
 1578TIP3   OH226224   1.800   0.230  17.007 -0.3147 -0.0256  0.1347
 1578TIP3    H126225   1.714   0.189  17.000 -0.3768  0.1136  0.0816
 1578TIP3    H226226   1.846   0.202  16.928 -0.7741  0.9846 -0.5034
 1579TIP3   OH226227   1.462   6.663   3.310 -0.5236 -0.2057  0.3102
 1579TIP3    H126228   1.516   6.651   3.387 -0.0893  0.4426  0.1087
 1579TIP3    H226229   1.408   6.584   3.306  1.1649 -1.3562 -0.1180
 1580TIP3   OH226230   1.592   1.303   3.269 -0.0494  0.1451 -0.3165
 1580TIP3    H126231   1.630   1.389   3.254 -0.5054 -0.0517 -2.9193
 1580TIP3    H226232   1.577   1.268   3.181 -1.1697 -2.0076  0.6883
 1581TIP3   OH226233   1.985   3.669  12.508 -0.0100 -0.5793 -0.2361
 1581TIP3    H126234   2.065   3.692  12.555 -1.3448 -1.0864  2.3595
 1581TIP3    H226235   1.975   3.739  12.442  2.6812 -0.6790 -0.8020
 1582TIP3   OH226236   5.310   0.056   3.323 -0.3802  0.4740 -0.0140
 1582TIP3    H126237   5.392   0.008   3.332 -2.5692 -3.3717  0.6683
 1582TIP3    H226238   5.306   0.113   3.399  0.2555 -1.5970  1.6148
 1583TIP3   OH226239   1.543   1.137   1.882  0.0097 -0.0825 -0.1780
 1583TIP3    H126240   1.600   1.082   1.937 -0.5966 -0.1644  0.3767
 1583TIP3    H226241   1.484   1.179   1.944  1.2163  2.1370 -0.4644
 1584TIP3   OH226242   0.501   6.071   4.715 -0.3490 -0.2948 -0.6182
 1584TIP3    H126243   0.413   6.096   4.744 -0.8588 -3.2569  0.5472
 1584TIP3    H226244   0.487   6.005   4.648  0.9767 -0.1058 -1.0943
 1585TIP3   OH226245   5.645   2.527   3.228  0.2611 -0.2213  0.1894
 1585TIP3    H126246   5.604   2.446   3.260 -0.2502 -0.0146  0.0595
 1585TIP3    H226247   5.596   2.550   3.149  0.9948 -0.2797 -0.2919
 1586TIP3   OH226248   1.666   3.649   1.110 -0.0085  1.3251  0.0871
 1586TIP3    H126249   1.629   3.568   1.074  1.7445  0.2560  0.6375
 1586TIP3    H226250   1.616   3.718   1.068 -1.3927 -0.0365 -0.5694
 1587TIP3   OH226251   0.734   3.537   2.931 -0.3035 -0.6610  0.3563
 1587TIP3    H126252   0.759   3.550   3.023  2.6911 -2.3381 -0.1684
 1587TIP3    H226253   0.757   3.446   2.913 -1.3103 -0.4841 -1.9510
 1588TIP3   OH226254   4.002   5.636   4.429 -0.1330  0.2202  0.0069
 1588TIP3    H126255   4.055   5.617   4.507  1.7459  1.2084 -0.9761
 1588TIP3    H226256   4.018   5.728   4.411 -2.2345  0.5418 -0.3367
 1589TIP3   OH226257   1.522   3.685   3.866  0.3271  0.3228  0.0593
 1589TIP3    H126258   1.498   3.595   3.889 -1.9225  0.9471  0.2992
 1589TIP3    H226259   1.613   3.679   3.835  0.0408 -2.0974 -0.4030
 1590TIP3   OH226260   5.366   6.735   5.405  0.2661 -0.0216  0.2586
 1590TIP3    H126261   5.288   6.772   5.364  0.9778 -0.7805 -1.8381
 1590TIP3    H226262   5.439   6.766   5.352  1.0057 -3.0061 -0.5936
 1591TIP3   OH226263   6.764   0.641  14.435 -0.0375  0.4006 -0.2667
 1591TIP3    H126264   6.845   0.693  14.431 -0.3899  0.9525 -0.3459
 1591TIP3    H226265   6.771   0.580  14.362  0.7785 -0.2513  0.3444
 1592TIP3   OH226266   0.110   1.475  11.353  0.1682 -0.2871  0.3350
 1592TIP3    H126267   0.190   1.465  11.404 -0.2074  1.0590  1.2195
 1592TIP3    H226268   0.040   1.478  11.418 -0.5842 -1.2104 -0.4195
 1593TIP3   OH226269   5.769   0.161  14.405 -0.1086  0.0099 -0.2956
 1593TIP3    H126270   5.821   0.240  14.397 -0.6381  0.5693  1.6293
 1593TIP3    H226271   5.767   0.142  14.499 -0.7691 -1.7468 -0.6426
 1594TIP3   OH226272   4.792   2.636   3.927 -0.1029 -0.5449  0.3549
 1594TIP3    H126273   4.801   2.559   3.871 -0.2572 -0.3140  0.0057
 1594TIP3    H226274   4.721   2.686   3.887  0.7610  0.3429 -0.0977
 1595TIP3   OH226275   3.966   3.171   5.495  0.2230 -0.0780  1.0508
 1595TIP3    H126276   3.954   3.177   5.590  0.1161  0.4398  1.0057
 1595TIP3    H226277   3.927   3.252   5.461  0.8332  0.0366  0.6214
 1596TIP3   OH226278   6.696   6.559  16.483 -0.2884 -0.0761  0.1041
 1596TIP3    H126279   6.694   6.652  16.505 -0.4534 -0.1905  0.5691
 1596TIP3    H226280   6.783   6.545  16.445 -0.4145  0.3537 -0.3439
 1597TIP3   OH226281   1.107   6.805  15.696  0.1831 -0.2611  0.3788
 1597TIP3    H126282   1.061   6.862  15.757 -0.6630  1.4981 -1.8179
 1597TIP3    H226283   1.100   6.718  15.734 -3.0368  0.3135  1.2505
 1598TIP3   OH226284   5.023   5.283  14.343  0.3299  0.6420 -0.1003
 1598TIP3    H126285   5.112   5.260  14.315 -0.2982  1.0315 -2.4942
 1598TIP3    H226286   4.974   5.292  14.261 -1.9006  0.5149  1.1960
 1599TIP3   OH226287   3.022   0.831   5.016  0.0702  0.9866  0.1041
 1599TIP3    H126288   3.039   0.737   5.005 -1.4287  0.9345 -1.8690
 1599TIP3    H226289   3.107   0.872   5.000  0.3254  0.1025 -0.8763
 1600TIP3   OH226290   3.674   5.200  12.342  0.2780  0.4820  0.3820
 1600TIP3    H126291   3.645   5.193  12.433  0.7384  1.3545  0.6014
 1600TIP3    H226292   3.746   5.136  12.335  0.6330  0.8306  0.7968
 1601TIP3   OH226293   4.705   6.728  15.969 -0.0867  0.3974  0.4814
 1601TIP3    H126294   4.782   6.678  15.997  0.6653  0.1657 -1.8492
 1601TIP3    H226295   4.708   6.808  16.021  1.2931  0.0303  0.9922
 1602TIP3   OH226296   4.041   5.990   4.227 -0.3598  0.3438 -0.8165
 1602TIP3    H126297   4.055   5.906   4.183  0.5675 -0.3170  0.7378
 1602TIP3    H226298   4.032   6.052   4.155 -0.3947 -0.9690 -1.9783
 1603TIP3   OH226299   1.552   0.875   1.212 -0.5120  0.0421  0.1161
 1603TIP3    H126300   1.493   0.928   1.265 -0.8926  0.7123 -0.9626
 1603TIP3    H226301   1.620   0.936   1.183  1.2122 -0.8862  2.0259
 1604TIP3   OH226302   3.175   3.479  16.483  0.7708  0.0672 -0.3025
 1604TIP3    H126303   3.260   3.517  16.504  0.1533  0.8776  0.7332
 1604TIP3    H226304   3.135   3.461  16.568  0.2185 -1.0391 -0.7858
 1605TIP3   OH226305   4.084   4.930   1.218 -0.6040 -0.5067  0.3839
 1605TIP3    H126306   4.002   4.977   1.236 -1.2369 -1.4081 -0.0874
 1605TIP3    H226307   4.059   4.838   1.219  1.0182 -0.9712  3.2790
 1606TIP3   OH226308   1.449   2.521  13.817  0.4369  0.0067 -0.0876
 1606TIP3    H126309   1.503   2.580  13.765 -1.4430  0.3742 -1.7159
 1606TIP3    H226310   1.421   2.453  13.755 -1.9564  0.5181  0.3718
 1607TIP3   OH226311   4.760   6.164   5.974  0.4097 -0.1079  0.3286
 1607TIP3    H126312   4.809   6.082   5.987 -0.5036 -0.6816  0.2369
 1607TIP3    H226313   4.737   6.192   6.063 -1.6106 -1.4108  0.2425
 1608TIP3   OH226314   4.131   3.534   4.130 -0.7349 -0.3842  0.0250
 1608TIP3    H126315   4.163   3.486   4.207  0.9631  0.4391 -0.1427
 1608TIP3    H226316   4.036   3.523   4.132 -0.6500 -0.8668  1.9018
 1609TIP3   OH226317   3.324   2.770  16.855  0.3649 -0.0971 -0.4577
 1609TIP3    H126318   3.411   2.773  16.894  0.0237  2.1147  0.2013
 1609TIP3    H226319   3.284   2.691  16.891  2.5624 -1.9449 -1.8720
 1610TIP3   OH226320   6.659   2.412  15.605 -0.4819  0.2380  0.5700
 1610TIP3    H126321   6.732   2.352  15.622  0.9959  1.5179 -1.0132
 1610TIP3    H226322   6.611   2.372  15.533  0.5048  0.9346 -0.4885
 1611TIP3   OH226323   3.939   3.716  13.737 -0.2826 -0.7272 -0.5987
 1611TIP3    H126324   3.982   3.702  13.821 -0.3806 -1.2958 -0.6405
 1611TIP3    H226325   3.846   3.700  13.755 -0.5306  0.7920 -0.4387
 1612TIP3   OH226326   0.867   4.445  15.177 -0.0905 -0.3075 -0.7026
 1612TIP3    H126327   0.877   4.363  15.128 -1.6742 -1.3435  0.6773
 1612TIP3    H226328   0.837   4.418  15.263 -1.0200  1.7686 -0.3564
 1613TIP3   OH226329   1.265   5.548   0.730  0.2882 -0.0447  0.1837
 1613TIP3    H126330   1.209   5.625   0.735  1.9011  1.1039  1.2868
 1613TIP3    H226331   1.209   5.475   0.758 -1.0442  0.8349 -0.1579
 1614TIP3   OH226332   3.674   4.546   3.119 -0.2381 -0.3380  0.1059
 1614TIP3    H126333   3.687   4.588   3.203 -0.9356  0.7216 -0.3128
 1614TIP3    H226334   3.582   4.518   3.120  0.2084 -1.8299  0.3711
 1615TIP3   OH226335   2.300   0.860   5.291  0.3129  0.1458 -0.5300
 1615TIP3    H126336   2.325   0.892   5.204  1.4396 -1.5812 -0.8587
 1615TIP3    H226337   2.307   0.936   5.348  1.7415  0.7862 -1.5366
 1616TIP3   OH226338   3.550   4.257  16.303  0.0630 -0.5584  0.0747
 1616TIP3    H126339   3.502   4.281  16.382 -1.3949  0.8487 -1.2063
 1616TIP3    H226340   3.543   4.334  16.246 -0.1701 -2.0801 -2.0056
 1617TIP3   OH226341   5.229   5.526   2.545 -0.4459 -0.3932 -0.2310
 1617TIP3    H126342   5.242   5.445   2.595 -0.9964  0.5648  1.4967
 1617TIP3    H226343   5.316   5.563   2.536 -0.1851 -1.1879 -1.0601
 1618TIP3   OH226344   1.281   6.344   4.460  0.3924  0.0416  0.4215
 1618TIP3    H126345   1.188   6.344   4.440  0.3003 -1.3948  0.8033
 1618TIP3    H226346   1.295   6.264   4.510  1.7021  0.6080  0.9756
 1619TIP3   OH226347   3.431   0.419  13.927  0.0975 -0.2423 -0.1157
 1619TIP3    H126348   3.421   0.338  13.877 -1.2876  0.7500 -1.4986
 1619TIP3    H226349   3.380   0.483  13.878 -0.3689  1.0214  1.9775
 1620TIP3   OH226350   5.776   0.747   5.277 -0.1483 -0.6958  0.0448
 1620TIP3    H126351   5.733   0.692   5.343  0.7397 -1.5560 -0.0790
 1620TIP3    H226352   5.861   0.769   5.315 -0.4840  0.5818  0.0763
 1621TIP3   OH226353   0.551   1.899   4.941 -0.0949  0.0606  0.5372
 1621TIP3    H126354   0.499   1.893   5.021  0.2311 -3.2486  0.5504
 1621TIP3    H226355   0.515   1.831   4.884  2.0083 -0.0023 -0.7600
 1622TIP3   OH226356   1.598   6.311   4.199  0.2915  0.1011  0.1183
 1622TIP3    H126357   1.546   6.384   4.232  0.1709 -0.4046  1.0426
 1622TIP3    H226358   1.688   6.338   4.211  0.2467  0.1463  0.3538
 1623TIP3   OH226359   4.305   4.124  15.896 -0.2505  0.3921 -0.0619
 1623TIP3    H126360   4.217   4.140  15.861  0.5492  1.6911 -1.5440
 1623TIP3    H226361   4.303   4.034  15.926 -2.2183  0.5271  0.2869
 1624TIP3   OH226362   5.640   1.465   0.519 -0.1692  0.0059  0.4359
 1624TIP3    H126363   5.702   1.393   0.519 -2.0928 -1.6906 -0.2034
 1624TIP3    H226364   5.649   1.504   0.432 -1.3511 -1.4554 -0.3615
 1625TIP3   OH226365   2.897   1.017   4.739  0.1650  0.3373 -0.0389
 1625TIP3    H126366   2.990   1.000   4.724  0.0036  0.1840 -0.8950
 1625TIP3    H226367   2.894   1.107   4.770  0.3675  1.2401 -2.5544
 1626TIP3   OH226368   3.390   0.217   1.879  0.3530 -0.4012 -0.0151
 1626TIP3    H126369   3.365   0.259   1.797  0.9006  0.5476  0.3097
 1626TIP3    H226370   3.484   0.201   1.871  0.1359 -1.6956 -0.1902
 1627TIP3   OH226371   1.444   5.639  16.846  0.0337 -0.2542 -0.1082
 1627TIP3    H126372   1.474   5.631  16.936  0.9193 -0.8002 -0.4473
 1627TIP3    H226373   1.363   5.588  16.843 -0.8644  1.0982  0.7686
 1628TIP3   OH226374   3.180   0.633   2.977 -0.1766 -0.0300 -0.0070
 1628TIP3    H126375   3.212   0.673   2.897 -0.2552  0.4631  0.2078
 1628TIP3    H226376   3.100   0.588   2.952  0.2623 -0.6138 -0.3842
 1629TIP3   OH226377   4.684   4.230   5.788 -0.1766 -0.1982  0.1531
 1629TIP3    H126378   4.689   4.165   5.857 -3.0765 -0.5070  0.1632
 1629TIP3    H226379   4.627   4.191   5.722  0.1817  1.2675 -1.0629
 1630TIP3   OH226380   5.661   5.510  16.815 -0.1868 -0.3304 -0.9947
 1630TIP3    H126381   5.704   5.531  16.898 -1.5703 -0.1221 -0.3248
 1630TIP3    H226382   5.724   5.452  16.770  0.8498  0.0715 -0.0952
 1631TIP3   OH226383   2.962   5.442  12.273 -0.7605 -0.6286  0.2672
 1631TIP3    H126384   2.939   5.396  12.354  1.1471 -0.0804  1.1464
 1631TIP3    H226385   2.929   5.531  12.286  0.2423 -0.3310  0.7677
 1632TIP3   OH226386   0.971   4.954  13.532  0.3535 -0.1868  0.3498
 1632TIP3    H126387   0.895   4.917  13.578  0.6912 -1.1589  0.1440
 1632TIP3    H226388   0.956   5.048  13.532 -0.8076 -0.3673  0.3937
 1633TIP3   OH226389   6.152   5.190   4.877 -0.1056  0.1897 -0.5386
 1633TIP3    H126390   6.058   5.172   4.879  0.3073 -2.0184  1.8720
 1633TIP3    H226391   6.185   5.140   4.802 -0.4388 -1.4916  0.4035
 1634TIP3   OH226392   4.118   4.543   6.706  0.0827 -0.1853  0.0084
 1634TIP3    H126393   4.029   4.549   6.741 -0.2623  1.0477 -1.0559
 1634TIP3    H226394   4.107   4.518   6.615  0.7679  1.1456 -0.4470
 1635TIP3   OH226395   1.411   1.182   2.612 -0.3691 -0.8993 -0.4004
 1635TIP3    H126396   1.502   1.196   2.639 -0.8485  1.1012  0.2851
 1635TIP3    H226397   1.372   1.134   2.684  0.0125 -1.3941 -0.5122
 1636TIP3   OH226398   4.522   3.813  11.924  0.2951  0.2009 -0.6035
 1636TIP3    H126399   4.494   3.750  11.857 -1.6336 -0.4526  0.7901
 1636TIP3    H226400   4.447   3.823  11.982  1.5124  1.7120  0.7886
 1637TIP3   OH226401   0.958   1.341   2.442  0.2238  0.1948  0.8766
 1637TIP3    H126402   0.995   1.429   2.440  1.1785 -0.1905  1.3885
 1637TIP3    H226403   1.033   1.283   2.428 -0.4082 -0.5351  0.4795
 1638TIP3   OH226404   2.649   0.414  13.712 -0.1670 -0.2833  1.0476
 1638TIP3    H126405   2.574   0.406  13.654  1.6806 -2.8739 -1.0956
 1638TIP3    H226406   2.693   0.494  13.684 -1.1000  0.2438  1.0893
 1639TIP3   OH226407   1.822   2.032  12.826 -0.3680 -0.1385 -0.0898
 1639TIP3    H126408   1.738   2.021  12.783 -0.2109  0.0084 -0.4344
 1639TIP3    H226409   1.872   2.090  12.768  0.4103 -1.1990 -0.5123
 1640TIP3   OH226410   3.240   6.093  15.726  0.0960 -0.1580  0.1703
 1640TIP3    H126411   3.229   6.091  15.631 -1.6669  0.2872  0.3364
 1640TIP3    H226412   3.245   6.186  15.747 -0.1196 -0.2392  0.5760
 1641TIP3   OH226413   2.080   6.792  13.341 -0.0191 -0.3562 -0.4340
 1641TIP3    H126414   2.134   6.780  13.419  0.0889 -1.3367 -0.6617
 1641TIP3    H226415   2.118   6.734  13.275  0.1466  0.7682 -1.3560
 1642TIP3   OH226416   5.901   4.546  13.727 -0.1499  0.2605 -0.3164
 1642TIP3    H126417   5.958   4.613  13.764  1.3688 -0.7694 -0.7271
 1642TIP3    H226418   5.882   4.487  13.800  1.6937 -0.9889 -0.8128
 1643TIP3   OH226419   0.977   2.094  11.314  0.2330 -0.1575 -0.1156
 1643TIP3    H126420   0.987   2.189  11.317 -0.0887 -0.0885 -1.0009
 1643TIP3    H226421   0.883   2.079  11.319  0.0650 -0.2780 -2.9304
 1644TIP3   OH226422   4.928   6.422   2.828  0.0039 -0.0813  0.0638
 1644TIP3    H126423   5.016   6.455   2.843 -0.3279  0.3507  1.0915
 1644TIP3    H226424   4.922   6.412   2.733  2.1699 -2.9337  0.1415
 1645TIP3   OH226425   6.152   1.760   0.326  0.5729 -0.2828  0.1897
 1645TIP3    H126426   6.179   1.846   0.358  0.8818 -0.4721  0.4410
 1645TIP3    H226427   6.223   1.733   0.267 -1.0368  1.0493 -2.4593
 1646TIP3   OH226428   0.513   1.747  12.141 -0.7333 -0.3589  0.4443
 1646TIP3    H126429   0.432   1.754  12.191 -0.9775  0.4024 -0.0492
 1646TIP3    H226430   0.578   1.719  12.205 -0.3743  3.4984  1.9158
 1647TIP3   OH226431   0.526   0.999   4.496 -0.1608  0.1381 -0.5281
 1647TIP3    H126432   0.444   1.044   4.478 -0.2029  0.0484 -0.5639
 1647TIP3    H226433   0.509   0.948   4.575 -0.2699 -0.2055 -0.7706
 1648TIP3   OH226434   6.352   6.758  12.884 -0.6095  0.4302  0.0563
 1648TIP3    H126435   6.447   6.763  12.878 -0.5696  0.0964  0.3915
 1648TIP3    H226436   6.332   6.666  12.864 -0.5703 -0.4527  3.7730
 1649TIP3   OH226437   5.993   4.524   0.487  0.1406 -0.0529  0.1732
 1649TIP3    H126438   6.043   4.465   0.430 -0.3597  0.8180 -1.2053
 1649TIP3    H226439   5.910   4.537   0.441  0.0590  1.3367  0.6873
 1650TIP3   OH226440   1.057   4.498  15.781  0.1873  0.6928  0.1418
 1650TIP3    H126441   1.129   4.461  15.730 -0.4618  0.4499 -0.6071
 1650TIP3    H226442   1.036   4.581  15.739 -0.0540  0.7053  0.2814
 1651TIP3   OH226443   2.273   0.528  16.829 -0.4801  0.3130 -0.5073
 1651TIP3    H126444   2.235   0.485  16.906  0.5967 -0.8144 -0.6011
 1651TIP3    H226445   2.364   0.499  16.828 -0.0475  1.6600 -1.2522
 1652TIP3   OH226446   5.775   0.211  11.324 -0.6327 -0.1213  0.0776
 1652TIP3    H126447   5.787   0.186  11.232  0.5587 -1.0943  0.4732
 1652TIP3    H226448   5.860   0.248  11.350 -0.6833 -0.6500  1.0202
 1653TIP3   OH226449   4.823   2.789   5.081  0.2651 -0.2912  0.1757
 1653TIP3    H126450   4.917   2.778   5.089  0.5632  1.3676 -0.7450
 1653TIP3    H226451   4.803   2.768   4.990 -0.1995 -0.2606  0.2654
 1654TIP3   OH226452   2.462   0.576  15.132  0.6970 -0.3265 -0.1389
 1654TIP3    H126453   2.479   0.482  15.139 -0.3893 -0.4044  2.1224
 1654TIP3    H226454   2.376   0.587  15.174  0.3113  1.5278 -1.3821
 1655TIP3   OH226455   1.387   1.431  11.684 -0.8283 -0.0798 -0.6358
 1655TIP3    H126456   1.401   1.348  11.728  2.8923  0.7363 -0.0633
 1655TIP3    H226457   1.366   1.407  11.593  0.3288 -1.6456 -0.5088
 1656TIP3   OH226458   3.462   0.171  12.661 -0.3317 -0.2822 -0.0372
 1656TIP3    H126459   3.438   0.230  12.732  0.2354  1.4692 -1.2728
 1656TIP3    H226460   3.443   0.083  12.695  1.0540  0.4405  2.7166
 1657TIP3   OH226461   5.762   6.208   4.945  0.4175 -0.3215  0.1996
 1657TIP3    H126462   5.735   6.245   5.029  0.9609 -0.6261  0.5132
 1657TIP3    H226463   5.825   6.140   4.969  0.5393 -0.4342 -0.4540
 1658TIP3   OH226464   0.980   0.829  15.809 -0.0461  0.0436  0.0026
 1658TIP3    H126465   0.956   0.919  15.834 -0.4246  0.2229 -0.9700
 1658TIP3    H226466   1.074   0.825  15.822 -0.3500 -0.1426  2.2810
 1659TIP3   OH226467   2.131   5.420   1.202 -0.0475 -0.4351 -0.5694
 1659TIP3    H126468   2.201   5.359   1.225 -0.5527 -0.5912  0.5808
 1659TIP3    H226469   2.165   5.468   1.127  2.8037  2.0288  2.1337
 1660TIP3   OH226470   0.424   5.387  14.903 -0.4800  0.1575 -0.6394
 1660TIP3    H126471   0.508   5.421  14.873 -0.2597  1.0271  0.9414
 1660TIP3    H226472   0.445   5.301  14.938 -0.2409  0.3900 -0.2070
 1661TIP3   OH226473   5.607   4.066   3.685  0.3430 -0.3077 -0.2657
 1661TIP3    H126474   5.670   4.136   3.703  1.3584 -1.5547  1.1376
 1661TIP3    H226475   5.615   4.006   3.760 -0.7000 -1.7841 -1.3038
 1662TIP3   OH226476   3.538   4.396   6.036 -0.2088 -0.6402 -0.1304
 1662TIP3    H126477   3.598   4.353   5.975  1.8437  0.1373  1.2967
 1662TIP3    H226478   3.513   4.328   6.098 -0.3597 -0.8256 -0.3921
 1663TIP3   OH226479   5.310   4.371  11.187 -0.1332  0.0490  0.0307
 1663TIP3    H126480   5.214   4.372  11.192 -0.1355 -0.5505  0.1683
 1663TIP3    H226481   5.329   4.315  11.112  0.1088  0.1934 -0.0137
 1664TIP3   OH226482   2.832   4.433   3.279  0.0996  0.8151 -0.0437
 1664TIP3    H126483   2.877   4.508   3.318 -1.2408  0.5414  2.1058
 1664TIP3    H226484   2.790   4.390   3.353  0.4096 -1.7668 -1.3395
 1665TIP3   OH226485   5.771   1.281  13.421  0.0530 -0.1752  0.1632
 1665TIP3    H126486   5.786   1.299  13.514  0.1459 -0.7258  0.2505
 1665TIP3    H226487   5.784   1.187  13.411 -1.7326 -0.4040 -0.0737
 1666TIP3   OH226488   5.425   1.756  15.813 -0.0551 -0.3484 -0.0930
 1666TIP3    H126489   5.426   1.815  15.888  0.1977 -1.2118  0.5803
 1666TIP3    H226490   5.510   1.770  15.770  0.5715 -1.1988  0.8363
 1667TIP3   OH226491   2.377   6.280  12.666  0.5552  0.4013  0.1034
 1667TIP3    H126492   2.436   6.355  12.662 -0.9341  1.5581 -0.7153
 1667TIP3    H226493   2.393   6.232  12.585 -0.7194  1.5705 -0.8571
 1668TIP3   OH226494   6.425   5.770   4.158  0.7518 -0.2217 -0.0451
 1668TIP3    H126495   6.472   5.707   4.104  0.6183 -1.5780  1.3919
 1668TIP3    H226496   6.375   5.823   4.095  1.3136 -1.1630 -1.3049
 1669TIP3   OH226497   6.763   6.310   3.842  0.2268 -0.1662 -0.0755
 1669TIP3    H126498   6.821   6.339   3.912 -1.0893 -0.7798  1.2876
 1669TIP3    H226499   6.678   6.348   3.863 -0.3190 -0.8306 -1.0214
 1670TIP3   OH226500   3.140   0.300   5.467  0.3355  0.3458 -0.5831
 1670TIP3    H126501   3.172   0.390   5.457 -1.1223  0.9567  0.1672
 1670TIP3    H226502   3.062   0.296   5.413  0.1678 -0.3565 -0.2900
 1671TIP3   OH226503   1.889   1.961   3.415 -0.5006 -0.1492  0.0419
 1671TIP3    H126504   1.914   1.879   3.374  1.5971  0.0868  0.8149
 1671TIP3    H226505   1.793   1.960   3.413 -0.4991 -0.7025 -3.7246
 1672TIP3   OH226506   0.219   6.084   6.235 -0.3390 -0.1874  0.0739
 1672TIP3    H126507   0.177   6.063   6.319  1.9021  0.7495  1.4719
 1672TIP3    H226508   0.209   6.179   6.227  0.3747 -0.1384 -0.2021
 1673TIP3   OH226509   0.482   4.185  12.151  0.3566 -0.3797 -0.6157
 1673TIP3    H126510   0.486   4.280  12.141  0.7716 -0.4163 -0.8193
 1673TIP3    H226511   0.498   4.152  12.062 -1.5790 -0.6015 -0.8912
 1674TIP3   OH226512   2.036   1.232   2.323  0.4062  0.2477 -0.2375
 1674TIP3    H126513   2.014   1.326   2.323  0.5319  0.2844  0.9606
 1674TIP3    H226514   2.066   1.215   2.234  0.2595  1.3206 -0.5049
 1675TIP3   OH226515   3.928   4.896  12.991  0.5685 -0.0284  0.0146
 1675TIP3    H126516   3.861   4.888  12.923  0.3118 -0.8584  0.3537
 1675TIP3    H226517   3.977   4.813  12.986 -0.2799 -0.6530  1.7027
 1676TIP3   OH226518   5.389   6.367   2.024  0.1169  0.4793  0.7083
 1676TIP3    H126519   5.469   6.315   2.012  0.1761  0.3965  1.4408
 1676TIP3    H226520   5.329   6.335   1.957  0.9400  1.0159 -0.2995
 1677TIP3   OH226521   0.159   0.424   1.594  0.1419  0.0866 -0.0383
 1677TIP3    H126522   0.173   0.334   1.566  0.2410  0.1661 -0.2515
 1677TIP3    H226523   0.224   0.475   1.544  0.3099  0.2325  0.3291
 1678TIP3   OH226524   2.917   2.811  15.161  0.9070 -0.4389  0.9705
 1678TIP3    H126525   2.851   2.860  15.111  0.0405 -2.6391 -0.0940
 1678TIP3    H226526   3.000   2.833  15.119  0.3060 -1.4076 -0.7531
 1679TIP3   OH226527   2.005   4.955  15.801 -0.4117  0.1818 -0.1177
 1679TIP3    H126528   1.938   4.903  15.757  1.4621 -1.4912 -1.0863
 1679TIP3    H226529   2.057   4.993  15.729  1.8906 -1.5366  0.5608
 1680TIP3   OH226530   3.967   2.661   0.968  0.0952  0.3117  0.4266
 1680TIP3    H126531   3.903   2.677   0.898 -0.4300  0.6294  0.9715
 1680TIP3    H226532   4.046   2.633   0.922 -0.4543 -0.1468 -0.2575
 1681TIP3   OH226533   2.359   0.979   4.753 -0.1805 -0.3925 -0.2596
 1681TIP3    H126534   2.348   1.073   4.741  0.0352 -0.1287  1.5410
 1681TIP3    H226535   2.443   0.959   4.712  0.6228  0.5047  0.9463
 1682TIP3   OH226536   3.298   1.421  14.506  0.1134  0.1538  0.1552
 1682TIP3    H126537   3.228   1.477  14.473 -0.4693 -0.6637 -0.0089
 1682TIP3    H226538   3.371   1.437  14.447  0.0967  1.0817  0.3791
 1683TIP3   OH226539   6.767   2.821   3.061 -0.0981 -0.2504 -0.1206
 1683TIP3    H126540   6.817   2.760   3.006 -0.4577  0.2180 -0.9806
 1683TIP3    H226541   6.795   2.907   3.031  2.2575  0.0834  2.7309
 1684TIP3   OH226542   1.606   1.647   1.519 -0.2078 -0.3934  0.3659
 1684TIP3    H126543   1.541   1.694   1.571 -0.0013 -0.0749  0.3383
 1684TIP3    H226544   1.628   1.570   1.572 -0.2856 -0.2747  0.5734
 1685TIP3   OH226545   0.546   0.049  10.821 -0.2808 -0.2086 -0.1893
 1685TIP3    H126546   0.460   0.091  10.825  0.2873  0.7960  3.3581
 1685TIP3    H226547   0.591   0.093  10.748 -1.2903  2.2803  0.6424
 1686TIP3   OH226548   1.413   3.931   3.918  0.6688  0.1373 -0.0588
 1686TIP3    H126549   1.425   3.946   4.012 -0.9114 -1.3117  0.4146
 1686TIP3    H226550   1.434   3.838   3.906 -2.1050 -0.4775 -0.5508
 1687TIP3   OH226551   1.572   4.402  13.760  0.7414 -0.3091 -0.1965
 1687TIP3    H126552   1.542   4.467  13.697  1.0300 -0.8592 -0.9150
 1687TIP3    H226553   1.611   4.333  13.706  0.4835 -1.0532  0.5578
 1688TIP3   OH226554   3.568   0.705  13.540 -0.6239  0.0557 -0.0565
 1688TIP3    H126555   3.641   0.660  13.584 -0.6139 -0.1351 -0.2643
 1688TIP3    H226556   3.610   0.775  13.491 -0.4858 -0.5994 -0.8763
 1689TIP3   OH226557   4.634   5.651   5.451 -0.1085 -0.0826 -0.1222
 1689TIP3    H126558   4.713   5.646   5.506  0.6816 -1.6096 -1.3314
 1689TIP3    H226559   4.570   5.597   5.496  0.6739 -1.6764 -0.8583
 1690TIP3   OH226560   4.911   3.504   4.322  0.5260 -0.1753  0.3027
 1690TIP3    H126561   4.997   3.464   4.331  1.4962  2.0913  1.4372
 1690TIP3    H226562   4.865   3.478   4.402 -0.2823 -2.3351 -0.8266
 1691TIP3   OH226563   3.638   0.455   2.426  0.1537 -0.2117  0.4812
 1691TIP3    H126564   3.572   0.481   2.362  0.5707 -0.4537 -0.0497
 1691TIP3    H226565   3.588   0.433   2.505 -0.3512  0.2025  0.2784
 1692TIP3   OH226566   0.905   2.044   5.199  0.7182 -0.4100 -0.4737
 1692TIP3    H126567   0.818   2.077   5.179  0.7896 -0.1691 -0.3946
 1692TIP3    H226568   0.944   2.023   5.114 -0.0236 -2.0941 -0.4162
 1693TIP3   OH226569   6.126   0.556  11.243  0.8774  0.3488 -0.5703
 1693TIP3    H126570   6.175   0.523  11.318 -0.2841  1.9200  0.9312
 1693TIP3    H226571   6.037   0.568  11.277  0.1988  0.5451 -2.3641
 1694TIP3   OH226572   6.096   2.402   2.227 -0.5100  0.3768  0.4444
 1694TIP3    H126573   6.189   2.399   2.247 -0.8298 -0.5349  1.8110
 1694TIP3    H226574   6.056   2.445   2.303 -1.6642 -2.6537  1.6488
 1695TIP3   OH226575   3.880   6.701   0.274  0.2707 -0.0003  0.3100
 1695TIP3    H126576   3.906   6.749   0.353  0.1274  0.7646 -0.1053
 1695TIP3    H226577   3.786   6.691   0.283  0.4262 -1.0405  0.8547
 1696TIP3   OH226578   2.948   3.479  12.633 -0.0251  0.0754 -0.1768
 1696TIP3    H126579   2.888   3.418  12.589  1.7941  0.7822 -3.7682
 1696TIP3    H226580   2.906   3.565  12.623  1.3431  0.5224 -2.3998
 1697TIP3   OH226581   4.170   0.588   2.778 -0.6453 -0.2729 -0.4757
 1697TIP3    H126582   4.131   0.543   2.703  1.3645 -2.0908 -0.4857
 1697TIP3    H226583   4.100   0.591   2.843 -1.5388 -1.3306 -1.3652
 1698TIP3   OH226584   5.632   4.057  16.398 -0.1404  0.3480  0.2825
 1698TIP3    H126585   5.544   4.095  16.403  0.0529  0.8992 -0.3496
 1698TIP3    H226586   5.660   4.048  16.489 -0.6336  0.6912  0.4705
 1699TIP3   OH226587   0.202   2.148   3.534 -0.0919 -0.2654  0.6408
 1699TIP3    H126588   0.251   2.208   3.591 -0.8499 -1.0805  2.1870
 1699TIP3    H226589   0.270   2.105   3.481  0.9765 -1.6597  3.0259
 1700TIP3   OH226590   3.743   2.479  15.758 -1.1009 -0.5622  0.7230
 1700TIP3    H126591   3.655   2.514  15.749 -0.5514  0.2463 -1.8324
 1700TIP3    H226592   3.773   2.465  15.668  2.0556  0.8887  1.4855
 1701TIP3   OH226593   4.006   5.291  14.891 -0.4449  0.2762 -0.4263
 1701TIP3    H126594   4.097   5.309  14.866 -0.2689  0.0257  0.0245
 1701TIP3    H226595   3.968   5.248  14.815 -0.3409  0.8789 -0.8235
 1702TIP3   OH226596   0.947   4.768  16.221 -0.0837  0.5343  0.3416
 1702TIP3    H126597   0.894   4.740  16.146  0.2327 -0.1270  0.3645
 1702TIP3    H226598   0.895   4.744  16.297 -0.0599  0.5037  0.3508
 1703TIP3   OH226599   5.902   0.789  13.726 -0.0803 -0.7652  0.1215
 1703TIP3    H126600   5.812   0.770  13.752 -0.9391 -0.4886 -2.5907
 1703TIP3    H226601   5.898   0.876  13.686  1.2675 -1.0237 -0.6121
 1704TIP3   OH226602   2.055   5.739   5.979 -0.0306  0.7151  0.4981
 1704TIP3    H126603   1.968   5.754   5.942  0.3234  3.0775  0.5310
 1704TIP3    H226604   2.088   5.827   5.999  1.9124 -0.2139  1.5288
 1705TIP3   OH226605   4.483   2.545   4.112  0.0176 -0.0726  0.1046
 1705TIP3    H126606   4.516   2.477   4.053 -1.2404 -1.2498  0.7357
 1705TIP3    H226607   4.559   2.601   4.128  0.6547 -0.3562 -1.7564
 1706TIP3   OH226608   3.941   1.809   5.285  0.2075 -0.1072 -0.0140
 1706TIP3    H126609   3.978   1.883   5.237  1.5388 -1.0555 -0.4747
 1706TIP3    H226610   3.934   1.841   5.375 -1.4053  1.3506 -0.6249
 1707TIP3   OH226611   5.549   5.507   1.277 -0.3158 -0.1258  0.1244
 1707TIP3    H126612   5.461   5.517   1.241 -0.2881 -0.2313  0.0272
 1707TIP3    H226613   5.554   5.574   1.345 -0.2575  0.2897 -0.2830
 1708TIP3   OH226614   2.813   6.266  14.719  0.0688  0.2483  0.2480
 1708TIP3    H126615   2.891   6.210  14.721  0.0707  0.2074 -0.6991
 1708TIP3    H226616   2.743   6.210  14.753 -0.0690 -0.5637 -1.3306
 1709TIP3   OH226617   3.364   3.736   4.166 -0.4947 -0.1586  0.2430
 1709TIP3    H126618   3.397   3.703   4.250 -2.1773 -0.0444  0.9700
 1709TIP3    H226619   3.346   3.828   4.181  1.2574  0.3885 -0.8979
 1710TIP3   OH226620   1.089   3.568  12.682  0.1390  0.3090 -0.1903
 1710TIP3    H126621   1.175   3.583  12.642 -0.2768 -3.0958 -2.5625
 1710TIP3    H226622   1.026   3.593  12.614 -0.8624  3.2279  1.6872
 1711TIP3   OH226623   1.084   3.360  16.435 -0.4467 -0.2754 -0.0621
 1711TIP3    H126624   1.039   3.440  16.409 -1.5905  0.1320  3.0575
 1711TIP3    H226625   1.024   3.290  16.409 -0.4439 -0.0107 -0.7856
 1712TIP3   OH226626   6.565   1.681   2.610 -0.2956  0.0909 -0.1402
 1712TIP3    H126627   6.626   1.643   2.673 -1.4040 -0.6389  0.5023
 1712TIP3    H226628   6.524   1.606   2.568 -1.1449  0.5780 -0.1880
 1713TIP3   OH226629   3.575   1.769   5.376  0.2887 -0.3373 -0.2969
 1713TIP3    H126630   3.617   1.804   5.297  0.5402  0.5756  0.2373
 1713TIP3    H226631   3.516   1.702   5.343 -0.3574  0.7262 -1.3601
 1714TIP3   OH226632   5.307   6.728   4.224 -0.0090 -0.6861  0.2492
 1714TIP3    H126633   5.251   6.799   4.189  0.4041 -0.7102 -0.4672
 1714TIP3    H226634   5.345   6.765   4.303 -0.5021 -0.4230  0.3701
 1715TIP3   OH226635   2.082   2.704   5.575 -0.1288 -0.1897  0.0460
 1715TIP3    H126636   2.121   2.624   5.610 -1.0282 -0.1303  1.2430
 1715TIP3    H226637   2.143   2.734   5.508  1.0143 -1.0073  0.7075
 1716TIP3   OH226638   3.171   0.208   2.148 -0.5173 -0.5182  0.0940
 1716TIP3    H126639   3.108   0.138   2.132 -0.1400 -0.7679 -0.3146
 1716TIP3    H226640   3.117   0.285   2.165 -0.9478 -0.5511 -1.0177
 1717TIP3   OH226641   4.173   2.169   4.152 -0.0583  0.1427 -0.3648
 1717TIP3    H126642   4.122   2.234   4.102 -1.1203 -1.7721 -1.8494
 1717TIP3    H226643   4.134   2.171   4.240 -0.0100  1.5797 -0.3626
 1718TIP3   OH226644   3.711   5.452  13.586 -0.6110  0.1358 -0.0128
 1718TIP3    H126645   3.634   5.423  13.536 -2.0886  0.8581  1.7917
 1718TIP3    H226646   3.674   5.493  13.664  1.5416  2.8975 -0.3816
 1719TIP3   OH226647   2.316   5.156  13.917  0.5655 -0.2037  0.1045
 1719TIP3    H126648   2.344   5.066  13.936 -0.7432 -0.7413 -0.4956
 1719TIP3    H226649   2.279   5.152  13.829 -0.1453  0.7884  0.3491
 1720TIP3   OH226650   5.635   2.231   1.979  0.4338  0.3068 -0.2101
 1720TIP3    H126651   5.670   2.272   2.058 -0.2236  1.0476 -0.2941
 1720TIP3    H226652   5.705   2.172   1.950  0.7165  0.0908  0.8650
 1721TIP3   OH226653   0.414   0.796   3.608 -0.5119  0.1120  0.1801
 1721TIP3    H126654   0.458   0.711   3.601  0.8125  0.5227  2.6234
 1721TIP3    H226655   0.477   0.858   3.572 -0.2899  0.3449  0.9409
 1722TIP3   OH226656   3.359   0.864  11.606  0.0015  0.9479  0.0638
 1722TIP3    H126657   3.405   0.781  11.623 -3.0526 -1.0380 -0.7947
 1722TIP3    H226658   3.391   0.892  11.520 -1.0150 -0.8789 -0.9423
 1723TIP3   OH226659   5.360   3.907  11.043 -0.0397 -0.1116 -0.2367
 1723TIP3    H126660   5.445   3.896  11.086  0.0730 -0.4575 -0.5487
 1723TIP3    H226661   5.382   3.934  10.954 -0.2284 -1.5996 -0.7380
 1724TIP3   OH226662   5.200   5.286   1.233  0.0123  0.4390 -0.0026
 1724TIP3    H126663   5.214   5.222   1.303  1.5275  0.8135  0.0545
 1724TIP3    H226664   5.217   5.237   1.152 -1.3835  0.1024 -0.1075
 1725TIP3   OH226665   3.471   3.932  14.815 -0.0159  0.1827  0.9881
 1725TIP3    H126666   3.491   3.881  14.737  1.7027  0.9955  0.8797
 1725TIP3    H226667   3.379   3.957  14.804 -0.2886 -1.1823  0.0841
 1726TIP3   OH226668   0.142   4.974   0.875  0.2329 -0.1770 -0.9581
 1726TIP3    H126669   0.163   4.892   0.832  1.1988  0.5813 -1.9654
 1726TIP3    H226670   0.151   4.956   0.968 -1.0359 -1.6045 -1.0843
 1727TIP3   OH226671   4.653   4.818   2.557 -0.0285  0.3655 -0.1594
 1727TIP3    H126672   4.571   4.866   2.559 -0.8709 -0.8980 -2.5000
 1727TIP3    H226673   4.634   4.736   2.604 -0.0378  0.1841 -0.4772
 1728TIP3   OH226674   0.011   1.020   3.144 -0.4684 -0.1285  0.2823
 1728TIP3    H126675   0.014   1.059   3.231 -0.3451  2.5009 -0.8771
 1728TIP3    H226676   0.102   1.006   3.120 -0.3950  1.6050 -0.4908
 1729TIP3   OH226677   3.246   4.197   1.005 -0.1427 -0.3637 -0.1531
 1729TIP3    H126678   3.176   4.146   0.963  0.6923 -1.5034 -0.1899
 1729TIP3    H226679   3.312   4.206   0.937  0.0259  0.1587  0.0804
 1730TIP3   OH226680   3.493   1.712   4.022 -0.3472 -0.3797  0.1309
 1730TIP3    H126681   3.527   1.625   4.042  0.0548 -0.3551 -0.4239
 1730TIP3    H226682   3.545   1.741   3.947  0.5440  0.9556  1.2305
 1731TIP3   OH226683   0.007   1.744   4.619  0.0026  0.4068  0.2926
 1731TIP3    H126684  -0.080   1.722   4.584  0.1583 -0.4079  0.4036
 1731TIP3    H226685   0.042   1.809   4.558 -0.3778  0.1764 -0.1786
 1732TIP3   OH226686   1.099   5.123   5.129 -0.0157  0.6839  0.1748
 1732TIP3    H126687   1.086   5.215   5.151  2.6607  1.3677 -0.8963
 1732TIP3    H226688   1.174   5.123   5.070  0.3928 -2.2495  0.6271
 1733TIP3   OH226689   1.081   1.273  11.315 -0.6396 -0.3373  0.5633
 1733TIP3    H126690   1.054   1.303  11.402 -1.1329 -2.1495  1.0544
 1733TIP3    H226691   1.176   1.269  11.320 -0.7465 -2.2733  1.6737
 1734TIP3   OH226692   4.039   5.715  14.726  0.4977 -0.9358  0.3280
 1734TIP3    H126693   4.028   5.777  14.654 -1.2625 -0.1534  1.2457
 1734TIP3    H226694   4.100   5.650  14.692 -0.5374 -0.7582 -1.9840
 1735TIP3   OH226695   1.531   5.412  12.951 -0.4861  0.0582  0.6870
 1735TIP3    H126696   1.506   5.379  12.864 -0.0287  0.3199  0.4573
 1735TIP3    H226697   1.461   5.473  12.975  0.0041  0.9093 -0.0262
 1736TIP3   OH226698   4.594   0.783   0.189 -0.0842 -0.4265 -0.3815
 1736TIP3    H126699   4.651   0.753   0.118 -0.5526 -2.0516 -0.0879
 1736TIP3    H226700   4.649   0.845   0.238 -0.1516  1.6173 -2.8133
 1737TIP3   OH226701   1.486   6.074  10.213 -0.1620  0.0109  0.0852
 1737TIP3    H126702   1.419   6.061  10.280 -2.0229  2.3425 -1.2666
 1737TIP3    H226703   1.567   6.044  10.255 -1.6212 -0.5607  2.6030
 1738TIP3   OH226704   0.819   1.792  16.506 -0.6020 -0.8999 -0.3699
 1738TIP3    H126705   0.910   1.817  16.521 -0.8810 -0.1313  0.0411
 1738TIP3    H226706   0.824   1.699  16.483  0.1008 -1.3945  1.6874
 1739TIP3   OH226707   3.761   1.303  16.911 -0.5421 -0.3369  0.2630
 1739TIP3    H126708   3.831   1.252  16.869  0.3924 -0.2482  1.6929
 1739TIP3    H226709   3.691   1.239  16.926 -1.2932 -0.1742 -2.2897
 1740TIP3   OH226710   0.673   1.651   2.317  0.2195 -0.0977 -0.3878
 1740TIP3    H126711   0.650   1.565   2.352 -2.8511  0.4747 -0.8618
 1740TIP3    H226712   0.699   1.634   2.226  0.9306 -0.6735 -0.0803
 1741TIP3   OH226713   3.196   6.600   3.065  0.2429  0.6588  0.2307
 1741TIP3    H126714   3.243   6.575   2.985  0.0624 -0.6076  0.5079
 1741TIP3    H226715   3.126   6.536   3.072  0.3840  0.6316  1.5185
 1742TIP3   OH226716   0.956   3.617   2.203  0.5116 -0.2465  0.1640
 1742TIP3    H126717   1.023   3.631   2.269  0.7097  0.2036 -0.1305
 1742TIP3    H226718   0.889   3.565   2.248  1.5908 -1.7314  0.1337
 1743TIP3   OH226719   5.017   1.620  11.191  0.3391 -0.2884  0.7878
 1743TIP3    H126720   5.022   1.597  11.098  2.1243  1.3572  0.4403
 1743TIP3    H226721   4.928   1.597  11.217  0.2597 -2.0547 -0.9775
 1744TIP3   OH226722   5.814   2.340   5.871 -0.5285 -0.7489 -0.4158
 1744TIP3    H126723   5.791   2.432   5.864 -0.0514 -0.5954  0.0001
 1744TIP3    H226724   5.790   2.303   5.786  0.6378  0.0629 -1.1118
 1745TIP3   OH226725   0.731   6.329   4.273 -0.1359 -0.2240  0.1758
 1745TIP3    H126726   0.686   6.247   4.251 -1.8483  0.8189 -0.3144
 1745TIP3    H226727   0.678   6.397   4.232 -0.0927  1.3281  2.5801
 1746TIP3   OH226728   2.235   6.743   1.944 -0.0096  0.2081  0.0922
 1746TIP3    H126729   2.276   6.743   1.858 -0.8956  2.0981 -0.3648
 1746TIP3    H226730   2.301   6.781   2.002  0.2481 -0.2132  0.0773
 1747TIP3   OH226731   6.171   4.031  11.301  0.0868  0.8703  0.1468
 1747TIP3    H126732   6.196   4.003  11.214 -2.5991  1.1130 -0.7583
 1747TIP3    H226733   6.111   4.105  11.286 -2.4347 -0.6946  2.0586
 1748TIP3   OH226734   3.515   0.108  11.495  0.1138 -0.0791 -0.3594
 1748TIP3    H126735   3.467   0.080  11.418  0.5920  0.3010 -0.7957
 1748TIP3    H226736   3.575   0.036  11.514  0.0443 -0.1428 -0.3815
 1749TIP3   OH226737   0.951   0.903   1.709 -0.0440 -0.3831 -0.1941
 1749TIP3    H126738   0.967   0.832   1.771 -1.4818 -1.7329 -1.3376
 1749TIP3    H226739   0.926   0.978   1.763 -2.9018 -1.9880  0.8067
 1750TIP3   OH226740   1.973   1.511   2.610  0.2013 -0.3561 -0.2411
 1750TIP3    H126741   2.005   1.547   2.694  0.8987  2.5161 -1.6639
 1750TIP3    H226742   1.882   1.540   2.606 -0.2994 -1.8409  0.2203
 1751TIP3   OH226743   4.772   0.599   3.247  0.0838  0.5859 -0.5991
 1751TIP3    H126744   4.676   0.591   3.251  0.0889  0.6629 -0.2498
 1751TIP3    H226745   4.790   0.682   3.292  0.1523  1.6474 -2.5451
 1752TIP3   OH226746   3.108   2.851   1.324 -0.1143 -0.3882 -0.4935
 1752TIP3    H126747   3.156   2.786   1.273 -0.0937 -0.3291 -0.5503
 1752TIP3    H226748   3.086   2.807   1.406 -1.1082 -0.8453 -0.9966
 1753TIP3   OH226749   0.963   0.206   2.200  0.2404 -0.5926 -0.3390
 1753TIP3    H126750   0.916   0.214   2.283  0.7951 -0.0077 -0.0695
 1753TIP3    H226751   1.040   0.153   2.221  0.8649  0.3317 -0.2643
 1754TIP3   OH226752   4.914   2.065   1.425  0.3370 -0.1187 -0.5147
 1754TIP3    H126753   4.901   2.131   1.493 -1.7674 -0.0573 -0.9414
 1754TIP3    H226754   4.941   1.987   1.474  0.5046  0.3950  0.2307
 1755TIP3   OH226755   4.889   2.111  15.364 -0.2674  0.0552 -0.5974
 1755TIP3    H126756   4.805   2.157  15.359 -0.5467 -0.5412 -1.6819
 1755TIP3    H226757   4.882   2.042  15.298  1.1899  0.1688 -0.8824
 1756TIP3   OH226758   5.310   3.939  12.873 -0.5244 -0.0721  0.3067
 1756TIP3    H126759   5.272   4.027  12.863  0.5766  0.5655  1.6906
 1756TIP3    H226760   5.239   3.880  12.845 -1.2712  1.2408 -0.6472
 1757TIP3   OH226761   5.909   2.435  14.519 -0.2958  0.1106 -0.6011
 1757TIP3    H126762   6.000   2.428  14.548  0.2131  0.6906 -1.9913
 1757TIP3    H226763   5.905   2.519  14.473 -0.9733 -0.8985 -2.4567
 1758TIP3   OH226764   1.812   3.564  16.260 -0.2294  0.5964 -0.3243
 1758TIP3    H126765   1.810   3.645  16.209 -1.9086 -0.1090 -1.4159
 1758TIP3    H226766   1.844   3.498  16.199  0.4714  0.2895  0.3653
 1759TIP3   OH226767   5.178   4.945  15.550  0.3355 -0.1024 -0.2201
 1759TIP3    H126768   5.238   4.954  15.624  1.1584  1.9995 -1.0976
 1759TIP3    H226769   5.132   5.029  15.547 -2.9677 -1.7897  0.6707
 1760TIP3   OH226770   2.086   4.216   5.054  0.2193 -0.3786  0.5730
 1760TIP3    H126771   2.161   4.163   5.026 -1.7571 -2.3059 -1.2877
 1760TIP3    H226772   2.062   4.266   4.976  0.3523  1.2610  1.5522
 1761TIP3   OH226773   1.525   3.631   6.254 -0.6050 -0.1118  0.4090
 1761TIP3    H126774   1.555   3.663   6.339  0.3681 -0.9826  0.4124
 1761TIP3    H226775   1.501   3.540   6.270  1.0745 -0.7532 -0.5544
 1762TIP3   OH226776   0.784   2.714   2.135  0.2572 -0.5335 -0.0295
 1762TIP3    H126777   0.752   2.802   2.117  0.6122 -0.0991  1.3792
 1762TIP3    H226778   0.781   2.707   2.230 -1.6247 -2.7620 -0.2059
 1763TIP3   OH226779   4.887   3.805   3.593 -0.3253 -0.0842 -0.4281
 1763TIP3    H126780   4.972   3.811   3.637 -0.5870 -1.6371  0.3325
 1763TIP3    H226781   4.848   3.892   3.603 -0.6862 -0.5901  3.0633
 1764TIP3   OH226782   3.056   2.070  17.240  0.0778 -0.0751  0.0580
 1764TIP3    H126783   3.046   2.144  17.180  0.0381 -0.6536 -0.6549
 1764TIP3    H226784   3.089   1.999  17.185  3.7869  0.4630  1.4826
 1765TIP3   OH226785   0.578   1.246  15.227 -0.3991  0.5280  0.3518
 1765TIP3    H126786   0.581   1.151  15.216 -0.6397  0.4761  0.7385
 1765TIP3    H226787   0.640   1.280  15.162 -0.9728  0.1560 -0.4015
 1766TIP3   OH226788   2.507   4.309  15.052 -0.4446  0.3695 -0.6483
 1766TIP3    H126789   2.522   4.404  15.047  0.1993  0.4072  1.5599
 1766TIP3    H226790   2.449   4.297  15.127 -0.5230 -1.0002 -0.9093
 1767TIP3   OH226791   6.110   2.348  12.800  0.8656  0.4140  0.1527
 1767TIP3    H126792   6.142   2.433  12.770  1.7007  0.3652  0.8647
 1767TIP3    H226793   6.183   2.288  12.783  0.3325 -0.1340 -0.2179
 1768TIP3   OH226794   2.333   5.821   2.002 -0.3657  0.1138  0.0385
 1768TIP3    H126795   2.348   5.838   1.909 -0.5077 -1.8020 -0.3425
 1768TIP3    H226796   2.285   5.898   2.032  1.4587  1.7099 -0.9891
 1769TIP3   OH226797   3.259   2.846   0.936 -0.1899 -1.3369 -0.1900
 1769TIP3    H126798   3.175   2.891   0.944  1.4982  1.9292  0.2564
 1769TIP3    H226799   3.268   2.795   1.016 -0.1757  1.1957  1.4753
 1770TIP3   OH226800   1.811   2.858  13.089  0.5517  0.1147 -0.0411
 1770TIP3    H126801   1.742   2.924  13.083  0.0576 -0.2653  1.3806
 1770TIP3    H226802   1.851   2.872  13.174 -1.4886 -3.2636  1.5928
 1771TIP3   OH226803   2.420   3.912  13.611 -0.6296  0.2914  0.1414
 1771TIP3    H126804   2.447   4.001  13.630 -0.3797  0.5832 -1.4781
 1771TIP3    H226805   2.338   3.901  13.659 -1.4950  1.9483 -0.9132
 1772TIP3   OH226806   1.949   6.208  16.052  0.1533  0.4719 -0.1773
 1772TIP3    H126807   1.865   6.163  16.039  0.3169  0.2085 -0.3360
 1772TIP3    H226808   1.926   6.291  16.095 -0.4964  1.8117 -3.0251
 1773TIP3   OH226809   0.304   3.394  13.055 -0.3328  0.3281 -0.6453
 1773TIP3    H126810   0.337   3.337  13.125 -1.5648 -0.2927 -0.5607
 1773TIP3    H226811   0.248   3.338  13.002 -0.2168  1.0532 -1.5536
 1774TIP3   OH226812   0.742   2.762   3.965  0.3894 -0.3987 -0.0613
 1774TIP3    H126813   0.698   2.799   3.888  0.9473 -0.2615 -0.3104
 1774TIP3    H226814   0.718   2.669   3.962 -1.8151  0.0853  1.1133
 1775TIP3   OH226815   5.929   5.635   4.421 -0.1444  0.6058  0.3809
 1775TIP3    H126816   5.976   5.712   4.450 -0.7315  0.2363  2.3517
 1775TIP3    H226817   5.849   5.670   4.381  0.6671  1.1078 -0.8316
 1776TIP3   OH226818   0.826   6.721  15.950 -0.1738 -0.0788  0.2119
 1776TIP3    H126819   0.786   6.796  15.994 -1.6847 -1.2047  0.7921
 1776TIP3    H226820   0.822   6.743  15.857 -1.3580  0.2121  0.3186
 1777TIP3   OH226821   6.084   2.838   0.196 -0.1012 -0.2216  0.7138
 1777TIP3    H126822   6.113   2.865   0.109 -0.7913  0.3128  0.6486
 1777TIP3    H226823   6.046   2.750   0.183  0.1367 -0.2976  0.5419
 1778TIP3   OH226824   1.763   4.569   1.349  0.6667 -0.2377 -0.3626
 1778TIP3    H126825   1.835   4.567   1.286  2.4264  0.5130  1.5721
 1778TIP3    H226826   1.793   4.515   1.421 -0.1191  1.2088  1.0763
 1779TIP3   OH226827   3.720   0.372  14.318 -0.2586  0.3993 -0.0445
 1779TIP3    H126828   3.689   0.321  14.242  1.6222 -2.5152  1.0329
 1779TIP3    H226829   3.661   0.346  14.389 -0.7553  1.5840 -0.0140
 1780TIP3   OH226830   5.434   2.160   3.589  0.4767 -0.3629  0.7623
 1780TIP3    H126831   5.464   2.097   3.523 -0.3392 -1.1543  1.1295
 1780TIP3    H226832   5.459   2.121   3.673 -0.4183 -0.4290  1.0100
 1781TIP3   OH226833   6.718   5.230  11.820 -0.9331 -0.1692  0.1810
 1781TIP3    H126834   6.777   5.185  11.880 -1.3178 -1.1920 -0.1949
 1781TIP3    H226835   6.749   5.321  11.820  0.0211 -0.4823  0.7465
 1782TIP3   OH226836   2.421   4.301   4.781 -0.4565 -0.0572  0.0457
 1782TIP3    H126837   2.425   4.395   4.796  2.0062 -0.4675  2.2996
 1782TIP3    H226838   2.505   4.280   4.740 -0.7060 -1.3498  0.1816
 1783TIP3   OH226839   5.568   5.763   1.888 -0.3852 -0.7152 -0.1881
 1783TIP3    H126840   5.656   5.799   1.896 -1.3964  1.5436  1.0844
 1783TIP3    H226841   5.567   5.689   1.949  0.3614 -0.2165  0.4343
 1784TIP3   OH226842   5.911   2.697  11.779  0.5037 -0.0050  0.4160
 1784TIP3    H126843   5.946   2.639  11.712 -1.1746  3.3359 -3.5351
 1784TIP3    H226844   5.988   2.741  11.815  1.5335 -2.7050  1.6668
 1785TIP3   OH226845   3.996   0.732  12.109 -0.0105  0.2317 -0.0739
 1785TIP3    H126846   3.977   0.761  12.198 -0.7023  0.5590 -0.3259
 1785TIP3    H226847   4.071   0.673  12.118  0.7229  1.2293  0.5916
 1786TIP3   OH226848   4.612   3.114   5.369 -0.1512 -0.6100  0.2864
 1786TIP3    H126849   4.681   3.089   5.307 -0.9577 -1.8813 -0.1168
 1786TIP3    H226850   4.657   3.124   5.453  0.4073 -2.1170  0.1782
 1787TIP3   OH226851   0.253   6.086   4.039  0.2065 -0.2093  0.2613
 1787TIP3    H126852   0.303   6.043   3.970  1.4682  1.0106  0.3960
 1787TIP3    H226853   0.292   6.055   4.120  3.0409  3.3320  0.3429
 1788TIP3   OH226854   1.242   6.702  12.673  0.2397  0.2076 -0.4453
 1788TIP3    H126855   1.280   6.772  12.620 -0.0108  0.9304  0.3322
 1788TIP3    H226856   1.148   6.710  12.662  0.1492  0.8276  0.6917
 1789TIP3   OH226857   4.643   0.318   2.325  0.3067  0.0245  0.1332
 1789TIP3    H126858   4.679   0.230   2.331 -0.5535 -0.4356 -1.1967
 1789TIP3    H226859   4.566   0.316   2.381 -1.0293 -0.7867 -1.6562
 1790TIP3   OH226860   5.904   0.307   0.576  0.2263 -0.1999  0.3633
 1790TIP3    H126861   5.978   0.263   0.618 -0.3455 -0.3693  1.2005
 1790TIP3    H226862   5.909   0.397   0.608 -0.1084 -0.2855  0.6505
 1791TIP3   OH226863   2.120   1.430   4.432  0.1602  0.2710  0.1211
 1791TIP3    H126864   2.153   1.517   4.455  2.2646 -0.3804 -0.3775
 1791TIP3    H226865   2.097   1.390   4.516  0.6666  0.7190  0.4734
 1792TIP3   OH226866   6.215   4.867  12.838  0.3608  0.0819  0.6398
 1792TIP3    H126867   6.252   4.895  12.922  0.0424  1.5866  0.2808
 1792TIP3    H226868   6.140   4.812  12.862 -0.2915  1.2549  1.3571
 1793TIP3   OH226869   5.722   5.660   2.324  0.0372  0.2366  0.2878
 1793TIP3    H126870   5.762   5.746   2.315  0.8987 -0.1334  0.5415
 1793TIP3    H226871   5.729   5.640   2.417 -0.3384 -0.0196  0.2600
 1794TIP3   OH226872   6.711   3.191  12.168 -0.3167 -0.1736  0.0255
 1794TIP3    H126873   6.719   3.133  12.244 -0.2444 -1.2307 -0.7820
 1794TIP3    H226874   6.645   3.256  12.194  1.2023  0.7353  1.7714
 1795TIP3   OH226875   6.335   6.149  14.034 -0.1659  0.1317 -0.1743
 1795TIP3    H126876   6.404   6.108  13.982 -0.0352 -0.1310  0.2084
 1795TIP3    H226877   6.259   6.149  13.976 -0.1897 -0.7205 -0.1578
 1796TIP3   OH226878   0.728   6.414   5.805  0.7003  0.2628 -0.0052
 1796TIP3    H126879   0.765   6.445   5.888  0.8352 -1.1328  0.4610
 1796TIP3    H226880   0.687   6.492   5.767  2.1965  1.3293  0.5091
 1797TIP3   OH226881   5.717   3.552  12.949  0.1888  0.6149 -0.1520
 1797TIP3    H126882   5.625   3.571  12.931 -0.2376 -0.4780  0.8027
 1797TIP3    H226883   5.759   3.556  12.863 -0.8605  0.5467 -0.6797
 1798TIP3   OH226884   5.775   5.079   0.163 -0.4926 -0.3801  0.1748
 1798TIP3    H126885   5.707   5.138   0.197 -0.8846  0.0155 -1.2569
 1798TIP3    H226886   5.826   5.055   0.240 -1.4591  0.3644  1.0715
 1799TIP3   OH226887   2.003   2.338   2.940 -0.1558 -0.4344  0.3372
 1799TIP3    H126888   2.028   2.430   2.940  0.0202 -0.4820  0.3877
 1799TIP3    H226889   1.934   2.332   2.874  0.7771 -0.5199 -0.6428
 1800TIP3   OH226890   4.544   4.292   2.172  0.3137 -0.0792 -0.2293
 1800TIP3    H126891   4.637   4.277   2.157  0.3145 -1.7510  1.3006
 1800TIP3    H226892   4.540   4.354   2.245  0.2428 -0.9797  0.5480
 1801TIP3   OH226893   2.893   3.241   3.719 -0.0411 -0.0769 -0.3335
 1801TIP3    H126894   2.929   3.296   3.788 -0.0295 -0.6479  0.1178
 1801TIP3    H226895   2.798   3.248   3.730 -0.0424 -0.0677 -0.3486
 1802TIP3   OH226896   1.789   2.362   4.072 -0.1921  0.4885 -0.2416
 1802TIP3    H126897   1.785   2.351   4.167 -0.2228 -0.4554 -0.3477
 1802TIP3    H226898   1.823   2.279   4.039 -1.2396  0.4041 -1.1422
 1803TIP3   OH226899   0.039   3.754  12.547 -0.2382 -0.0432 -0.1297
 1803TIP3    H126900   0.114   3.736  12.603 -0.1917 -0.3478 -0.2895
 1803TIP3    H226901   0.049   3.846  12.522  1.5610 -0.8027 -2.3391
 1804TIP3   OH226902   2.423   4.651   0.412 -0.2372 -0.5655 -0.2185
 1804TIP3    H126903   2.463   4.707   0.345  0.0622 -0.7635 -0.2066
 1804TIP3    H226904   2.450   4.562   0.389 -0.4206 -0.6705 -0.0349
 1805TIP3   OH226905   0.272   5.960  11.679  0.1538 -0.4615 -0.0468
 1805TIP3    H126906   0.225   5.905  11.742  0.2509 -2.6388 -1.8141
 1805TIP3    H226907   0.310   5.898  11.616  1.8840  1.5144 -1.0275
 1806TIP3   OH226908   0.699   5.824  12.112 -0.5737 -0.2616 -0.0064
 1806TIP3    H126909   0.692   5.859  12.201 -1.2104 -2.3788  0.7932
 1806TIP3    H226910   0.767   5.757  12.117 -0.4789 -0.2598 -1.1678
 1807TIP3   OH226911   6.046   2.821  14.187  0.1055 -0.0401 -0.1851
 1807TIP3    H126912   6.001   2.901  14.216  0.7028 -0.4261  1.8358
 1807TIP3    H226913   6.122   2.853  14.138  0.3193  0.6372  0.5780
 1808TIP3   OH226914   1.139   3.312   0.773 -0.2524 -0.1609 -0.2049
 1808TIP3    H126915   1.075   3.382   0.760  0.4660  0.4853 -0.2924
 1808TIP3    H226916   1.218   3.342   0.728  0.1939 -0.8400  0.1087
 1809TIP3   OH226917   1.390   4.199  16.945  0.4021  0.6418 -0.4549
 1809TIP3    H126918   1.322   4.210  16.879 -0.4350 -0.8276  0.1395
 1809TIP3    H226919   1.344   4.165  17.021  1.6705  0.4602  0.2453
 1810TIP3   OH226920   2.138   2.390  16.817 -0.5297 -0.3284  0.1933
 1810TIP3    H126921   2.226   2.383  16.780 -0.3865  1.3466  0.1779
 1810TIP3    H226922   2.126   2.309  16.865  1.1245 -0.4766  0.3995
 1811TIP3   OH226923   5.722   5.223   5.338 -0.1091 -0.1123  0.5541
 1811TIP3    H126924   5.727   5.153   5.274 -1.2082  0.4718 -0.1943
 1811TIP3    H226925   5.700   5.301   5.287 -2.1178  0.1555  1.7387
 1812TIP3   OH226926   1.553   1.094  13.957 -0.1581  0.4211  0.1599
 1812TIP3    H126927   1.629   1.069  14.010 -0.2524 -0.6611 -0.2093
 1812TIP3    H226928   1.579   1.177  13.917  1.8096 -1.1354 -1.9078
 1813TIP3   OH226929   1.993   0.815   4.434  0.5797  0.3743  0.0105
 1813TIP3    H126930   1.977   0.896   4.483  0.0317  1.2896 -1.6314
 1813TIP3    H226931   1.984   0.841   4.342  0.0862 -1.6186 -0.5253
 1814TIP3   OH226932   2.647   3.271  13.042 -0.3632 -0.3689  0.1434
 1814TIP3    H126933   2.679   3.250  13.130  0.9657 -0.6970 -0.4124
 1814TIP3    H226934   2.628   3.187  13.002  0.2948 -0.2923 -0.3441
 1815TIP3   OH226935   5.231   5.644   0.205 -0.3928 -0.3460  0.0914
 1815TIP3    H126936   5.317   5.640   0.248 -1.1715 -0.5181  1.6610
 1815TIP3    H226937   5.234   5.576   0.139  0.0550 -1.5575  1.3325
 1816TIP3   OH226938   3.806   1.807   0.528 -0.0817 -0.4734  0.5990
 1816TIP3    H126939   3.773   1.785   0.442 -0.6935 -0.7131  0.8973
 1816TIP3    H226940   3.740   1.776   0.589 -0.0203  0.3897  1.1220
 1817TIP3   OH226941   3.830   2.452  15.494  0.2048 -0.0292 -0.8216
 1817TIP3    H126942   3.786   2.462  15.410 -1.6394  1.4039  0.2995
 1817TIP3    H226943   3.912   2.500  15.483 -0.4841  1.0200 -1.4572
 1818TIP3   OH226944   3.113   5.861  15.805 -0.7563  0.0253  0.4590
 1818TIP3    H126945   3.045   5.843  15.740 -0.4706  1.0912 -0.1367
 1818TIP3    H226946   3.141   5.950  15.787  0.3180 -0.1642  1.1506
 1819TIP3   OH226947   2.797   3.860  13.140  0.1803  0.4182 -0.3643
 1819TIP3    H126948   2.813   3.925  13.208  1.3417  0.0461 -0.2618
 1819TIP3    H226949   2.877   3.861  13.087  0.5343 -1.4933  0.1146
 1820TIP3   OH226950   6.270   3.827   3.220  0.6519  0.3939  0.7430
 1820TIP3    H126951   6.334   3.898   3.232  1.3475 -0.1004  0.0044
 1820TIP3    H226952   6.311   3.768   3.158 -1.1434  0.8172 -0.9104
 1821TIP3   OH226953   3.671   5.817   5.524 -0.3918 -0.2271 -0.5202
 1821TIP3    H126954   3.734   5.886   5.545  0.8517 -1.5537  0.2400
 1821TIP3    H226955   3.681   5.803   5.430  1.3208 -1.2213 -0.2230
 1822TIP3   OH226956   0.709   0.264  13.313 -0.5727  0.1563  0.0019
 1822TIP3    H126957   0.769   0.289  13.243  0.4542  0.8808  1.1073
 1822TIP3    H226958   0.624   0.253  13.270  0.3148 -0.6866 -1.5467
 1823TIP3   OH226959   4.066   0.442   3.620 -0.0166 -0.2080  0.2273
 1823TIP3    H126960   3.986   0.391   3.611  0.5743 -1.2601  0.8607
 1823TIP3    H226961   4.036   0.533   3.617 -1.3262 -0.5889  1.2649
 1824TIP3   OH226962   1.826   0.025   1.003  0.0710  0.1922 -0.4911
 1824TIP3    H126963   1.786  -0.052   1.044  0.8165  0.4169  0.6996
 1824TIP3    H226964   1.770   0.044   0.928 -0.3716 -1.2475 -0.5523
 1825TIP3   OH226965   0.752   2.322   2.982 -0.6471 -0.2154  0.6030
 1825TIP3    H126966   0.682   2.271   3.022 -2.1045  0.1719 -1.3495
 1825TIP3    H226967   0.712   2.408   2.966  1.0024  0.7472  1.5896
 1826TIP3   OH226968   6.212   2.794   1.537  0.5077 -0.0546 -0.6629
 1826TIP3    H126969   6.220   2.701   1.517  0.8154  0.0767 -1.1751
 1826TIP3    H226970   6.151   2.827   1.471 -0.2742 -0.0594  0.0548
 1827TIP3   OH226971   4.308   3.466  15.680  0.3648  0.4044 -0.1844
 1827TIP3    H126972   4.264   3.546  15.706 -0.3101  0.4031 -1.3003
 1827TIP3    H226973   4.399   3.478  15.708  0.0579  1.1569  0.4985
 1828TIP3   OH226974   0.471   3.366   3.072 -0.0313 -0.3061 -0.2141
 1828TIP3    H126975   0.454   3.445   3.021  1.7807  0.3090  0.0827
 1828TIP3    H226976   0.422   3.379   3.153 -2.1158 -0.8429 -1.3421
 1829TIP3   OH226977   2.476   3.021   0.094 -0.0533  0.0984  0.4347
 1829TIP3    H126978   2.484   2.975   0.178 -0.2569  0.0846  0.4480
 1829TIP3    H226979   2.427   2.961   0.038 -1.3956  0.7758  0.8345
 1830TIP3   OH226980   1.994   3.812  16.383  0.1507 -0.3927  0.5147
 1830TIP3    H126981   1.910   3.808  16.428  0.2813  0.8960  0.8857
 1830TIP3    H226982   1.973   3.797  16.291 -0.7764  2.1851  0.2874
 1831TIP3   OH226983   0.943   5.639  12.168 -0.2740 -0.0601  0.5971
 1831TIP3    H126984   0.913   5.628  12.258  2.3051 -0.2284  1.4577
 1831TIP3    H226985   0.995   5.562  12.149  0.0082  0.4272 -0.7263
 1832TIP3   OH226986   6.255   5.157  17.028 -0.5860  0.0283  0.3232
 1832TIP3    H126987   6.326   5.180  16.968 -0.6657 -0.1663  0.1562
 1832TIP3    H226988   6.184   5.126  16.972 -1.1877  1.2021  0.4019
 1833TIP3   OH226989   5.016   2.799  12.721  0.3570  0.4039  0.1305
 1833TIP3    H126990   5.054   2.721  12.680 -1.0635 -0.7101  0.8910
 1833TIP3    H226991   4.933   2.812  12.675  0.1641  0.9217  0.6177
 1834TIP3   OH226992   0.317   5.941   1.008  0.2316  0.2707 -0.2466
 1834TIP3    H126993   0.238   5.889   0.993  0.3098  0.4531 -1.2793
 1834TIP3    H226994   0.354   5.905   1.089  0.0435 -0.9817 -0.7140
 1835TIP3   OH226995   4.339   3.385   1.084 -0.6799 -0.3206 -0.4617
 1835TIP3    H126996   4.347   3.411   0.993  1.7479 -1.0130 -0.4892
 1835TIP3    H226997   4.378   3.457   1.133 -1.8497 -0.0111  0.0213
 1836TIP3   OH226998   0.908   2.681  15.859 -0.1008  0.0942 -0.1293
 1836TIP3    H126999   0.854   2.607  15.831 -0.8029  0.0538  1.2703
 1836TIP3    H227000   0.948   2.713  15.778  0.4012 -1.9448 -0.7374
 1837TIP3   OH227001   1.493   5.957  16.155  0.2767  0.2216  0.2107
 1837TIP3    H127002   1.575   5.907  16.155  0.6317  0.7976 -0.6371
 1837TIP3    H227003   1.443   5.920  16.228  1.9414  0.9094  1.7518
 1838TIP3   OH227004   3.682   5.923  16.889 -0.3896  0.5238  0.0144
 1838TIP3    H127005   3.621   5.907  16.961 -0.4092 -2.1289 -0.5339
 1838TIP3    H227006   3.767   5.936  16.931 -0.6449  0.3397  0.5847
 1839TIP3   OH227007   6.108   0.642  13.469  0.3109  0.5744 -0.1625
 1839TIP3    H127008   6.139   0.577  13.532 -0.0346  0.5286 -0.0437
 1839TIP3    H227009   6.013   0.642  13.478  0.3050  1.0349 -0.2249
 1840TIP3   OH227010   2.596   1.088  16.267  0.2028 -0.1324  0.4072
 1840TIP3    H127011   2.669   1.091  16.206 -0.5036  0.3906 -0.4370
 1840TIP3    H227012   2.583   1.180  16.292 -0.2966 -0.1942  0.3797
 1841TIP3   OH227013   2.766   3.755  15.963  0.2103 -0.3220  0.5339
 1841TIP3    H127014   2.783   3.688  15.897  1.2800  0.2086  0.2676
 1841TIP3    H227015   2.798   3.718  16.045  3.0784  0.8162 -0.0221
 1842TIP3   OH227016   3.682   4.032  13.017 -0.3506 -0.0226  0.2391
 1842TIP3    H127017   3.717   4.096  13.080 -0.5257 -2.4423  2.9013
 1842TIP3    H227018   3.606   4.076  12.978 -0.2494  1.5637  1.7603
 1843TIP3   OH227019   3.217   5.224  12.915 -0.3403  0.1850 -0.6524
 1843TIP3    H127020   3.250   5.221  12.826  0.4928 -1.6063 -0.2972
 1843TIP3    H227021   3.270   5.292  12.957 -0.9431  1.2460 -1.5961
 1844TIP3   OH227022   5.578   1.585  13.264  0.6053 -0.2861  0.5816
 1844TIP3    H127023   5.637   1.587  13.339  0.1635 -1.6787  0.9762
 1844TIP3    H227024   5.522   1.663  13.276  1.3240  0.1682  1.0405
 1845TIP3   OH227025   4.505   3.803  14.917  0.2601 -0.7653 -0.4303
 1845TIP3    H127026   4.430   3.850  14.953  1.5019  0.4141  0.6643
 1845TIP3    H227027   4.532   3.854  14.841 -0.6369 -1.7211 -1.3969
 1846TIP3   OH227028   0.580   6.121   3.487 -0.2023 -0.4339  0.0728
 1846TIP3    H127029   0.668   6.089   3.506 -0.0961  0.3529  0.8862
 1846TIP3    H227030   0.524   6.078   3.552 -0.3523 -0.5511 -0.1328
 1847TIP3   OH227031   6.808   6.691   0.790 -0.0902 -0.0011  0.2881
 1847TIP3    H127032   6.895   6.715   0.822  0.5667 -1.5610 -0.2801
 1847TIP3    H227033   6.768   6.645   0.864 -0.2720  0.3260  0.3956
 1848TIP3   OH227034   5.026   2.598  15.400 -0.7947  0.0003 -0.0032
 1848TIP3    H127035   5.044   2.548  15.321  0.3077 -0.2796  0.4138
 1848TIP3    H227036   4.970   2.671  15.371  0.6656  0.6359 -1.2702
 1849TIP3   OH227037   6.081   1.812  11.688  0.0034 -0.1960  0.6529
 1849TIP3    H127038   6.176   1.826  11.684  0.1136 -1.2956 -1.5490
 1849TIP3    H227039   6.043   1.899  11.674  0.6810  0.2001  1.2394
 1850TIP3   OH227040   2.060   6.552   1.822  0.2834  0.4796 -0.0896
 1850TIP3    H127041   2.100   6.612   1.884  0.1540 -1.0398  1.4988
 1850TIP3    H227042   2.100   6.467   1.841 -3.1862 -0.9548  1.1376
 1851TIP3   OH227043   2.689   0.017  10.953  0.0331  0.1812  0.2187
 1851TIP3    H127044   2.640   0.098  10.940 -1.2168 -0.6947 -0.7998
 1851TIP3    H227045   2.754   0.017  10.883 -2.3449 -1.3659 -2.1191
 1852TIP3   OH227046   4.052   1.917  14.805  0.0765  0.1350  0.1352
 1852TIP3    H127047   4.127   1.945  14.753 -1.4755 -0.1470 -2.3415
 1852TIP3    H227048   4.075   1.828  14.834  0.9152  0.2662 -0.1095
 1853TIP3   OH227049   6.471   2.473  12.978 -0.5285  0.5020 -0.6276
 1853TIP3    H127050   6.461   2.378  12.969  3.6440 -0.1163  0.3036
 1853TIP3    H227051   6.531   2.498  12.908 -0.5686  2.2680 -0.0610
 1854TIP3   OH227052   3.029   0.866  15.506 -0.8338 -0.7164 -0.2942
 1854TIP3    H127053   3.123   0.867  15.487 -0.9368  0.8675 -0.8110
 1854TIP3    H227054   2.992   0.806  15.441 -0.2258 -1.0900 -0.3007
 1855TIP3   OH227055   0.247   1.596   0.217 -0.7000  0.4978  0.3373
 1855TIP3    H127056   0.286   1.598   0.305  0.6000 -1.0549 -0.1838
 1855TIP3    H227057   0.172   1.655   0.223  0.2785  1.6053  2.0658
 1856TIP3   OH227058   3.512   3.970  10.966  0.0913 -0.3204  0.1704
 1856TIP3    H127059   3.496   4.049  11.018  1.0141  0.1178 -0.1963
 1856TIP3    H227060   3.535   4.003  10.879 -1.8996 -1.0526 -0.6698
 1857TIP3   OH227061   4.081   4.535   4.625  0.3341 -0.3199  0.6393
 1857TIP3    H127062   4.114   4.537   4.535 -2.0012 -0.0219 -0.2439
 1857TIP3    H227063   4.073   4.627   4.650 -0.3880 -0.3775  0.6276
 1858TIP3   OH227064   1.116   5.831  14.887 -0.2688  0.1602 -0.6787
 1858TIP3    H127065   1.169   5.834  14.808  1.3914  1.0420  0.4411
 1858TIP3    H227066   1.078   5.918  14.895 -0.9152 -0.1108 -0.8453
 1859TIP3   OH227067   2.672   6.750  14.175  0.1380 -0.0232  0.5997
 1859TIP3    H127068   2.691   6.843  14.189 -1.7361  0.1920  1.9829
 1859TIP3    H227069   2.577   6.746  14.163  0.2192 -1.7405  0.3324
 1860TIP3   OH227070   6.070   3.582  12.721  0.2205  0.1791 -0.2113
 1860TIP3    H127071   6.153   3.592  12.675  0.1019  0.4483 -0.3704
 1860TIP3    H227072   6.056   3.666  12.765  0.1761  0.0345  0.0551
 1861TIP3   OH227073   6.333   2.534   3.002  0.5117 -0.5615 -0.0010
 1861TIP3    H127074   6.276   2.488   2.940 -0.6681 -0.0290  0.6795
 1861TIP3    H227075   6.419   2.494   2.989  0.1008 -1.0268 -1.3970
 1862TIP3   OH227076   5.807   3.080   2.376 -0.3971 -0.3737 -0.2504
 1862TIP3    H127077   5.819   3.160   2.324 -0.4841 -0.4703 -0.4204
 1862TIP3    H227078   5.838   3.010   2.319 -0.1343 -0.4396 -0.0221
 1863TIP3   OH227079   5.239   5.529  13.475  0.2474  0.3711 -0.1107
 1863TIP3    H127080   5.165   5.584  13.501 -1.0458 -1.4975  0.3050
 1863TIP3    H227081   5.271   5.492  13.557 -0.7137 -1.6807 -0.6095
 1864TIP3   OH227082   0.158   1.912  11.514  0.0270  0.1701  0.1198
 1864TIP3    H127083   0.209   1.933  11.592  0.8658  0.1469 -0.4220
 1864TIP3    H227084   0.069   1.899  11.547  0.7647 -1.8988  1.3832
 1865TIP3   OH227085   1.356   2.520  12.910  0.8444 -0.2489  0.0872
 1865TIP3    H127086   1.451   2.514  12.918  1.0591  0.0908 -1.9186
 1865TIP3    H227087   1.336   2.613  12.922  0.9155 -0.1168 -0.7707
 1866TIP3   OH227088   2.172   1.405  12.352 -0.4267  0.3042 -0.4124
 1866TIP3    H127089   2.179   1.456  12.271 -1.9649  0.9194 -0.1951
 1866TIP3    H227090   2.098   1.346  12.336  1.1969 -1.7091 -0.5648
 1867TIP3   OH227091   6.015   3.571  14.611 -0.0826  0.0155 -0.3983
 1867TIP3    H127092   6.063   3.649  14.636 -2.4873  0.6461  2.5752
 1867TIP3    H227093   6.009   3.575  14.515  3.0232  1.4703 -0.5802
 1868TIP3   OH227094   3.603   4.893  11.464 -0.5079  0.3524  0.2534
 1868TIP3    H127095   3.657   4.830  11.417 -1.4421 -0.1302 -0.1975
 1868TIP3    H227096   3.593   4.967  11.403 -1.8769 -0.3547 -0.4059
 1869TIP3   OH227097   1.033   5.828  12.800  0.0654 -0.5484 -0.0032
 1869TIP3    H127098   1.046   5.913  12.842  0.1867 -0.9054  0.7032
 1869TIP3    H227099   1.029   5.766  12.874  0.9230 -1.2715 -0.5589
 1870TIP3   OH227100   3.045   3.072   1.716 -0.0211 -0.0954 -0.3865
 1870TIP3    H127101   3.126   3.022   1.729  0.2073  0.2189 -0.5944
 1870TIP3    H227102   3.073   3.150   1.668 -0.0825  1.1158  1.4717
 1871TIP3   OH227103   3.394   1.043  15.239 -0.3586  0.1642 -1.0014
 1871TIP3    H127104   3.377   1.137  15.233  1.5011  0.5301 -0.9167
 1871TIP3    H227105   3.345   1.015  15.317 -0.9725  1.0398 -1.0639
 1872TIP3   OH227106   1.046   6.289  17.060  0.0686 -0.2544  0.0134
 1872TIP3    H127107   0.960   6.332  17.066  0.1696 -0.0641  0.0942
 1872TIP3    H227108   1.101   6.352  17.014  0.6793  0.4114  1.6418
 1873TIP3   OH227109   6.620   1.146   3.399  0.0405 -0.0188 -0.4040
 1873TIP3    H127110   6.631   1.168   3.492  1.5097 -0.1030 -0.5387
 1873TIP3    H227111   6.574   1.221   3.361 -1.6273 -0.5087  0.6282
 1874TIP3   OH227112   5.165   0.521   2.256 -0.0230 -0.2444 -0.3090
 1874TIP3    H127113   5.116   0.520   2.174  1.3221  0.3946 -1.1442
 1874TIP3    H227114   5.119   0.586   2.311 -1.0225 -0.7990 -0.4768
 1875TIP3   OH227115   5.919   2.480   3.145  0.3898  0.1608 -0.3735
 1875TIP3    H127116   5.824   2.490   3.151  0.3817  0.9679 -1.6267
 1875TIP3    H227117   5.954   2.559   3.186  0.6140 -1.9239  3.6111
 1876TIP3   OH227118   2.814   0.203   2.240 -0.3930 -0.4253  0.8461
 1876TIP3    H127119   2.835   0.171   2.153 -0.1461  1.0503  0.3510
 1876TIP3    H227120   2.896   0.239   2.273 -0.2761 -1.7248  2.0336
 1877TIP3   OH227121   5.031   3.134  13.521 -0.1521  0.5102 -0.6626
 1877TIP3    H127122   4.983   3.177  13.450 -0.1130  0.1491 -0.9141
 1877TIP3    H227123   5.094   3.078  13.476  2.0347  2.6338 -0.3393
 1878TIP3   OH227124   2.638   4.224   4.622 -0.4539 -0.4355 -0.3800
 1878TIP3    H127125   2.596   4.187   4.544 -2.5072 -0.6823  0.7775
 1878TIP3    H227126   2.724   4.182   4.626  0.2475  0.6303 -3.2477
 1879TIP3   OH227127   6.516   2.349  10.256  0.2420  0.5885  0.2631
 1879TIP3    H127128   6.472   2.270  10.226  1.2778  0.3263 -0.6130
 1879TIP3    H227129   6.587   2.317  10.312 -1.7269  1.0720  3.1677
 1880TIP3   OH227130   0.790   5.231  15.267  0.8274  0.6991 -0.2673
 1880TIP3    H127131   0.698   5.204  15.257  1.8208 -3.1479  0.1960
 1880TIP3    H227132   0.785   5.318  15.308 -2.6089 -0.6600  2.4726
 1881TIP3   OH227133   6.589   6.619   2.903 -0.6828 -0.0822 -0.9267
 1881TIP3    H127134   6.580   6.574   2.987 -1.9417  0.6941 -0.6308
 1881TIP3    H227135   6.537   6.567   2.842  1.7868 -1.7233 -1.6699
 1882TIP3   OH227136   2.436   2.149  11.425  0.1167  0.1533  0.1680
 1882TIP3    H127137   2.422   2.205  11.349 -0.0701  2.1316  1.6082
 1882TIP3    H227138   2.353   2.104  11.437 -0.6808  1.6858  0.6169
 1883TIP3   OH227139   1.932   6.491   1.574 -0.1066  0.1524 -0.1152
 1883TIP3    H127140   1.848   6.480   1.618  0.1033 -0.9221  0.0276
 1883TIP3    H227141   1.995   6.505   1.645  0.0290 -0.2820 -0.1487
 1884TIP3   OH227142   4.447   6.090   6.084 -0.7531  0.9125 -0.2002
 1884TIP3    H127143   4.488   6.152   6.144  0.1997 -0.8451  1.0061
 1884TIP3    H227144   4.457   6.130   5.998  0.2382  2.2281  0.5096
 1885TIP3   OH227145   3.377   0.713   1.564 -0.3730 -0.0055  0.0006
 1885TIP3    H127146   3.430   0.750   1.494  1.1377 -2.2897 -0.1274
 1885TIP3    H227147   3.307   0.665   1.519  0.9451 -1.9807 -0.0201
 1886TIP3   OH227148   0.472   6.656   0.455  0.4003  0.2963 -0.0083
 1886TIP3    H127149   0.529   6.704   0.395  0.5812 -1.0506 -0.9405
 1886TIP3    H227150   0.523   6.649   0.536  0.2469  1.9138  0.2508
 1887TIP3   OH227151   6.658   6.370   0.774  0.0135  0.1794  0.6798
 1887TIP3    H127152   6.630   6.390   0.863 -1.4582  0.5888  0.1428
 1887TIP3    H227153   6.612   6.434   0.719 -0.0647 -0.8620 -0.4912
 1888TIP3   OH227154   4.141   4.514  14.023  0.2479 -0.3425  0.1542
 1888TIP3    H127155   4.108   4.483  14.107 -0.8342  0.4674  0.0481
 1888TIP3    H227156   4.168   4.434  13.977  0.4429 -0.8235  1.0979
 1889TIP3   OH227157   0.864   0.388   3.594  0.3474  0.4224 -0.0824
 1889TIP3    H127158   0.774   0.376   3.626  1.2783 -0.5725  2.2794
 1889TIP3    H227159   0.868   0.336   3.514 -0.9279 -0.2945  0.2975
 1890TIP3   OH227160   4.509   0.444   1.399  0.5954  0.0923 -0.1445
 1890TIP3    H127161   4.422   0.466   1.432  1.1114  0.4334  1.0327
 1890TIP3    H227162   4.535   0.367   1.450  0.9521 -0.0657 -0.5575
 1891TIP3   OH227163   6.467   3.781  11.583 -0.2177 -0.1473 -0.1747
 1891TIP3    H127164   6.402   3.720  11.617  0.0633 -0.1186  0.4256
 1891TIP3    H227165   6.415   3.852  11.545 -0.5540  0.4329  1.3078
 1892TIP3   OH227166   1.766   3.268  11.603  0.6411 -0.8317  0.4416
 1892TIP3    H127167   1.727   3.307  11.524  0.6537 -1.0460  0.3307
 1892TIP3    H227168   1.730   3.179  11.606  2.5187 -1.6470 -0.6370
 1893TIP3   OH227169   4.882   0.171  12.160 -0.5912  0.6805  0.0973
 1893TIP3    H127170   4.846   0.083  12.156  0.8675  0.1242 -1.5958
 1893TIP3    H227171   4.894   0.197  12.069  0.0415  2.1883  0.5844
 1894TIP3   OH227172   0.777   5.929   2.384  0.1508  0.5258 -0.1352
 1894TIP3    H127173   0.773   5.947   2.290 -0.0830  0.7091 -0.0909
 1894TIP3    H227174   0.725   6.000   2.424 -1.4263 -0.6722 -0.0110
 1895TIP3   OH227175   2.457   3.125   1.548 -0.4163 -0.6295 -0.2259
 1895TIP3    H127176   2.511   3.049   1.571 -0.0556 -0.5085 -0.6779
 1895TIP3    H227177   2.375   3.087   1.515  0.3286 -0.8391 -1.8399
 1896TIP3   OH227178   5.727   5.693  12.937  0.2150  0.6905  0.2297
 1896TIP3    H127179   5.638   5.663  12.920  0.3179 -0.0427  0.9096
 1896TIP3    H227180   5.760   5.722  12.852 -0.5366  0.5897 -0.0954
 1897TIP3   OH227181   0.021   0.730   0.897  0.1413 -0.5823  0.0469
 1897TIP3    H127182   0.010   0.811   0.849 -0.9280  0.5262  2.0938
 1897TIP3    H227183   0.058   0.669   0.833 -0.9731  0.8950 -2.0653
 1898TIP3   OH227184   6.411   2.586  16.497  0.1029 -0.0206  0.1056
 1898TIP3    H127185   6.450   2.667  16.530  1.2935  0.1939 -1.7737
 1898TIP3    H227186   6.485   2.526  16.485 -0.6324 -1.0103  0.3856
 1899TIP3   OH227187   3.964   0.089   0.458  0.1418 -0.1683  0.3173
 1899TIP3    H127188   3.964   0.032   0.535 -1.7030 -0.2617  0.2775
 1899TIP3    H227189   3.982   0.176   0.493  2.3493 -0.6522  0.4536
 1900TIP3   OH227190   2.633   5.978  16.226 -0.5198 -0.1896  0.0823
 1900TIP3    H127191   2.543   5.985  16.256  0.2304  1.2752  2.1077
 1900TIP3    H227192   2.673   6.063  16.249  1.4087 -0.8887 -0.5729
 1901TIP3   OH227193   4.109   0.042  14.944  0.3648 -0.8092 -0.8675
 1901TIP3    H127194   4.133  -0.044  14.980  1.2715  0.1172  0.7813
 1901TIP3    H227195   4.162   0.104  14.993 -0.7712  0.7716 -1.6046
 1902TIP3   OH227196   1.422   0.678   2.650  0.9332 -0.0662  0.1674
 1902TIP3    H127197   1.422   0.601   2.594  1.8057  0.4145 -0.5079
 1902TIP3    H227198   1.336   0.718   2.636  1.0435 -0.1037 -0.5961
 1903TIP3   OH227199   3.059   2.505  11.277  0.6122 -0.1715  0.5730
 1903TIP3    H127200   3.023   2.484  11.190 -0.4770  0.0832  0.9568
 1903TIP3    H227201   2.982   2.512  11.333  1.3066 -0.1375  1.5229
 1904TIP3   OH227202   5.779   3.715   6.005 -0.0068 -0.1891 -0.1147
 1904TIP3    H127203   5.835   3.642   6.030  1.3272  0.6252 -0.6909
 1904TIP3    H227204   5.690   3.683   6.019  0.5960 -1.5526  0.6337
 1905TIP3   OH227205   0.648   4.126   0.304  0.0462  0.1751 -0.1013
 1905TIP3    H127206   0.666   4.046   0.256  1.0764 -0.1643  0.8425
 1905TIP3    H227207   0.683   4.196   0.248  3.5640 -0.4074  1.3033
 1906TIP3   OH227208   1.807   1.469  12.440 -0.4754  0.2106 -0.3594
 1906TIP3    H127209   1.761   1.464  12.356 -0.6310 -0.8524 -0.2149
 1906TIP3    H227210   1.841   1.380  12.454 -1.0147  0.2186  1.0191
 1907TIP3   OH227211   2.490   5.971  16.762  0.1389  0.2321 -0.7710
 1907TIP3    H127212   2.415   5.933  16.716  0.2458  0.1452 -0.8687
 1907TIP3    H227213   2.547   6.004  16.693  1.0930 -1.3614 -0.7539
 1908TIP3   OH227214   0.546   0.118   2.765  0.2415  0.1936  0.0691
 1908TIP3    H127215   0.629   0.127   2.812 -1.0537  0.9892  2.2706
 1908TIP3    H227216   0.481   0.154   2.825 -1.9531 -2.0777 -0.8920
 1909TIP3   OH227217   3.542   2.539   3.172 -0.2966  0.0280  0.0905
 1909TIP3    H127218   3.540   2.456   3.220  0.7861 -0.0180  0.0807
 1909TIP3    H227219   3.484   2.597   3.222 -0.3289 -0.4595  0.6244
 1910TIP3   OH227220   2.251   4.287  12.621 -0.5747  0.0559  0.0023
 1910TIP3    H127221   2.195   4.316  12.693 -1.6373  0.7238 -1.0535
 1910TIP3    H227222   2.196   4.225  12.572 -1.1671  2.2237 -2.1901
 1911TIP3   OH227223   2.947   4.797  15.755 -0.1888 -0.0083  0.1697
 1911TIP3    H127224   3.003   4.844  15.817  1.8225 -1.2698 -0.6270
 1911TIP3    H227225   2.929   4.713  15.799 -0.0159 -0.2907 -0.2940
 1912TIP3   OH227226   2.027   3.357  15.970  0.3383  0.1515 -0.3989
 1912TIP3    H127227   2.038   3.263  15.961  1.7627  0.0256  2.1733
 1912TIP3    H227228   2.110   3.394  15.938  0.4502  0.4103  0.1779
 1913TIP3   OH227229   6.038   2.255  11.411 -0.0681  0.4415 -0.5630
 1913TIP3    H127230   5.943   2.253  11.398 -0.3817  0.3448  1.6211
 1913TIP3    H227231   6.068   2.328  11.356 -1.2994 -0.0226 -1.8702
 1914TIP3   OH227232   3.680   3.890   0.106  0.0253 -0.0567  0.1696
 1914TIP3    H127233   3.733   3.948   0.161  1.2159 -1.2710  0.3450
 1914TIP3    H227234   3.742   3.856   0.040 -1.1149  0.4677 -1.2036
 1915TIP3   OH227235   5.395   1.154  14.445 -0.4812 -0.1139 -0.2926
 1915TIP3    H127236   5.485   1.174  14.417 -0.2148  1.8471  1.8345
 1915TIP3    H227237   5.378   1.216  14.516 -2.8048 -1.8193  0.6853
 1916TIP3   OH227238   4.447   2.322  11.058  0.0276 -0.5173  0.4764
 1916TIP3    H127239   4.441   2.264  10.982  2.0460 -0.9043  0.5886
 1916TIP3    H227240   4.387   2.394  11.038 -0.1663 -1.0847 -1.0509
 1917TIP3   OH227241   5.300   6.636  11.323  0.3485  0.2581 -0.2030
 1917TIP3    H127242   5.256   6.690  11.389  0.1663 -0.1164 -0.0186
 1917TIP3    H227243   5.333   6.561  11.372 -2.4301 -1.5729 -1.0658
 1918TIP3   OH227244   2.678   1.817   5.737 -0.4334  0.2879 -0.4752
 1918TIP3    H127245   2.703   1.750   5.801  2.8215  0.4943 -1.4362
 1918TIP3    H227246   2.647   1.891   5.789  0.3597 -0.2563  0.7817
 1919TIP3   OH227247   2.771   3.735  11.313 -0.0957 -0.6420  0.4242
 1919TIP3    H127248   2.705   3.675  11.349 -0.0099  0.0754  1.7737
 1919TIP3    H227249   2.851   3.716  11.361 -0.0985  0.6369  0.9692
 1920TIP3   OH227250   4.007   5.831  12.642 -0.2998 -0.2351 -0.4201
 1920TIP3    H127251   4.018   5.773  12.719  3.5194  2.5610  1.2854
 1920TIP3    H227252   3.944   5.897  12.671  0.1796  0.0909 -0.1117
 1921TIP3   OH227253   4.366   5.356   5.200  0.0287 -0.1452  0.5972
 1921TIP3    H127254   4.391   5.443   5.168 -0.2232  0.0726  0.9942
 1921TIP3    H227255   4.447   5.320   5.236  0.0573  0.0643  0.7461
 1922TIP3   OH227256   1.735   0.002  14.493 -0.2355 -0.5719 -0.4341
 1922TIP3    H127257   1.708  -0.008  14.585  0.9054 -0.4393 -0.0800
 1922TIP3    H227258   1.772   0.090  14.489 -1.8962  0.0941 -1.4408
 1923TIP3   OH227259   1.079   2.093   0.539  0.8209 -0.0059  0.1289
 1923TIP3    H127260   1.061   2.074   0.447 -0.5672  1.0676  0.1477
 1923TIP3    H227261   1.173   2.110   0.543  0.6517  1.3588 -1.3585
 1924TIP3   OH227262   4.398   4.389  12.296 -0.0621 -0.7618  0.1974
 1924TIP3    H127263   4.351   4.319  12.249  0.0097 -1.2706  0.8801
 1924TIP3    H227264   4.486   4.354  12.310  0.3070 -0.0920 -0.4341
 1925TIP3   OH227265   0.019   1.306  11.585 -0.0219  0.1515 -0.3756
 1925TIP3    H127266   0.104   1.264  11.593 -0.5745 -1.0878 -0.9653
 1925TIP3    H227267   0.024   1.381  11.644  1.2580 -0.2654  0.0562
 1926TIP3   OH227268   5.164   4.444   1.502 -0.2127  0.0663  0.5385
 1926TIP3    H127269   5.255   4.423   1.484 -0.9971 -3.1935  0.0119
 1926TIP3    H227270   5.142   4.394   1.580 -1.2903  1.5998  1.2463
 1927TIP3   OH227271   4.514   4.170   0.381  0.3106 -0.0718 -0.1542
 1927TIP3    H127272   4.584   4.181   0.444  0.3942 -1.1549 -0.0434
 1927TIP3    H227273   4.492   4.259   0.352  2.3046  0.2193 -0.8253
 1928TIP3   OH227274   0.715   3.847   4.826 -0.7930 -0.5661 -0.5628
 1928TIP3    H127275   0.654   3.905   4.780  0.6541  0.9818 -0.5818
 1928TIP3    H227276   0.796   3.853   4.777  0.1727 -0.4812  0.9984
 1929TIP3   OH227277   0.672   6.204  13.501  0.2089  0.2672 -0.1540
 1929TIP3    H127278   0.750   6.258  13.511 -0.6590  1.7303 -0.9865
 1929TIP3    H227279   0.600   6.259  13.532 -0.6018 -0.7062 -0.2582
 1930TIP3   OH227280   1.688   6.413   1.687  0.0952 -0.1501 -0.0149
 1930TIP3    H127281   1.642   6.393   1.606 -1.0171 -0.1553  0.6072
 1930TIP3    H227282   1.685   6.331   1.737  0.4646 -0.0428  0.1869
 1931TIP3   OH227283   4.975   4.302  15.503 -0.1568  0.0874  0.6701
 1931TIP3    H127284   4.993   4.384  15.548  0.0108  1.0152 -1.0491
 1931TIP3    H227285   5.048   4.245  15.526 -0.7338  0.0893  2.6014
 1932TIP3   OH227286   3.393   0.679  14.991  0.8177 -0.1247 -0.1510
 1932TIP3    H127287   3.456   0.733  15.039 -0.7023  1.9039 -0.3686
 1932TIP3    H227288   3.340   0.638  15.059  0.3176  0.7227 -0.0194
 1933TIP3   OH227289   1.097   6.155   6.240  0.3557  0.0669  0.0035
 1933TIP3    H127290   1.190   6.158   6.262  0.2478  2.3651  0.2074
 1933TIP3    H227291   1.054   6.204   6.310 -1.4011 -3.5411  1.6164
 1934TIP3   OH227292   0.063   1.681  16.517  0.0785  0.0579  0.4462
 1934TIP3    H127293   0.136   1.719  16.566  2.1482 -2.0061 -0.9745
 1934TIP3    H227294   0.062   1.730  16.435 -0.1523  0.1051  0.4770
 1935TIP3   OH227295   5.343   3.760  15.505  0.4758  0.2763 -0.3474
 1935TIP3    H127296   5.254   3.725  15.506  1.0409 -1.2130  2.2956
 1935TIP3    H227297   5.347   3.816  15.583  1.7817  0.5549 -0.6099
 1936TIP3   OH227298   1.629   1.318   0.975 -0.4708 -0.1867  0.1171
 1936TIP3    H127299   1.670   1.386   1.028 -1.5668  0.8269 -0.3078
 1936TIP3    H227300   1.542   1.352   0.957 -0.2748 -0.7234 -1.9310
 1937TIP3   OH227301   1.908   1.991   3.683 -0.4233 -0.2309  0.2939
 1937TIP3    H127302   1.917   1.993   3.587 -2.0485 -2.5192  0.0509
 1937TIP3    H227303   1.881   2.080   3.706  3.3100  1.3177 -0.9629
 1938TIP3   OH227304   5.483   4.867   1.247 -0.2049  0.0788 -0.0626
 1938TIP3    H127305   5.461   4.937   1.308  0.2338  0.9951 -0.9461
 1938TIP3    H227306   5.497   4.790   1.302 -0.4846  0.7349  0.9270
 1939TIP3   OH227307   0.982   3.606  16.386 -0.0330 -0.9946 -0.1381
 1939TIP3    H127308   0.923   3.622  16.312  0.9193 -1.8363 -1.0923
 1939TIP3    H227309   1.029   3.689  16.397  0.9877 -1.3648 -1.5489
 1940TIP3   OH227310   2.155   2.124  16.883 -0.0925 -0.3982 -0.0662
 1940TIP3    H127311   2.242   2.094  16.909  0.3293  0.0347 -0.9471
 1940TIP3    H227312   2.099   2.047  16.892  0.0736 -0.3290  1.8727
 1941TIP3   OH227313   4.928   2.000  11.629 -0.4304 -0.7153 -0.4050
 1941TIP3    H127314   4.929   1.925  11.689 -0.5797  0.1268  0.6646
 1941TIP3    H227315   4.898   1.964  11.546  0.1682 -1.9758 -0.0830
 1942TIP3   OH227316   2.904   6.139   1.336  0.4839  0.3518  0.4627
 1942TIP3    H127317   2.989   6.107   1.307 -0.0347 -1.4600  0.8574
 1942TIP3    H227318   2.919   6.165   1.427  1.1048  2.0294 -0.1098
 1943TIP3   OH227319   2.705   0.237  17.072  0.4342 -0.0002 -0.0134
 1943TIP3    H127320   2.638   0.171  17.053 -0.4999  0.3220  2.0189
 1943TIP3    H227321   2.781   0.209  17.021 -0.2216 -2.1463  0.1310
 1944TIP3   OH227322   3.911   4.227   5.766 -0.1657 -0.0665 -0.4418
 1944TIP3    H127323   3.989   4.241   5.819  0.1778  0.3956 -1.0628
 1944TIP3    H227324   3.928   4.276   5.685 -1.4100  0.6552 -0.2694
 1945TIP3   OH227325   6.392   0.736   0.379 -0.0828 -0.4941  0.1591
 1945TIP3    H127326   6.300   0.736   0.407  0.4624  1.1866  2.1196
 1945TIP3    H227327   6.428   0.656   0.415 -0.7596 -1.1277 -0.5586
 1946TIP3   OH227328   0.450   5.854  16.245 -0.0897 -0.7081 -0.3526
 1946TIP3    H127329   0.428   5.888  16.159 -0.3511 -0.0812 -0.0390
 1946TIP3    H227330   0.435   5.927  16.305 -0.6915 -1.3876  0.3339
 1947TIP3   OH227331   1.123   5.692   4.596 -0.4149 -0.0668  0.0078
 1947TIP3    H127332   1.127   5.715   4.689 -1.8733  0.4735 -0.0386
 1947TIP3    H227333   1.109   5.775   4.551  0.5125 -0.3009 -0.7219
 1948TIP3   OH227334   4.583   4.606   5.859  0.1436 -0.7090  0.1052
 1948TIP3    H127335   4.545   4.574   5.777 -0.7646 -0.0443  0.2484
 1948TIP3    H227336   4.651   4.543   5.881  0.1639 -1.0800 -0.9858
 1949TIP3   OH227337   1.814   1.090   2.827 -0.5314  0.2055 -0.2417
 1949TIP3    H127338   1.770   1.145   2.761 -1.1801  2.4410  1.9714
 1949TIP3    H227339   1.893   1.139   2.850 -1.9879  1.1791  3.0307
 1950TIP3   OH227340   4.908   3.579  15.184  0.2673  0.0459  0.4184
 1950TIP3    H127341   4.827   3.588  15.133  0.6040  0.0310 -0.1235
 1950TIP3    H227342   4.943   3.494  15.158 -0.1599 -0.4916  1.5563
 1951TIP3   OH227343   2.226   6.228   4.945  0.0109 -0.6529 -0.0380
 1951TIP3    H127344   2.291   6.297   4.931  0.9178 -1.6378 -0.7977
 1951TIP3    H227345   2.150   6.273   4.982  0.4913  0.7831 -0.7690
 1952TIP3   OH227346   2.540   4.665  13.187  0.0229 -0.0776  0.0041
 1952TIP3    H127347   2.502   4.591  13.234 -1.9516  1.0046  0.1568
 1952TIP3    H227348   2.474   4.689  13.121  0.4327  1.8091  0.2374
 1953TIP3   OH227349   1.668   1.053  12.541  0.4425 -0.0941 -0.5512
 1953TIP3    H127350   1.723   1.072  12.465  1.1674  2.0820  0.4458
 1953TIP3    H227351   1.581   1.084  12.516  0.8456  1.3455 -0.2640
 1954TIP3   OH227352   3.305   4.578   2.639 -0.1887 -0.2520 -0.0297
 1954TIP3    H127353   3.386   4.569   2.588  0.7744  1.1130  1.1998
 1954TIP3    H227354   3.311   4.665   2.678 -0.8035 -1.3230  2.5666
 1955TIP3   OH227355   5.098   3.040   3.431  0.8059  0.1362  0.3371
 1955TIP3    H127356   5.150   2.959   3.432  1.3149  0.4255 -0.9530
 1955TIP3    H227357   5.130   3.090   3.506 -0.2815 -1.3184  1.8084
 1956TIP3   OH227358   0.252   4.572  15.420  0.7480 -0.1704 -0.1847
 1956TIP3    H127359   0.199   4.493  15.410  1.6886 -0.8953  0.3938
 1956TIP3    H227360   0.189   4.641  15.438 -0.1414 -0.6544 -1.3792
 1957TIP3   OH227361   0.774   5.641  13.984 -0.6560  0.1466 -0.4191
 1957TIP3    H127362   0.749   5.718  14.035  0.2872  1.3062 -1.6458
 1957TIP3    H227363   0.692   5.597  13.964 -0.9652 -1.2373  3.3984
 1958TIP3   OH227364   4.394   4.934   0.384  0.0656  1.0724  0.7613
 1958TIP3    H127365   4.363   5.011   0.336 -0.8237  0.4316  0.2909
 1958TIP3    H227366   4.374   4.953   0.476 -0.0418  1.4597  0.6564
 1959TIP3   OH227367   4.737   4.716  16.853 -0.4145 -0.1581 -0.1814
 1959TIP3    H127368   4.760   4.807  16.833 -2.7627  0.3675 -0.6451
 1959TIP3    H227369   4.710   4.718  16.945 -2.1917 -0.0151 -0.6928
 1960TIP3   OH227370   4.319   6.028   4.941  0.2166  0.3444 -0.4967
 1960TIP3    H127371   4.224   6.043   4.939  0.3348  0.9998 -1.6553
 1960TIP3    H227372   4.335   5.966   4.869  0.5181 -0.7206  0.4663
 1961TIP3   OH227373   3.887   1.840   2.689 -0.7339  0.3039  0.3009
 1961TIP3    H127374   3.827   1.871   2.622  0.1826  1.3114 -0.0588
 1961TIP3    H227375   3.852   1.875   2.771 -0.4924  1.0948  0.0645
 1962TIP3   OH227376   3.089   6.306   2.399 -0.1547  0.2513  0.2443
 1962TIP3    H127377   3.121   6.343   2.317 -0.1574 -0.5993 -0.1505
 1962TIP3    H227378   3.106   6.212   2.391  0.9446  0.3008  1.7064
 1963TIP3   OH227379   0.720   1.907  15.545  0.1361  0.4526 -0.4333
 1963TIP3    H127380   0.725   1.885  15.452 -0.6715 -1.1032 -0.1219
 1963TIP3    H227381   0.810   1.894  15.577  0.0424 -0.7463 -0.6260
 1964TIP3   OH227382   4.778   4.871  16.399  0.2571 -0.2922 -0.3236
 1964TIP3    H127383   4.696   4.884  16.448  1.6108  0.5062  1.8218
 1964TIP3    H227384   4.756   4.807  16.332 -2.4029  0.7079 -0.4699
 1965TIP3   OH227385   1.885   5.847  13.730  0.2464 -0.4395 -0.1102
 1965TIP3    H127386   1.913   5.938  13.734  0.1336 -0.3977 -0.2416
 1965TIP3    H227387   1.801   5.850  13.683 -0.5773 -0.4360  1.3559
 1966TIP3   OH227388   2.276   0.323   0.725 -0.1480 -0.1894  0.1389
 1966TIP3    H127389   2.299   0.285   0.810  3.3330 -1.2585 -1.1970
 1966TIP3    H227390   2.340   0.393   0.712 -1.0411  0.3780 -1.3338
 1967TIP3   OH227391   3.816   6.766   2.542  0.4580  0.4801 -0.1554
 1967TIP3    H127392   3.893   6.712   2.526  0.0274  0.0525 -0.8146
 1967TIP3    H227393   3.833   6.847   2.495  0.3632  0.2557 -0.5825
 1968TIP3   OH227394   4.286   4.987  13.694 -0.2614  0.4944  0.1589
 1968TIP3    H127395   4.225   4.939  13.749 -2.0290  1.3343 -1.0450
 1968TIP3    H227396   4.275   5.079  13.718 -0.2693  0.7603 -0.8333
 1969TIP3   OH227397   6.329   3.399  13.393  0.1859 -0.2711 -0.3553
 1969TIP3    H127398   6.236   3.396  13.412  0.4094 -0.1704  0.7648
 1969TIP3    H227399   6.355   3.307  13.385  0.2297 -0.3356  0.5196
 1970TIP3   OH227400   5.998   4.618   5.996  0.6901 -0.0207  0.0414
 1970TIP3    H127401   6.055   4.543   5.979 -2.0475 -2.2042  0.1500
 1970TIP3    H227402   5.910   4.581   6.001 -0.8686  3.3679 -0.9333
 1971TIP3   OH227403   4.417   3.893   5.574  0.2879  0.4743 -0.1342
 1971TIP3    H127404   4.490   3.955   5.583 -0.1738  1.1536 -1.0729
 1971TIP3    H227405   4.346   3.944   5.537 -0.2846 -0.4914 -0.3880
 1972TIP3   OH227406   2.835   2.301  11.577 -0.0055  1.3786 -0.4659
 1972TIP3    H127407   2.808   2.354  11.502 -3.0448  1.1299  0.3931
 1972TIP3    H227408   2.898   2.239  11.540 -1.2499  1.4291 -2.7718
 1973TIP3   OH227409   2.242   5.636   5.785  0.0829  0.1160 -0.0147
 1973TIP3    H127410   2.316   5.692   5.762 -0.5206  0.5437 -0.9941
 1973TIP3    H227411   2.195   5.685   5.852  0.3229  0.1447  0.1341
 1974TIP3   OH227412   5.632   4.661  13.661  0.5660 -0.3368 -0.1874
 1974TIP3    H127413   5.727   4.653  13.672  0.1809 -1.9321  2.5486
 1974TIP3    H227414   5.599   4.682  13.749 -1.7797 -1.7333 -0.6759
 1975TIP3   OH227415   1.245   0.351   3.975  0.1156 -0.0757 -0.2240
 1975TIP3    H127416   1.275   0.438   3.948  1.1335 -0.3888 -0.1039
 1975TIP3    H227417   1.321   0.295   3.965  0.2301 -0.4207  2.2182
 1976TIP3   OH227418   2.131   6.285   3.911  0.4768 -0.3149  0.2475
 1976TIP3    H127419   2.224   6.273   3.930  0.6230 -1.0124 -0.8458
 1976TIP3    H227420   2.128   6.365   3.858  0.4286 -0.1809  0.4514
 1977TIP3   OH227421   3.982   5.189  16.588 -0.2647 -0.8661  0.0554
 1977TIP3    H127422   3.907   5.161  16.535 -0.2645 -0.9533  0.1013
 1977TIP3    H227423   3.947   5.257  16.645  0.4059  1.4295 -2.1871
 1978TIP3   OH227424   1.747   5.334  12.592 -0.0191  0.4469 -0.2868
 1978TIP3    H127425   1.675   5.380  12.636 -0.5118  0.0925 -0.7146
 1978TIP3    H227426   1.825   5.385  12.613 -0.4813  1.1549 -0.2888
 1979TIP3   OH227427   4.499   5.921  11.840  0.2292 -0.2930 -0.0636
 1979TIP3    H127428   4.592   5.923  11.818 -0.0615  0.2821 -1.2955
 1979TIP3    H227429   4.456   5.965  11.767 -1.1023 -1.3939  0.0232
 1980TIP3   OH227430   1.394   0.645   1.223 -0.2387  0.2008 -0.7604
 1980TIP3    H127431   1.459   0.716   1.221  0.2100 -0.1366  1.0642
 1980TIP3    H227432   1.439   0.570   1.185  1.0243 -0.4593  1.8954
 1981TIP3   OH227433   5.941   6.589   0.496  0.0489  0.5358  0.7787
 1981TIP3    H127434   5.868   6.650   0.505 -0.1355  0.2786  1.0408
 1981TIP3    H227435   5.989   6.596   0.579  0.6962  1.1819  0.3571
 1982TIP3   OH227436   1.895   3.509  11.870 -0.6746  0.7217 -0.0304
 1982TIP3    H127437   1.867   3.419  11.886 -0.8215  0.4145 -1.8187
 1982TIP3    H227438   1.892   3.517  11.774  0.9359  2.1082  0.0194
 1983TIP3   OH227439   3.492   0.509  11.948 -0.4903  0.1353 -0.4512
 1983TIP3    H127440   3.528   0.586  11.904 -0.4440 -0.6893 -1.8994
 1983TIP3    H227441   3.400   0.507  11.921 -0.8835  0.5816  0.8629
 1984TIP3   OH227442   5.091   0.704  15.611  0.3867 -0.3700  0.1626
 1984TIP3    H127443   5.111   0.611  15.623  0.5012 -0.2897  0.5964
 1984TIP3    H227444   5.065   0.711  15.519  3.2695 -0.3255 -0.6972
 1985TIP3   OH227445   6.216   0.134   6.633  0.0648 -0.3332  0.1505
 1985TIP3    H127446   6.163   0.179   6.699 -0.9228 -1.3884  0.1026
 1985TIP3    H227447   6.247   0.055   6.678  1.4351  0.1821  0.1124
 1986TIP3   OH227448   1.615   0.945  15.678  0.3713  0.0113 -0.2078
 1986TIP3    H127449   1.545   0.898  15.722 -0.4899  3.3520  2.1709
 1986TIP3    H227450   1.611   1.034  15.712  1.6007  2.0691 -4.8824
 1987TIP3   OH227451   3.745   6.761   5.924  0.5778  0.3055  0.1211
 1987TIP3    H127452   3.761   6.713   5.843 -0.2556  1.9290 -1.0262
 1987TIP3    H227453   3.679   6.710   5.970 -0.9249  0.7884 -1.4723
 1988TIP3   OH227454   1.847   0.411   0.760  0.2201 -0.0818  0.3760
 1988TIP3    H127455   1.802   0.400   0.676  0.3569 -0.6007  0.3674
 1988TIP3    H227456   1.919   0.348   0.757  0.8542  0.6415  0.4608
 1989TIP3   OH227457   6.093   6.247  16.426  0.0109  0.1866  0.2796
 1989TIP3    H127458   6.070   6.328  16.472  0.1103  0.0866  0.5099
 1989TIP3    H227459   6.188   6.240  16.435  0.2620  1.1037 -1.5155
 1990TIP3   OH227460   5.556   3.589   0.204  0.0393 -0.3661  0.1369
 1990TIP3    H127461   5.479   3.618   0.156  0.7800 -0.5390 -1.1936
 1990TIP3    H227462   5.629   3.602   0.143  1.0183 -0.5446  1.2336
 1991TIP3   OH227463   4.992   4.189  15.924  0.2518  0.0259  0.4070
 1991TIP3    H127464   5.081   4.187  15.961  1.3974  1.1013 -2.1740
 1991TIP3    H227465   4.944   4.248  15.982  0.8322 -1.5550  2.5833
 1992TIP3   OH227466   5.712   5.819  12.377  0.3433  0.2732  0.1009
 1992TIP3    H127467   5.631   5.768  12.382 -1.5925  3.0342 -1.6532
 1992TIP3    H227468   5.771   5.766  12.323 -0.0088 -2.0958  1.9962
 1993TIP3   OH227469   1.707   0.328   5.970 -0.0320 -0.4108  0.5632
 1993TIP3    H127470   1.672   0.328   6.060 -1.8036 -2.6290 -0.0486
 1993TIP3    H227471   1.795   0.291   5.979 -0.3182 -0.9312  1.3630
 1994TIP3   OH227472   3.660   1.252  15.203  0.4492  0.2662  0.0391
 1994TIP3    H127473   3.569   1.275  15.185  0.3783  1.0038  1.2875
 1994TIP3    H227474   3.681   1.186  15.137 -0.6453  0.8814 -0.9421
 1995TIP3   OH227475   4.531   2.680  15.125 -0.2190 -0.4433 -0.2743
 1995TIP3    H127476   4.563   2.770  15.136 -0.1301 -0.4945 -0.0967
 1995TIP3    H227477   4.541   2.641  15.213 -1.1007 -0.3557 -0.1383
 1996TIP3   OH227478   1.657   4.506  15.974  0.0662 -1.2904  0.2586
 1996TIP3    H127479   1.741   4.471  15.943 -1.9206 -2.7635 -3.7427
 1996TIP3    H227480   1.659   4.599  15.951  1.0313 -1.0651  1.2144
 1997TIP3   OH227481   1.249   5.429  16.484  0.1644  0.3602 -0.1630
 1997TIP3    H127482   1.202   5.500  16.441 -1.0168 -0.3742 -0.0862
 1997TIP3    H227483   1.215   5.427  16.573  0.0512 -0.4261 -0.2183
 1998TIP3   OH227484   6.126   3.301   4.782 -0.1431 -0.6902  0.3740
 1998TIP3    H127485   6.108   3.390   4.813  1.8103 -0.5604  1.1760
 1998TIP3    H227486   6.155   3.313   4.692  0.7524 -0.4417  0.6893
 1999TIP3   OH227487   0.441   1.673   4.772 -0.2213  0.2171  0.2964
 1999TIP3    H127488   0.346   1.677   4.780 -0.3431 -0.3771 -0.7474
 1999TIP3    H227489   0.461   1.725   4.695  0.2034 -0.4796 -0.0724
 2000TIP3   OH227490   1.854   3.570  14.347  0.8045 -0.7563  0.0885
 2000TIP3    H127491   1.788   3.628  14.384 -0.1437 -0.3080 -2.2049
 2000TIP3    H227492   1.837   3.485  14.389  0.1505 -0.1240  1.1170
 2001TIP3   OH227493   6.807   2.292  11.716  0.2326 -0.2590  0.0487
 2001TIP3    H127494   6.836   2.201  11.727  1.4424  0.0959 -0.2637
 2001TIP3    H227495   6.773   2.296  11.627 -1.0417 -0.7263  0.4865
 2002TIP3   OH227496   1.258   1.523   0.065 -0.3497  0.6997  0.6404
 2002TIP3    H127497   1.197   1.582   0.111  0.2424  1.1191  0.8976
 2002TIP3    H227498   1.343   1.543   0.103  0.1914  1.2481 -0.8396
 2003TIP3   OH227499   5.137   4.388  11.447  0.8209  0.2591 -0.4275
 2003TIP3    H127500   5.054   4.390  11.399  0.0984  1.6352  0.8363
 2003TIP3    H227501   5.184   4.314  11.410 -0.2468  0.5188 -2.3589
 2004TIP3   OH227502   6.126   0.805  15.835 -0.6836 -0.1789  0.1771
 2004TIP3    H127503   6.155   0.895  15.821  0.6744 -0.4370  1.2092
 2004TIP3    H227504   6.104   0.802  15.928 -1.0142 -0.8307  0.0790
 2005TIP3   OH227505   6.493   0.923  11.736  0.1193  0.3333 -0.0741
 2005TIP3    H127506   6.423   0.979  11.772  0.5440 -0.6030  2.2958
 2005TIP3    H227507   6.497   0.849  11.796  2.3880 -0.1944 -0.8380
 2006TIP3   OH227508   3.213   4.312   3.767 -0.3191 -0.2092  0.8941
 2006TIP3    H127509   3.260   4.306   3.850  1.5269  1.1653 -0.0155
 2006TIP3    H227510   3.260   4.251   3.709 -0.1709  0.5623  0.2019
 2007TIP3   OH227511   4.161   1.809   6.562 -0.2011 -0.1980 -0.5820
 2007TIP3    H127512   4.148   1.716   6.578  1.8752 -0.1907  1.3488
 2007TIP3    H227513   4.077   1.849   6.587  0.0202 -1.2002  1.9150
 2008TIP3   OH227514   3.290   6.367  15.786 -0.1946 -0.3918 -0.1368
 2008TIP3    H127515   3.285   6.403  15.698  1.4441 -1.8766 -0.8910
 2008TIP3    H227516   3.374   6.399  15.820 -1.1849  0.8241  1.1993
 2009TIP3   OH227517   2.649   6.754  17.020 -0.7717 -0.7467  0.0837
 2009TIP3    H127518   2.709   6.750  17.095 -2.2349 -1.2600  1.2583
 2009TIP3    H227519   2.569   6.792  17.056 -0.4248  2.0304 -1.9777
 2010TIP3   OH227520   0.023   6.705   4.931  0.1202 -0.2132 -0.5476
 2010TIP3    H127521   0.111   6.741   4.927 -0.1604  0.5750  0.3992
 2010TIP3    H227522  -0.027   6.757   4.868  0.5321 -1.2885 -1.8086
 2011TIP3   OH227523   2.089   4.522   4.040  0.2817 -0.1661  0.6310
 2011TIP3    H127524   2.053   4.548   3.955  3.0829  0.7291 -0.3213
 2011TIP3    H227525   2.139   4.443   4.021  0.0658 -0.5551  1.6589
 2012TIP3   OH227526   6.517   3.301   1.692 -0.2777  0.2543  0.4302
 2012TIP3    H127527   6.573   3.234   1.731 -0.3333  0.6534  1.2077
 2012TIP3    H227528   6.448   3.253   1.648  0.7736 -0.2571 -0.6912
 2013TIP3   OH227529   4.926   6.780   4.624  0.0738  0.0598  0.3614
 2013TIP3    H127530   4.989   6.736   4.568  0.4380  1.4960 -0.3819
 2013TIP3    H227531   4.858   6.715   4.640  0.3921 -0.6324 -1.0556
 2014TIP3   OH227532   0.871   4.288  12.790 -0.0394 -0.3969  0.2604
 2014TIP3    H127533   0.808   4.271  12.861  1.3237 -0.6295  1.4299
 2014TIP3    H227534   0.824   4.348  12.731 -1.4708 -0.8161  0.9408
 2015TIP3   OH227535   2.010   0.349  14.912 -0.0741  0.5341 -0.0500
 2015TIP3    H127536   1.917   0.337  14.892 -0.5151  2.5461  0.7169
 2015TIP3    H227537   2.047   0.387  14.833  0.1211 -0.3313 -0.3815
 2016TIP3   OH227538   4.236   3.377   3.658  0.0296  0.0339 -0.2456
 2016TIP3    H127539   4.324   3.340   3.657 -0.1122 -0.3536  0.6868
 2016TIP3    H227540   4.233   3.429   3.738 -0.8408 -0.5959  0.1334
 2017TIP3   OH227541   3.040   2.277  17.041 -0.2823  0.1940 -0.4395
 2017TIP3    H127542   3.093   2.356  17.031 -1.4910  1.0563 -0.1132
 2017TIP3    H227543   3.086   2.211  16.989  1.0710  0.9405 -0.2061
 2018TIP3   OH227544   2.135   0.098   5.971 -0.0768  0.0097  0.0639
 2018TIP3    H127545   2.049   0.123   6.004  0.1325  0.2100  0.4579
 2018TIP3    H227546   2.175   0.180   5.944 -0.7153 -0.2679 -1.8443
 2019TIP3   OH227547   3.043   0.095  11.154 -0.7444  0.0541 -0.0199
 2019TIP3    H127548   3.058   0.010  11.196  1.2960  0.0587 -0.6800
 2019TIP3    H227549   3.078   0.084  11.065  0.7326  1.9746  0.2907
 2020TIP3   OH227550   3.026   6.421  15.502 -0.1203 -0.1023  0.0914
 2020TIP3    H127551   3.121   6.421  15.497 -0.0701 -1.4604  0.8804
 2020TIP3    H227552   2.997   6.420  15.411  0.6418 -2.0861 -0.1568
 2021TIP3   OH227553   2.375   2.832   4.075 -0.0844  0.5451 -0.2197
 2021TIP3    H127554   2.295   2.808   4.029 -0.5501  1.3701  0.1576
 2021TIP3    H227555   2.382   2.768   4.146  1.1893 -1.3866 -2.0096
 2022TIP3   OH227556   5.856   5.560  14.029  0.2660 -0.4009 -0.3046
 2022TIP3    H127557   5.890   5.649  14.040  2.3566 -1.0511 -1.1436
 2022TIP3    H227558   5.924   5.504  14.066 -1.5884 -1.6061  1.3430
 2023TIP3   OH227559   5.617   2.185   0.689  0.1131 -0.4693 -0.2368
 2023TIP3    H127560   5.565   2.121   0.641 -0.6378  0.2714 -0.4392
 2023TIP3    H227561   5.607   2.160   0.781  2.2945 -2.4320 -0.5047
 2024TIP3   OH227562   2.776   4.337   5.159 -0.6526  0.2847 -0.5498
 2024TIP3    H127563   2.846   4.296   5.108 -0.0870  1.1383 -0.4713
 2024TIP3    H227564   2.820   4.405   5.209 -1.5225  0.7341 -0.3915
 2025TIP3   OH227565   2.151   3.088  16.691 -0.1923 -0.3884 -0.2514
 2025TIP3    H127566   2.060   3.058  16.701 -0.9375  1.3580 -1.4891
 2025TIP3    H227567   2.199   3.010  16.664 -1.5007 -1.1619 -0.3933
 2026TIP3   OH227568   2.559   5.969   2.254 -0.7171 -0.1672  0.0418
 2026TIP3    H127569   2.638   5.936   2.296 -1.3345  0.0064  1.3361
 2026TIP3    H227570   2.501   5.894   2.246 -0.5480 -0.2330 -0.6537
 2027TIP3   OH227571   4.902   6.058  15.711  0.1459  0.0079  0.2459
 2027TIP3    H127572   4.947   6.020  15.636 -0.4527 -0.4832  0.1399
 2027TIP3    H227573   4.970   6.109  15.755  1.0333 -1.4160  0.5683
 2028TIP3   OH227574   3.126   3.763   3.671 -0.9325  0.3212  0.2759
 2028TIP3    H127575   3.149   3.780   3.763 -1.4238  0.1551  0.4321
 2028TIP3    H227576   3.192   3.811   3.621 -0.1210 -0.3033  0.7166
 2029TIP3   OH227577   2.834   3.091   3.296  0.3133 -0.0733  0.3574
 2029TIP3    H127578   2.866   3.176   3.325 -0.5106  0.3989 -0.0837
 2029TIP3    H227579   2.911   3.045   3.263  0.7776  0.4555  0.7095
 2030TIP3   OH227580   2.634   5.938   5.882  0.2151 -0.1305 -0.0231
 2030TIP3    H127581   2.664   6.024   5.910  0.6918  0.0689 -1.1305
 2030TIP3    H227582   2.696   5.877   5.922  0.1188  0.0649  0.4239
 2031TIP3   OH227583   1.720   2.661  15.863  0.4072 -0.9165  0.3142
 2031TIP3    H127584   1.641   2.713  15.846  0.6742 -0.7131 -0.3231
 2031TIP3    H227585   1.783   2.692  15.798  0.4702 -2.2406 -0.2770
 2032TIP3   OH227586   2.633   4.421   5.598  0.0769  0.0006 -0.3258
 2032TIP3    H127587   2.635   4.351   5.533  1.0463 -0.1496 -0.1460
 2032TIP3    H227588   2.722   4.423   5.634 -0.2316  0.6093  0.4294
 2033TIP3   OH227589   3.151   5.811  12.131  0.1416  0.0981  0.7671
 2033TIP3    H127590   3.149   5.716  12.119 -1.9193 -0.0427  1.9042
 2033TIP3    H227591   3.066   5.831  12.171  0.4138  2.4622  0.2008
 2034TIP3   OH227592   1.448   2.196   1.817  0.1189 -0.1350  0.3877
 2034TIP3    H127593   1.487   2.154   1.741  0.0803  2.8545 -1.3685
 2034TIP3    H227594   1.364   2.152   1.829  1.2812 -2.4077  0.3593
 2035TIP3   OH227595   0.928   5.803  13.378 -0.1954 -0.0366  0.0401
 2035TIP3    H127596   0.862   5.755  13.328  0.1159  1.1172 -1.5431
 2035TIP3    H227597   0.940   5.752  13.457 -1.2235 -1.5588 -0.7502
 2036TIP3   OH227598   5.309   4.206  15.167  0.5953 -0.4450  0.4531
 2036TIP3    H127599   5.292   4.299  15.152 -2.0926 -0.4996  2.5383
 2036TIP3    H227600   5.253   4.161  15.104 -1.7577 -0.5926  2.5309
 2037TIP3   OH227601   1.046   2.045  13.214  0.2528  0.4408  0.0541
 2037TIP3    H127602   1.035   1.962  13.260 -1.4968  0.8782  0.4410
 2037TIP3    H227603   1.030   2.023  13.122  1.2315  0.0655 -0.0260
 2038TIP3   OH227604   4.817   4.913   4.707 -0.0582 -0.3452  0.3199
 2038TIP3    H127605   4.794   4.820   4.712 -1.4579 -0.1868 -2.3365
 2038TIP3    H227606   4.763   4.955   4.774 -0.5837 -1.2439  0.4719
 2039TIP3   OH227607   5.307   5.735  15.709 -0.1511  0.3395  0.1513
 2039TIP3    H127608   5.389   5.762  15.669  0.1274 -0.7472 -0.0365
 2039TIP3    H227609   5.317   5.756  15.802 -0.3352  1.7709 -0.1374
 2040TIP3   OH227610   6.493   3.355  13.890  0.3953  0.3951  0.0750
 2040TIP3    H127611   6.554   3.426  13.910 -0.8191  1.8013 -1.1082
 2040TIP3    H227612   6.426   3.395  13.834 -1.8046 -1.0217  1.6038
 2041TIP3   OH227613   5.676   0.530   5.881  0.2742  0.0950  0.4032
 2041TIP3    H127614   5.751   0.476   5.856  0.8486  0.6178  0.9660
 2041TIP3    H227615   5.708   0.582   5.955 -0.2652  1.2261 -0.1600
 2042TIP3   OH227616   4.808   6.598   2.995  0.1065  0.7092 -0.5892
 2042TIP3    H127617   4.716   6.571   2.998  0.2178  0.3769 -0.2278
 2042TIP3    H227618   4.852   6.530   2.944  0.3660  0.2646  0.2288
 2043TIP3   OH227619   0.213   0.350  15.874  0.2653  0.2848 -0.0664
 2043TIP3    H127620   0.229   0.257  15.856 -0.9828 -0.5295  2.7876
 2043TIP3    H227621   0.300   0.391  15.866  1.3614 -1.6485  1.5415
 2044TIP3   OH227622   6.267   5.826   6.337 -0.0965 -0.1464  0.4556
 2044TIP3    H127623   6.343   5.774   6.363 -0.8538 -1.7673 -0.5027
 2044TIP3    H227624   6.264   5.898   6.400  3.4809  1.1528 -0.7487
 2045TIP3   OH227625   5.534   6.472  13.341  0.3554 -0.5333 -0.3983
 2045TIP3    H127626   5.439   6.482  13.338  0.4859  1.3744  1.0086
 2045TIP3    H227627   5.564   6.494  13.253 -0.0915  4.3001  0.5259
 2046TIP3   OH227628   6.513   3.293   2.574  0.1634  0.0202  0.0222
 2046TIP3    H127629   6.582   3.242   2.617  0.5184  0.5262  0.0597
 2046TIP3    H227630   6.502   3.252   2.488  0.0731 -0.4486  0.2616
 2047TIP3   OH227631   4.160   1.534   0.572  0.3963 -0.5209  0.2374
 2047TIP3    H127632   4.073   1.537   0.532  0.6418 -0.0770 -0.2655
 2047TIP3    H227633   4.221   1.539   0.498  0.8567 -1.6425  0.5187
 2048TIP3   OH227634   4.641   1.808   2.733  0.3344 -0.3844 -0.2261
 2048TIP3    H127635   4.672   1.729   2.688 -1.3943 -1.2226 -0.0083
 2048TIP3    H227636   4.617   1.777   2.821 -0.9513  0.2298 -0.3404
 2049TIP3   OH227637   6.151   5.639  14.618  0.4593 -0.2689  0.0626
 2049TIP3    H127638   6.084   5.707  14.628 -1.2634 -2.0828  1.5139
 2049TIP3    H227639   6.234   5.685  14.622 -0.7124  2.1261 -2.3929
 2050TIP3   OH227640   1.692   4.069  14.355 -0.0913 -1.0041 -0.0066
 2050TIP3    H127641   1.680   4.164  14.355  0.5681 -0.9054 -1.2232
 2050TIP3    H227642   1.779   4.055  14.392 -0.1921 -1.1372  0.1826
 2051TIP3   OH227643   5.499   0.522  14.966  0.5246  0.0601 -0.2802
 2051TIP3    H127644   5.510   0.436  15.007 -1.9270 -0.9347 -1.5898
 2051TIP3    H227645   5.588   0.550  14.945  1.4290 -1.7620  0.9406
 2052TIP3   OH227646   0.223   6.233   2.108 -0.5241  0.2354  0.4616
 2052TIP3    H127647   0.128   6.242   2.099 -0.5228  1.4505  1.5558
 2052TIP3    H227648   0.247   6.295   2.177  1.0582 -0.0995  0.2361
 2053TIP3   OH227649   0.650   6.641   6.214  0.1541 -0.7241  0.1459
 2053TIP3    H127650   0.725   6.608   6.263 -1.1126 -4.2418 -0.1130
 2053TIP3    H227651   0.684   6.657   6.126  0.6366 -2.2587  0.0352
 2054TIP3   OH227652   5.142   4.195   5.362 -0.6328  0.3022 -0.0458
 2054TIP3    H127653   5.145   4.288   5.340  1.4028 -0.1714 -1.9021
 2054TIP3    H227654   5.068   4.187   5.422 -1.7848  2.8544 -1.0697
 2055TIP3   OH227655   3.905   1.671  11.555  0.1825 -0.5819  0.1648
 2055TIP3    H127656   3.897   1.594  11.497 -3.3863  0.0404 -0.3055
 2055TIP3    H227657   3.945   1.636  11.635 -1.7260 -3.0674  0.1160
 2056TIP3   OH227658   3.679   2.226   1.783  0.2442  0.0791  0.1302
 2056TIP3    H127659   3.740   2.298   1.766  0.9311 -0.0307  2.0107
 2056TIP3    H227660   3.729   2.165   1.838 -0.2227 -2.0052 -1.6948
 2057TIP3   OH227661   3.115   6.738   2.406  0.3721 -0.3984  1.2181
 2057TIP3    H127662   3.202   6.703   2.429  0.8406  0.9369  1.5271
 2057TIP3    H227663   3.093   6.795   2.479 -0.0533  0.5296  0.3617
 2058TIP3   OH227664   2.018   0.785   5.229 -0.7062  0.3218 -0.0479
 2058TIP3    H127665   2.065   0.868   5.233  0.6265 -0.5020  1.5539
 2058TIP3    H227666   2.052   0.741   5.150  0.4012  0.2110  0.4884
 2059TIP3   OH227667   2.369   2.270  15.468 -0.6780  0.6142 -0.1658
 2059TIP3    H127668   2.443   2.307  15.515  1.0028  0.5937 -2.6779
 2059TIP3    H227669   2.292   2.299  15.517  0.9673  0.7294  2.4152
 2060TIP3   OH227670   6.653   2.022  11.279  0.2030 -0.2600  0.6344
 2060TIP3    H127671   6.655   1.941  11.229 -4.0617 -0.4337  0.5966
 2060TIP3    H227672   6.584   2.009  11.344 -0.8650  3.4451  0.3732
 2061TIP3   OH227673   4.816   0.581  12.604  0.1337  0.1213 -0.3076
 2061TIP3    H127674   4.740   0.604  12.552 -0.2092 -2.2399 -0.8965
 2061TIP3    H227675   4.781   0.562  12.691  0.4903  2.3241  0.3470
 2062TIP3   OH227676   4.664   5.133   2.885  0.0730 -0.6298 -0.2284
 2062TIP3    H127677   4.596   5.139   2.951  0.2165 -1.4318 -0.0062
 2062TIP3    H227678   4.661   5.217   2.839  0.1527  0.0311  0.9649
 2063TIP3   OH227679   0.380   5.267  12.576  0.0342  0.2863  0.3782
 2063TIP3    H127680   0.365   5.310  12.491  2.2416  1.5114  0.5478
 2063TIP3    H227681   0.454   5.209  12.559  0.5667  0.6359  1.4767
 2064TIP3   OH227682   3.621   5.600  13.108 -0.1904 -0.1730  0.3693
 2064TIP3    H127683   3.536   5.584  13.148 -0.1338 -2.4208 -0.3796
 2064TIP3    H227684   3.626   5.696  13.100 -1.7112  0.1090  2.3879
 2065TIP3   OH227685   4.076   6.094  11.695 -0.1605 -0.1236 -0.9182
 2065TIP3    H127686   4.140   6.126  11.630 -1.5359  1.3115 -1.6022
 2065TIP3    H227687   4.115   6.115  11.780  1.9779 -2.6303 -1.2122
 2066TIP3   OH227688   0.619   1.366   5.117  0.1765 -0.0344 -0.3140
 2066TIP3    H127689   0.613   1.428   5.189 -0.7285  0.8184 -1.0995
 2066TIP3    H227690   0.616   1.421   5.038 -2.1853 -1.1347 -1.0476
 2067TIP3   OH227691   2.947   5.706  11.740 -0.0486 -0.2495  0.4552
 2067TIP3    H127692   3.038   5.706  11.769 -0.1021  1.9841  0.7424
 2067TIP3    H227693   2.953   5.707  11.645  0.1950 -1.1990  0.4500
 2068TIP3   OH227694   0.468   3.385  15.995 -0.0902  0.0743  0.3826
 2068TIP3    H127695   0.405   3.455  15.979  0.0495  0.0098 -0.4896
 2068TIP3    H227696   0.466   3.333  15.914  0.1351 -0.6674  0.8471
 2069TIP3   OH227697   4.183   4.485   6.162  0.4027 -0.1277  0.7319
 2069TIP3    H127698   4.132   4.457   6.238  2.4624  0.0331  2.1809
 2069TIP3    H227699   4.145   4.569   6.138  0.2443  0.1889  2.0540
 2070TIP3   OH227700   6.141   2.523   5.659  0.3188 -0.3083  0.4620
 2070TIP3    H127701   6.055   2.543   5.696 -0.1052  1.0825 -1.2233
 2070TIP3    H227702   6.158   2.595   5.598  0.9895 -2.4784 -2.0089
 2071TIP3   OH227703   5.923   1.900   4.095 -0.4729 -0.1420 -0.2094
 2071TIP3    H127704   5.876   1.890   4.012 -2.0249 -0.4521  0.6873
 2071TIP3    H227705   5.875   1.844   4.156  0.8902 -0.2193  0.8063
 2072TIP3   OH227706   2.896   6.594  15.676  0.1225  0.0622 -0.0383
 2072TIP3    H127707   2.949   6.541  15.617  0.3622 -0.3701  0.5466
 2072TIP3    H227708   2.953   6.667  15.701 -0.4294  0.9525 -1.3432
 2073TIP3   OH227709   5.834   4.835  13.968 -0.3099 -0.4263  0.3527
 2073TIP3    H127710   5.744   4.864  13.958 -0.3369 -0.1414  1.3187
 2073TIP3    H227711   5.848   4.834  14.063  1.5469  2.1591  0.1371
 2074TIP3   OH227712   4.002   1.657  10.896  0.7927  0.2257  0.4441
 2074TIP3    H127713   3.974   1.685  10.809  1.2983 -1.8554 -0.4126
 2074TIP3    H227714   3.960   1.572  10.908 -0.0539  0.9166  2.6514
 2075TIP3   OH227715   6.552   1.976   4.396 -0.2165 -0.5250  0.4277
 2075TIP3    H127716   6.617   2.015   4.454  0.0099 -0.3502  0.0589
 2075TIP3    H227717   6.488   2.045   4.380  1.9918  0.9038 -3.0198
 2076TIP3   OH227718   2.276   3.473  11.580 -0.0908 -0.0094 -0.0649
 2076TIP3    H127719   2.295   3.558  11.619 -0.2464  0.2575 -0.5617
 2076TIP3    H227720   2.284   3.411  11.652  1.0908  0.2892  0.0660
 2077TIP3   OH227721   1.470   1.292  14.317  0.3261 -0.4393  0.1330
 2077TIP3    H127722   1.462   1.366  14.377 -0.5562 -2.6924  2.9523
 2077TIP3    H227723   1.540   1.317  14.257  1.1459  1.9898  2.0126
 2078TIP3   OH227724   4.267   5.337   1.328  0.5051  0.1695  0.4166
 2078TIP3    H127725   4.251   5.340   1.423  0.3280 -0.4199  0.4068
 2078TIP3    H227726   4.184   5.365   1.289  0.4201 -0.0725  0.4246
 2079TIP3   OH227727   0.513   6.346   4.798  0.0085 -0.1279 -0.2438
 2079TIP3    H127728   0.524   6.251   4.790  0.6672  0.0177 -1.1253
 2079TIP3    H227729   0.496   6.360   4.891 -0.0508 -1.1078 -0.0995
 2080TIP3   OH227730   2.493   2.004   0.206  0.6578 -0.5209 -0.4606
 2080TIP3    H127731   2.464   1.926   0.255  1.9637 -1.0808 -0.5583
 2080TIP3    H227732   2.482   1.979   0.114  1.7562 -0.8653 -0.5038
 2081TIP3   OH227733   1.467   3.721  13.446  0.1798 -0.0056 -0.8116
 2081TIP3    H127734   1.548   3.745  13.490 -1.2503  2.6783  0.4195
 2081TIP3    H227735   1.416   3.675  13.512  0.3768 -1.0418 -1.3696
 2082TIP3   OH227736   2.738   0.176  16.748 -0.1562 -0.1445  0.4253
 2082TIP3    H127737   2.667   0.143  16.693  0.2185  0.1546 -0.2401
 2082TIP3    H227738   2.796   0.101  16.760  2.9289  1.2436 -4.5807
 2083TIP3   OH227739   2.343   4.128   4.970  0.4019 -0.3695 -0.6518
 2083TIP3    H127740   2.421   4.072   4.964  0.9952  0.5350 -1.6084
 2083TIP3    H227741   2.355   4.193   4.901 -1.0537 -0.0207 -0.5936
 2084TIP3   OH227742   3.956   5.011  11.974  0.3601 -0.3568 -0.4648
 2084TIP3    H127743   3.937   4.922  11.944  1.5284 -0.3584 -1.2564
 2084TIP3    H227744   3.963   5.062  11.894  3.4626 -0.3471 -0.2687
 2085TIP3   OH227745   5.985   0.623  11.740  0.5802  0.5928  0.0469
 2085TIP3    H127746   5.980   0.586  11.828  1.0857  1.7961  0.5949
 2085TIP3    H227747   5.940   0.707  11.747  0.8435  0.8043 -0.7924
 2086TIP3   OH227748   5.026   6.287   3.400  0.2854 -0.2057 -0.4433
 2086TIP3    H127749   4.959   6.327   3.455 -0.9118 -2.0058 -0.5335
 2086TIP3    H227750   5.049   6.354   3.336 -0.5331  0.8502  0.3644
 2087TIP3   OH227751   6.450   4.434  12.733 -0.0595 -0.4745  0.0523
 2087TIP3    H127752   6.471   4.522  12.765  0.5063 -0.3582 -0.6432
 2087TIP3    H227753   6.490   4.375  12.796 -1.7585 -0.2414  1.3929
 2088TIP3   OH227754   6.693   6.087   3.512  0.0698  0.5161  0.2253
 2088TIP3    H127755   6.763   6.099   3.447  0.1824  2.2322  0.6552
 2088TIP3    H227756   6.675   6.174   3.545 -1.7678 -0.0083  0.6847
 2089TIP3   OH227757   4.896   2.629  16.304 -0.5409  0.9242  0.4001
 2089TIP3    H127758   4.876   2.588  16.388 -1.0187  0.6811  0.1666
 2089TIP3    H227759   4.811   2.644  16.263 -0.2725  0.1922 -0.4377
 2090TIP3   OH227760   2.939   0.372  14.009  0.0182  0.1706 -0.2126
 2090TIP3    H127761   2.872   0.323  13.962  1.4297 -0.4415 -1.6222
 2090TIP3    H227762   3.001   0.400  13.941  1.2756  0.5790  1.0670
 2091TIP3   OH227763   4.187   3.644  11.544 -0.0626 -0.3897  0.0136
 2091TIP3    H127764   4.272   3.685  11.535 -1.1401  1.5569 -1.5545
 2091TIP3    H227765   4.192   3.566  11.489  1.0794 -0.9634  0.8955
 2092TIP3   OH227766   0.993   5.759   4.170  0.2520 -0.0462 -0.8083
 2092TIP3    H127767   1.009   5.776   4.263 -0.2137 -1.2874 -0.4891
 2092TIP3    H227768   0.951   5.839   4.138  1.2478  0.7420 -0.1725
 2093TIP3   OH227769   3.176   5.387  11.318 -0.0179  0.2107  0.1726
 2093TIP3    H127770   3.093   5.419  11.353  0.7471 -0.0775  2.3177
 2093TIP3    H227771   3.214   5.463  11.273 -2.2372 -0.1400 -2.4485
 2094TIP3   OH227772   6.224   5.924   3.479 -0.1989 -0.0134  0.0645
 2094TIP3    H127773   6.210   5.835   3.446 -1.4417  0.7003 -1.4081
 2094TIP3    H227774   6.174   5.927   3.560 -0.4864 -0.5261 -0.0871
 2095TIP3   OH227775   6.370   3.502  13.673  0.2963  0.2546  0.2421
 2095TIP3    H127776   6.465   3.496  13.663  0.2275 -0.4418  0.0175
 2095TIP3    H227777   6.334   3.456  13.597 -0.2223  0.6420  0.2479
 2096TIP3   OH227778   5.596   0.822  16.610  0.6326 -0.2480  0.1191
 2096TIP3    H127779   5.528   0.756  16.596  0.0866  0.8076 -2.3524
 2096TIP3    H227780   5.661   0.805  16.543  0.5661  1.6140 -0.4390
 2097TIP3   OH227781   0.778   1.401   1.650 -0.5462  0.4919 -0.5094
 2097TIP3    H127782   0.728   1.483   1.657  0.9404  1.4770 -1.2145
 2097TIP3    H227783   0.809   1.384   1.739 -0.2574  1.0942 -0.4936
 2098TIP3   OH227784   0.633   2.984  14.182 -0.0972  0.3303  0.3376
 2098TIP3    H127785   0.607   3.001  14.273  1.3386 -0.9991  1.0355
 2098TIP3    H227786   0.594   2.899  14.161  0.2285  0.2596  0.0054
 2099TIP3   OH227787   5.792   6.495   3.551  0.4068 -0.1047  0.3221
 2099TIP3    H127788   5.792   6.434   3.477 -1.3030  0.2625  0.0146
 2099TIP3    H227789   5.876   6.541   3.544  0.9460 -1.1768 -0.4510
 2100TIP3   OH227790   0.669   5.190   4.455  0.0360  0.4687 -0.0620
 2100TIP3    H127791   0.742   5.216   4.511 -0.8729  0.8091  0.9825
 2100TIP3    H227792   0.669   5.254   4.384 -0.2811  1.4755  0.8421
 2101TIP3   OH227793   5.438   2.413  12.146  0.2245  0.1675  0.3045
 2101TIP3    H127794   5.369   2.401  12.081 -0.6997 -0.2927  1.3607
 2101TIP3    H227795   5.451   2.508  12.148  0.3167  0.1819 -0.6015
 2102TIP3   OH227796   4.357   1.282  16.050  0.1565  0.0606  0.3049
 2102TIP3    H127797   4.281   1.227  16.067  0.7359 -0.5361  1.0465
 2102TIP3    H227798   4.430   1.233  16.088  1.0851  0.0837 -1.4072
 2103TIP3   OH227799   0.713   6.812   5.989 -0.1499 -0.0788  0.5200
 2103TIP3    H127800   0.654   6.860   6.047 -0.1203 -1.4702  1.7393
 2103TIP3    H227801   0.778   6.877   5.962 -0.4246  0.6997  1.6959
 2104TIP3   OH227802   6.250   1.877  12.944 -0.3615  0.3103 -0.8458
 2104TIP3    H127803   6.333   1.873  12.992 -0.3872 -0.1703 -0.8401
 2104TIP3    H227804   6.192   1.817  12.991  0.2072 -1.6950 -2.6037
 2105TIP3   OH227805   1.615   6.516   5.568  0.0178  0.0404 -0.0874
 2105TIP3    H127806   1.588   6.509   5.477  0.9335 -3.1446 -0.1640
 2105TIP3    H227807   1.572   6.443   5.612  1.3663  0.1839  1.5531
 2106TIP3   OH227808   1.980   3.388   1.043  0.4071  0.1300  0.4092
 2106TIP3    H127809   2.018   3.403   0.957  0.1154 -0.2246  0.2183
 2106TIP3    H227810   1.885   3.386   1.027  0.3055  0.9085  0.8607
 2107TIP3   OH227811   2.039   6.728  13.917 -0.0236 -0.4338 -0.3841
 2107TIP3    H127812   1.987   6.668  13.863 -0.8013 -0.9509  0.9049
 2107TIP3    H227813   1.999   6.721  14.004  0.4013  1.3462 -0.0382
 2108TIP3   OH227814   3.161   3.975  16.927 -0.6232 -0.2194  0.2224
 2108TIP3    H127815   3.128   3.901  16.876 -0.3298  0.2139 -0.6149
 2108TIP3    H227816   3.140   3.954  17.018 -1.8332 -0.6524 -0.1490
 2109TIP3   OH227817   6.302   2.302  15.695  0.2512  0.1250 -0.3587
 2109TIP3    H127818   6.245   2.376  15.715  1.1255  1.0936 -1.3396
 2109TIP3    H227819   6.365   2.300  15.768  0.4778  0.6190 -0.5361
 2110TIP3   OH227820   4.641   0.066  16.605  0.9373  0.2995  0.0664
 2110TIP3    H127821   4.616   0.051  16.697  1.5840  0.3146  0.2503
 2110TIP3    H227822   4.563   0.104  16.565  0.4114 -0.3709  0.4401
 2111TIP3   OH227823   4.788   3.290  10.634 -0.3918  0.0570 -0.1541
 2111TIP3    H127824   4.714   3.298  10.574 -0.4764 -1.6791 -0.3098
 2111TIP3    H227825   4.817   3.199  10.625  1.0819  0.4207  0.7023
 2112TIP3   OH227826   0.184   5.573   5.028  0.9068  0.4700 -0.2026
 2112TIP3    H127827   0.246   5.561   5.100  0.8381  1.0968 -0.0364
 2112TIP3    H227828   0.106   5.611   5.070  0.1483 -0.9430 -0.2990
 2113TIP3   OH227829   2.599   1.712   4.946  0.3893  0.0124  0.0149
 2113TIP3    H127830   2.583   1.765   5.024  0.4096 -0.7250  0.5269
 2113TIP3    H227831   2.633   1.629   4.980  0.5632 -0.2513 -0.7876
 2114TIP3   OH227832   2.292   6.280   2.289 -0.3313  0.3126 -0.1932
 2114TIP3    H127833   2.381   6.279   2.254 -0.5371  3.5586 -0.9095
 2114TIP3    H227834   2.276   6.371   2.312 -3.0955 -0.4154  0.9397
 2115TIP3   OH227835   0.501   0.138  11.715 -0.1869 -0.3070  0.3291
 2115TIP3    H127836   0.548   0.200  11.772  0.0189 -0.4890  0.3586
 2115TIP3    H227837   0.570   0.083  11.678 -0.4512 -1.0429  0.9381
 2116TIP3   OH227838   0.967   1.624   2.549  0.0540 -0.2293 -0.7325
 2116TIP3    H127839   0.877   1.637   2.519 -0.1999  2.4434  1.0562
 2116TIP3    H227840   0.959   1.597   2.640  1.0777  3.1359  0.4251
 2117TIP3   OH227841   0.669   0.971  11.302  0.4763  0.2434 -0.1332
 2117TIP3    H127842   0.690   0.883  11.272  0.4553  0.2689 -0.2226
 2117TIP3    H227843   0.680   1.027  11.224 -0.7132  0.1346 -0.3896
 2118TIP3   OH227844   5.309   2.252   0.297  0.8116 -0.2619 -0.1056
 2118TIP3    H127845   5.287   2.173   0.346  1.1920 -1.1417 -1.3398
 2118TIP3    H227846   5.342   2.313   0.364 -1.7381 -0.2561  1.2027
 2119TIP3   OH227847   1.876   1.811   1.842  0.0746 -0.7022  0.2114
 2119TIP3    H127848   1.840   1.830   1.756  1.0053  0.3426  0.0405
 2119TIP3    H227849   1.915   1.894   1.871  1.0637 -1.4208  0.9936
 2120TIP3   OH227850   1.034   4.928  15.905  0.7357  0.5903 -0.0899
 2120TIP3    H127851   1.072   4.934  15.993 -0.6864  1.3303  0.4860
 2120TIP3    H227852   1.022   5.019  15.878  1.2439  0.3646 -1.0941
 2121TIP3   OH227853   4.593   5.695  12.470  0.1266 -0.0537 -0.2633
 2121TIP3    H127854   4.536   5.763  12.434  1.0131  0.3415 -0.9192
 2121TIP3    H227855   4.540   5.653  12.538 -1.4785 -0.6441 -1.8369
 2122TIP3   OH227856   6.655   2.461   0.599 -0.3278 -0.0245  0.1434
 2122TIP3    H127857   6.706   2.385   0.629 -0.1719 -0.5496 -1.3941
 2122TIP3    H227858   6.622   2.501   0.679 -0.5023 -1.7959  0.9762
 2123TIP3   OH227859   2.043   6.469   0.346  0.0131  0.1777 -0.3565
 2123TIP3    H127860   2.063   6.534   0.278  0.4118  0.2865 -0.1364
 2123TIP3    H227861   1.971   6.508   0.396  0.0589  0.3235 -0.4043
 2124TIP3   OH227862   2.669   5.557  16.121  0.5576  0.3592 -0.0126
 2124TIP3    H127863   2.672   5.616  16.197 -0.6811  1.3428 -0.6978
 2124TIP3    H227864   2.592   5.503  16.136  0.5285  0.2993 -0.3896
 2125TIP3   OH227865   3.999   3.777   4.992 -0.1065  0.2985  0.6546
 2125TIP3    H127866   4.085   3.768   4.950 -0.4096  0.9421 -0.1212
 2125TIP3    H227867   3.939   3.794   4.920 -1.2238 -2.0913  0.9716
 2126TIP3   OH227868   6.334   2.120   3.143 -0.0126  0.3079 -0.3617
 2126TIP3    H127869   6.332   2.212   3.167 -0.4122  0.3969 -0.7326
 2126TIP3    H227870   6.420   2.107   3.103  0.8765  0.0380  1.5755
 2127TIP3   OH227871   3.326   2.102   2.552 -0.3743  0.1993 -0.2389
 2127TIP3    H127872   3.252   2.105   2.614  0.9308 -0.6852  1.4053
 2127TIP3    H227873   3.285   2.090   2.467 -2.1905  0.6502  0.5304
 2128TIP3   OH227874   2.062   2.429   0.088 -0.7079  0.3595  0.1194
 2128TIP3    H127875   2.074   2.346   0.043  0.5315  0.1961  0.7260
 2128TIP3    H227876   1.968   2.431   0.110 -1.3499  0.5253 -2.5479
 2129TIP3   OH227877   2.843   2.684  12.827  0.0991 -0.4029  0.1327
 2129TIP3    H127878   2.773   2.726  12.878  1.0246 -0.1120  1.1938
 2129TIP3    H227879   2.921   2.694  12.882  0.7595 -1.6645 -0.5622
 2130TIP3   OH227880   3.612   5.341  15.482 -0.6965 -0.2585  1.0163
 2130TIP3    H127881   3.610   5.334  15.387  1.4156 -2.9872  1.0960
 2130TIP3    H227882   3.533   5.297  15.512 -0.8881 -0.2289  0.5479
 2131TIP3   OH227883   5.766   1.389   5.844  0.3401  0.5285  0.2236
 2131TIP3    H127884   5.697   1.425   5.789  0.8702  0.7709 -0.3007
 2131TIP3    H227885   5.819   1.464   5.868  0.4182  0.3451  0.6188
 2132TIP3   OH227886   4.959   6.126   2.923  0.8349  0.0386  0.0055
 2132TIP3    H127887   4.959   6.219   2.899  0.1578 -0.2360 -1.0991
 2132TIP3    H227888   4.866   6.105   2.937  0.9977 -0.4378  0.3706
 2133TIP3   OH227889   1.577   1.945  12.367  0.0050  0.0135 -0.1941
 2133TIP3    H127890   1.602   1.990  12.448  0.7464 -0.8053  0.0459
 2133TIP3    H227891   1.563   2.015  12.304 -1.5524  0.7189  0.8990
 2134TIP3   OH227892   5.838   6.479   5.251  0.2737 -0.1642  0.2306
 2134TIP3    H127893   5.924   6.461   5.212  1.3417  1.7754  1.6227
 2134TIP3    H227894   5.805   6.393   5.276  1.1513 -1.0855 -1.6272
 2135TIP3   OH227895   0.163   3.343   2.941 -0.0404  0.3682 -0.5807
 2135TIP3    H127896   0.242   3.330   2.994 -0.4998 -0.5341 -0.0896
 2135TIP3    H227897   0.107   3.398   2.996 -0.4235 -0.3774 -0.2126
 2136TIP3   OH227898   4.224   2.613   0.808  0.1311  0.0852 -0.3880
 2136TIP3    H127899   4.300   2.559   0.790 -0.2216 -0.0287 -1.5399
 2136TIP3    H227900   4.195   2.644   0.723 -1.3585 -0.1991  0.0013
 2137TIP3   OH227901   3.822   5.861   0.969  0.6163  0.7087  0.1299
 2137TIP3    H127902   3.908   5.822   0.986  0.3908 -0.8838 -2.0948
 2137TIP3    H227903   3.760   5.806   1.016  0.6981  1.0623  0.6502
 2138TIP3   OH227904   1.452   2.661   2.441 -0.5710 -0.3100 -0.0355
 2138TIP3    H127905   1.472   2.568   2.427  1.5601 -0.1286  1.5311
 2138TIP3    H227906   1.447   2.670   2.537 -0.3340  1.2613 -0.1637
 2139TIP3   OH227907   2.829   5.232   6.151 -0.3809 -0.2957 -0.5785
 2139TIP3    H127908   2.892   5.303   6.163 -1.0352  0.4624 -1.5370
 2139TIP3    H227909   2.790   5.219   6.237  1.0124 -0.7278  0.0128
 2140TIP3   OH227910   5.063   4.433  14.074 -0.5990  0.2713  0.4254
 2140TIP3    H127911   5.154   4.405  14.063 -1.2237 -1.3646 -0.9844
 2140TIP3    H227912   5.054   4.511  14.019 -0.0201  0.5084  0.6708
 2141TIP3   OH227913   6.691   6.724   1.269 -0.5255  0.0352 -1.0247
 2141TIP3    H127914   6.604   6.685   1.272 -0.0336 -0.9793  0.3666
 2141TIP3    H227915   6.688   6.794   1.335  0.3879 -1.4701  0.6563
 2142TIP3   OH227916   1.012   3.894   4.785  0.1601  0.2788  0.3322
 2142TIP3    H127917   0.949   3.913   4.715  0.3473 -0.1189  0.0525
 2142TIP3    H227918   1.093   3.872   4.739  0.0751 -0.7462  0.6571
 2143TIP3   OH227919   4.426   3.822  15.450 -0.4000 -0.6865  0.3785
 2143TIP3    H127920   4.379   3.777  15.381 -0.4659 -2.5599  1.6035
 2143TIP3    H227921   4.367   3.892  15.478 -0.7467 -0.4965 -0.8129
 2144TIP3   OH227922   2.733   0.297   0.667  0.3723 -0.1783  0.2885
 2144TIP3    H127923   2.794   0.281   0.595  2.2553 -2.6727  2.3015
 2144TIP3    H227924   2.717   0.210   0.704 -2.9140  0.6883  1.0277
 2145TIP3   OH227925   0.315   1.398   4.696  0.1523  0.6359  0.2404
 2145TIP3    H127926   0.313   1.403   4.600 -0.4509 -0.6125  0.1711
 2145TIP3    H227927   0.320   1.489   4.725 -0.1129  1.0501 -0.9690
 2146TIP3   OH227928   5.757   4.013  14.894 -0.3967  0.3567  0.8756
 2146TIP3    H127929   5.680   3.968  14.929 -1.4266  1.9784  0.7738
 2146TIP3    H227930   5.732   4.106  14.894  0.3143  0.5982 -2.2187
 2147TIP3   OH227931   4.948   3.075  14.651  0.3754 -0.0005  0.1387
 2147TIP3    H127932   4.884   3.006  14.634  0.3467  0.2849 -0.9745
 2147TIP3    H227933   4.913   3.123  14.726 -1.1489  0.6796 -0.9935
 2148TIP3   OH227934   2.670   2.164   5.104  0.3413  0.2495  0.2590
 2148TIP3    H127935   2.754   2.192   5.068  0.2859  0.7084  0.4817
 2148TIP3    H227936   2.615   2.147   5.028  0.6042  0.0604  0.1160
 2149TIP3   OH227937   2.304   4.410   1.749 -0.6860  0.2916 -0.9014
 2149TIP3    H127938   2.365   4.396   1.677 -0.1607 -0.2038 -0.3622
 2149TIP3    H227939   2.336   4.489   1.792  0.1375 -0.5074 -0.0418
 2150TIP3   OH227940   4.667   4.252   3.859  0.3383 -0.6367  0.9148
 2150TIP3    H127941   4.760   4.272   3.864  0.0745  0.5571  1.0489
 2150TIP3    H227942   4.625   4.310   3.923 -0.3868 -1.9201  1.6289
 2151TIP3   OH227943   0.511   3.786  13.218  0.2104 -0.8380  0.0629
 2151TIP3    H127944   0.520   3.850  13.148  0.5973  0.1192  0.9834
 2151TIP3    H227945   0.570   3.817  13.287  0.3221 -2.1199  0.5593
 2152TIP3   OH227946   2.288   6.598  11.864 -0.6467 -0.9210 -0.1851
 2152TIP3    H127947   2.212   6.635  11.909 -0.2856 -1.3542  0.8225
 2152TIP3    H227948   2.314   6.664  11.801 -2.5165 -1.2142 -1.3013
 2153TIP3   OH227949   0.680   2.290  13.298  0.3244 -0.1321 -0.4476
 2153TIP3    H127950   0.716   2.241  13.224  0.8033  2.9556 -2.3131
 2153TIP3    H227951   0.756   2.325  13.344 -0.0355 -0.5712  0.5126
 2154TIP3   OH227952   1.185   3.234   2.144  0.2628  0.0079 -0.0788
 2154TIP3    H127953   1.211   3.263   2.232  1.1200 -0.0835 -0.2938
 2154TIP3    H227954   1.152   3.146   2.156  1.1096 -0.2971  0.0419
 2155TIP3   OH227955   3.492   4.395   4.201  0.0736 -0.3454 -0.2036
 2155TIP3    H127956   3.440   4.428   4.274 -0.1986 -1.8400  0.2901
 2155TIP3    H227957   3.512   4.473   4.149 -5.0693 -0.1121 -2.0084
 2156TIP3   OH227958   3.335   6.674  14.062 -0.0333 -0.0370 -0.1489
 2156TIP3    H127959   3.243   6.697  14.067 -0.2608 -1.0788  0.7249
 2156TIP3    H227960   3.374   6.713  14.140  0.4803  1.3095 -1.0661
 2157TIP3   OH227961   2.001   2.368  15.188  0.6173 -0.0589  0.6951
 2157TIP3    H127962   2.062   2.425  15.141 -0.2604  1.4324  1.3318
 2157TIP3    H227963   2.051   2.288  15.205  2.0307  0.7128  0.2562
 2158TIP3   OH227964   0.506   6.362  13.820 -0.3712  0.0185 -0.1347
 2158TIP3    H127965   0.417   6.395  13.814 -0.0516  0.6362 -1.8732
 2158TIP3    H227966   0.530   6.374  13.912 -1.8640  0.3730  0.2275
 2159TIP3   OH227967   2.600   2.504  16.219 -0.0839  0.0957  0.3943
 2159TIP3    H127968   2.579   2.567  16.288 -1.6018  0.6284 -0.5340
 2159TIP3    H227969   2.696   2.503  16.217 -0.0212  2.1546  0.6341
 2160TIP3   OH227970   6.701   1.098   6.425  0.5292 -0.2861  0.2887
 2160TIP3    H127971   6.759   1.049   6.367 -1.8352 -1.2656 -1.3288
 2160TIP3    H227972   6.617   1.098   6.381 -0.5653  1.7201  2.2425
 2161TIP3   OH227973   2.292   5.495  15.092 -0.0817  0.3280 -0.6655
 2161TIP3    H127974   2.246   5.578  15.086 -0.0062  0.2532 -2.5631
 2161TIP3    H227975   2.378   5.517  15.129 -0.5529  0.8953  0.0793
 2162TIP3   OH227976   2.115   5.786   1.755  0.6481  0.3157  0.4418
 2162TIP3    H127977   2.080   5.796   1.667  0.7677  1.6227  0.5431
 2162TIP3    H227978   2.200   5.828   1.752  1.3022 -0.9489  0.7877
 2163TIP3   OH227979   1.183   5.935  10.748 -0.2673  0.1107  0.3170
 2163TIP3    H127980   1.119   6.004  10.763 -0.4250 -0.0107  0.1956
 2163TIP3    H227981   1.224   5.920  10.833  0.1635  0.7512  0.2239
 2164TIP3   OH227982   5.092   0.177  13.453  0.6220 -0.0948  0.1326
 2164TIP3    H127983   5.023   0.228  13.411 -1.1747 -1.6624  1.1192
 2164TIP3    H227984   5.140   0.137  13.381  0.8933  1.4835 -0.5835
 2165TIP3   OH227985   1.394   3.549   0.481 -0.2749 -0.0935 -0.1303
 2165TIP3    H127986   1.419   3.620   0.540 -0.0262 -0.4529  0.2018
 2165TIP3    H227987   1.406   3.469   0.533  0.9033 -0.4853 -0.9647
 2166TIP3   OH227988   3.357   5.768  11.708  0.3013 -0.2239 -0.1525
 2166TIP3    H127989   3.398   5.690  11.670 -1.5652 -2.8250  2.8911
 2166TIP3    H227990   3.391   5.771  11.797 -0.6422  1.7401  0.1527
 2167TIP3   OH227991   5.520   0.651   5.416  0.2807  0.5592  0.5584
 2167TIP3    H127992   5.454   0.585   5.440  1.1764  0.0269  1.6403
 2167TIP3    H227993   5.480   0.735   5.439 -0.9515  0.4131 -1.0127
 2168TIP3   OH227994   5.644   2.505   0.932  0.4140  0.4898 -0.0368
 2168TIP3    H127995   5.614   2.593   0.909 -1.6239  0.2506  1.6161
 2168TIP3    H227996   5.575   2.447   0.902  0.7064 -0.3482  0.8904
 2169TIP3   OH227997   1.731   1.431   1.664  0.0679  0.6749  0.1039
 2169TIP3    H127998   1.728   1.344   1.703 -0.2021  0.2741 -0.8028
 2169TIP3    H227999   1.818   1.464   1.687 -0.3011  0.6859  1.5375
 2170TIP3   OH228000   3.968   5.463   2.752 -0.1794 -0.5186 -0.2325
 2170TIP3    H128001   3.948   5.552   2.783  2.2703  0.1317 -0.4529
 2170TIP3    H228002   3.951   5.407   2.828 -0.5013  0.2946  0.2993
 2171TIP3   OH228003   0.494   2.095   0.952  0.3820  0.1504 -0.0527
 2171TIP3    H128004   0.487   2.186   0.925 -0.5666 -0.1957 -1.0114
 2171TIP3    H228005   0.561   2.058   0.896 -0.3618 -0.1351 -0.7611
 2172TIP3   OH228006   4.086   6.660   2.515 -0.0768  0.3263 -0.4270
 2172TIP3    H128007   4.127   6.639   2.599 -1.4770 -0.4007  0.1055
 2172TIP3    H228008   4.144   6.725   2.475  0.3660  1.0302  1.3028
 2173TIP3   OH228009   1.114   4.456   3.513 -0.5433 -0.0445 -0.4945
 2173TIP3    H128010   1.032   4.471   3.467 -1.6128 -0.7100  1.1270
 2173TIP3    H228011   1.137   4.365   3.493 -0.2624  0.0986 -0.8351
 2174TIP3   OH228012   2.124   0.537   2.503 -0.1947 -0.1014  0.0080
 2174TIP3    H128013   2.031   0.561   2.503 -0.0910  0.3197 -0.8963
 2174TIP3    H228014   2.138   0.496   2.417  0.7905  1.2019 -0.4792
 2175TIP3   OH228015   2.400   6.177  16.001  0.1595  0.1703 -0.0577
 2175TIP3    H128016   2.333   6.120  16.040  1.2380 -0.0827  1.4366
 2175TIP3    H228017   2.375   6.265  16.029  0.1446  0.1381  0.0318
 2176TIP3   OH228018   6.310   4.338   3.625 -0.3972 -0.5243  0.9754
 2176TIP3    H128019   6.355   4.362   3.706  1.3098  1.0552 -0.4104
 2176TIP3    H228020   6.356   4.386   3.556 -0.8621 -3.0112 -1.1471
 2177TIP3   OH228021   3.860   1.205   4.051  0.0064  0.2508  0.5841
 2177TIP3    H128022   3.875   1.232   4.141  0.1967  0.7972  0.3875
 2177TIP3    H228023   3.824   1.116   4.058 -1.3299  0.8230  1.2631
 2178TIP3   OH228024   1.534   2.183   1.111  0.0018 -0.1440 -0.4169
 2178TIP3    H128025   1.543   2.120   1.183 -0.6069 -0.6040 -0.7449
 2178TIP3    H228026   1.598   2.155   1.046  2.0582  1.4856  0.7953
 2179TIP3   OH228027   2.215   4.809  14.334  0.2745  0.1862  0.1462
 2179TIP3    H128028   2.204   4.877  14.267 -0.1376  0.4447  0.4722
 2179TIP3    H228029   2.223   4.728  14.284  2.4046  0.6588 -0.3106
 2180TIP3   OH228030   6.402   3.802   5.601 -0.5807  1.5144 -0.4938
 2180TIP3    H128031   6.477   3.844   5.557  2.4101 -2.4221  0.5303
 2180TIP3    H228032   6.429   3.796   5.693 -1.6232 -0.9946 -0.3222
 2181TIP3   OH228033   4.418   6.327   4.248  0.8928  0.2756  0.7977
 2181TIP3    H128034   4.376   6.404   4.287 -0.4728  1.1196 -2.2570
 2181TIP3    H228035   4.363   6.254   4.275 -1.5213  1.1568 -1.5786
 2182TIP3   OH228036   0.312   4.945  15.332  0.5665  0.8893 -0.0789
 2182TIP3    H128037   0.253   4.903  15.269  0.0570  0.5484  0.6152
 2182TIP3    H228038   0.268   5.028  15.352  0.5568  0.8415  0.0933
 2183TIP3   OH228039   3.246   3.865  16.446 -0.0973 -0.5928  0.3183
 2183TIP3    H128040   3.341   3.880  16.455 -0.0593 -1.0732  0.7460
 2183TIP3    H228041   3.221   3.917  16.370  0.6465 -1.0501 -0.2494
 2184TIP3   OH228042   5.412   2.555   6.338 -0.2911 -0.2323 -0.1555
 2184TIP3    H128043   5.382   2.472   6.377  0.5825 -1.0901 -1.2680
 2184TIP3    H228044   5.498   2.569   6.376 -0.5498  0.3058  0.2295
 2185TIP3   OH228045   0.878   4.914  14.426 -0.3391 -0.0991  0.0005
 2185TIP3    H128046   0.849   4.912  14.517  0.4503 -0.2309  0.2548
 2185TIP3    H228047   0.959   4.964  14.427  0.9750 -2.1591 -0.2432
 2186TIP3   OH228048   1.527   2.647   1.965  0.1350  0.0450 -0.5402
 2186TIP3    H128049   1.598   2.611   1.913  0.7022  1.0256 -0.4642
 2186TIP3    H228050   1.529   2.741   1.946 -0.5183  0.2107  0.1959
 2187TIP3   OH228051   0.555   3.429   0.166  0.0490 -0.1611 -0.4736
 2187TIP3    H128052   0.598   3.514   0.161 -1.4886  0.7810  1.5927
 2187TIP3    H228053   0.627   3.366   0.169  1.2106  1.0753 -1.5824
 2188TIP3   OH228054   3.490   5.084  13.936 -0.1728 -0.5625 -0.4501
 2188TIP3    H128055   3.575   5.121  13.958 -0.0418  0.2222 -2.1829
 2188TIP3    H228056   3.430   5.117  14.003  0.3020  1.3091 -0.9301
 2189TIP3   OH228057   0.159   5.041   2.089 -0.3002  0.3009 -0.6410
 2189TIP3    H128058   0.137   5.039   2.183 -0.3289 -0.1310 -0.6563
 2189TIP3    H228059   0.123   5.125   2.058  0.9978  1.1260  0.0427
 2190TIP3   OH228060   0.719   6.614   4.068  0.2158  0.4056 -0.1121
 2190TIP3    H128061   0.787   6.636   4.131 -0.5008 -1.1120  1.2172
 2190TIP3    H228062   0.643   6.592   4.121 -0.8198  0.4245 -1.5431
 2191TIP3   OH228063   2.679   3.159  13.298  0.3689 -0.4573 -0.0819
 2191TIP3    H128064   2.620   3.221  13.341  0.6033  0.5992 -1.2400
 2191TIP3    H228065   2.675   3.080  13.351  1.1120  1.0098  2.2317
 2192TIP3   OH228066   1.944   2.276   3.734 -0.4439 -0.2450 -0.5971
 2192TIP3    H128067   1.896   2.347   3.775 -2.1933 -0.7157 -1.8137
 2192TIP3    H228068   2.034   2.309   3.726 -0.9503  1.3150  0.0077
 2193TIP3   OH228069   6.633   1.674   3.316  0.5148 -0.0206 -0.1232
 2193TIP3    H128070   6.697   1.634   3.256  0.7261  0.7850 -0.4417
 2193TIP3    H228071   6.656   1.767   3.316 -0.0406  0.1150  0.5340
 2194TIP3   OH228072   6.818   3.241   6.552  0.4349  0.6727  0.2604
 2194TIP3    H128073   6.766   3.319   6.532 -1.4622 -0.2667  1.4444
 2194TIP3    H228074   6.838   3.203   6.467 -2.2643  0.1249 -0.1678
 2195TIP3   OH228075   5.486   2.944   3.901  0.7178 -0.3202 -0.3119
 2195TIP3    H128076   5.537   2.926   3.822  1.5343  1.2677 -0.1761
 2195TIP3    H228077   5.543   3.001   3.953 -1.5865  2.4267 -0.6507
 2196TIP3   OH228078   1.232   1.751   6.122  0.5051  0.2389 -0.3285
 2196TIP3    H128079   1.269   1.824   6.072 -0.8146  0.8447 -0.4459
 2196TIP3    H228080   1.164   1.792   6.176 -1.8335 -1.2250 -2.0466
 2197TIP3   OH228081   0.945   4.512   6.830 -0.3226 -0.3039 -0.2915
 2197TIP3    H128082   0.868   4.553   6.791 -1.1595 -0.1256  1.5304
 2197TIP3    H228083   0.948   4.425   6.791  0.4685  0.8189 -2.8668
 2198TIP3   OH228084   3.805   5.384  10.432 -0.5897 -0.0395 -0.7492
 2198TIP3    H128085   3.873   5.361  10.369 -1.4307  0.0273 -1.7010
 2198TIP3    H228086   3.802   5.479  10.432 -0.7408 -0.0437 -0.7731
 2199TIP3   OH228087   5.655   2.454   2.897 -0.2785 -0.0906 -0.3587
 2199TIP3    H128088   5.603   2.529   2.928  1.0929  0.1790  1.3877
 2199TIP3    H228089   5.604   2.377   2.924 -0.6451  0.1908 -0.2454
 2200TIP3   OH228090   1.733   5.926  11.815  0.3231  0.2003  0.4146
 2200TIP3    H128091   1.652   5.888  11.850  0.1034  1.9702  1.8736
 2200TIP3    H228092   1.703   5.994  11.754  0.7127  0.6214  0.6930
 2201TIP3   OH228093   1.162   1.456  15.654 -0.8717 -0.3528  0.2945
 2201TIP3    H128094   1.128   1.435  15.567 -1.2478 -0.8320  0.5554
 2201TIP3    H228095   1.115   1.536  15.679  0.9427  1.1598 -0.9200
 2202TIP3   OH228096   0.535   3.862  14.452 -0.7173  0.1704 -0.2541
 2202TIP3    H128097   0.477   3.792  14.479 -2.1032  0.6142 -1.9807
 2202TIP3    H228098   0.488   3.943  14.474 -0.3100  0.5393 -0.7170
 2203TIP3   OH228099   1.343   1.352  11.212  0.1494 -0.2191 -1.0788
 2203TIP3    H128100   1.409   1.360  11.143  0.2579  0.9224 -0.8517
 2203TIP3    H228101   1.271   1.407  11.181 -0.1368 -0.3670 -0.6685
 2204TIP3   OH228102   4.383   0.086  16.479  0.1807 -0.0197 -0.0934
 2204TIP3    H128103   4.342   0.109  16.396  0.9267  2.0036  0.0731
 2204TIP3    H228104   4.311   0.089  16.542 -0.2746 -0.9957 -0.5487
 2205TIP3   OH228105   2.229   1.003  12.010  0.0601 -0.3738  0.1229
 2205TIP3    H128106   2.256   0.913  12.030  3.3736 -0.2071 -3.0204
 2205TIP3    H228107   2.143   0.993  11.968 -0.6004 -1.8243  1.7559
 2206TIP3   OH228108   0.772   4.553  14.183  0.1076 -0.2550 -0.4310
 2206TIP3    H128109   0.803   4.608  14.111  3.8785 -1.2404  0.3107
 2206TIP3    H228110   0.819   4.585  14.260 -1.1948 -1.4888  0.9135
 2207TIP3   OH228111   4.594   0.886   2.758 -0.5274 -0.1015  0.5230
 2207TIP3    H128112   4.641   0.881   2.674 -2.3334 -1.9473 -0.4347
 2207TIP3    H228113   4.637   0.820   2.813  0.2812  0.6983  0.8486
 2208TIP3   OH228114   5.262   4.515  13.833  0.0048  0.3193 -0.2970
 2208TIP3    H128115   5.193   4.464  13.790 -0.5489  0.1435  0.7801
 2208TIP3    H228116   5.217   4.563  13.903  1.0451 -0.1642  0.7326
 2209TIP3   OH228117   3.801   3.383  12.437  0.6724 -0.3791  0.3140
 2209TIP3    H128118   3.876   3.435  12.411  1.0230 -0.3209  1.4078
 2209TIP3    H228119   3.727   3.422  12.390  1.4738 -1.0818 -1.5538
 2210TIP3   OH228120   6.104   1.596  11.300 -0.5968  0.6293 -1.1357
 2210TIP3    H128121   6.129   1.609  11.391  1.8144  3.7509 -2.1361
 2210TIP3    H228122   6.162   1.527  11.268 -0.3390  0.6459 -0.7018
 2211TIP3   OH228123   5.658   2.419  16.369  0.5768 -0.1895 -0.0068
 2211TIP3    H128124   5.743   2.390  16.402  0.6088 -0.2738 -0.1690
 2211TIP3    H228125   5.673   2.443  16.278  0.3929 -0.3512 -0.0815
 2212TIP3   OH228126   3.062   4.135   1.598 -0.0304 -0.2230 -0.0270
 2212TIP3    H128127   3.151   4.152   1.630  0.0165 -1.0286  0.2857
 2212TIP3    H228128   3.071   4.132   1.503 -0.2072  2.3894 -0.1550
 2213TIP3   OH228129   1.919   3.145   6.734 -0.2541  0.0898 -0.4902
 2213TIP3    H128130   1.980   3.082   6.696 -1.3517 -0.7291 -0.9100
 2213TIP3    H228131   1.973   3.200   6.790  0.8266 -0.7984 -0.6543
 2214TIP3   OH228132   6.347   0.576  14.228 -0.3736 -0.5721 -0.4796
 2214TIP3    H128133   6.400   0.582  14.308 -1.3921 -0.0833  0.1654
 2214TIP3    H228134   6.326   0.667  14.207 -2.7586 -0.8584  0.5022
 2215TIP3   OH228135   0.820   5.627   2.672  0.4093 -0.2079  0.5172
 2215TIP3    H128136   0.825   5.721   2.690  0.7710  0.1978 -1.5910
 2215TIP3    H228137   0.790   5.589   2.755 -0.6230  1.8614  1.1463
 2216TIP3   OH228138   5.033   1.510   2.204  0.3982 -0.5356 -0.4255
 2216TIP3    H128139   5.125   1.490   2.222 -0.2354 -1.9308  1.3654
 2216TIP3    H228140   4.998   1.430   2.163 -0.3970 -0.5876  0.3339
 2217TIP3   OH228141   6.818   0.239   5.707  0.0376 -0.0443 -0.1388
 2217TIP3    H128142   6.826   0.157   5.659  2.2930 -0.0982  0.2926
 2217TIP3    H228143   6.901   0.284   5.692 -0.7790  1.7311  0.4519
 2218TIP3   OH228144   2.046   0.538   6.845 -0.1721  0.2319 -0.4667
 2218TIP3    H128145   1.957   0.550   6.880 -0.0115  0.4392 -0.1261
 2218TIP3    H228146   2.035   0.542   6.750 -0.5952 -0.2109 -0.4437
 2219TIP3   OH228147   1.655   5.787   0.448  0.1546  0.2278  0.4917
 2219TIP3    H128148   1.647   5.751   0.359  1.1535  0.9319  0.1049
 2219TIP3    H228149   1.630   5.715   0.505 -0.1484 -0.3478 -0.3454
 2220TIP3   OH228150   3.173   4.165   2.755  0.0329  0.0243  0.6813
 2220TIP3    H128151   3.125   4.246   2.737  0.4247  0.3707  1.1757
 2220TIP3    H228152   3.113   4.095   2.730 -1.2719  0.4175  2.5949
 2221TIP3   OH228153   1.279   0.259  12.351 -0.2175 -0.1382 -0.3190
 2221TIP3    H128154   1.221   0.195  12.309 -1.4567 -0.4419  1.7347
 2221TIP3    H228155   1.332   0.206  12.411 -0.5205  0.6019  0.6192
 2222TIP3   OH228156   1.170   4.161  16.760 -0.1492 -0.5031 -0.2063
 2222TIP3    H128157   1.090   4.112  16.779 -1.1100  0.8022 -0.7638
 2222TIP3    H228158   1.221   4.103  16.704 -1.4883 -0.6907 -1.2552
 2223TIP3   OH228159   5.414   4.970  15.069  0.1727  0.2816  0.0021
 2223TIP3    H128160   5.376   4.897  15.019 -0.4992 -0.5093  1.6489
 2223TIP3    H228161   5.348   4.992  15.134  1.8080  0.0178  1.8135
 2224TIP3   OH228162   4.403   3.307   3.261  0.0900  0.9400  0.6223
 2224TIP3    H128163   4.389   3.369   3.189  1.1724 -0.2739 -0.6541
 2224TIP3    H228164   4.464   3.351   3.320  2.0717  0.5346 -1.0510
 2225TIP3   OH228165   5.217   4.793   3.757 -0.4297  0.3636  0.0002
 2225TIP3    H128166   5.297   4.742   3.769 -0.1242  1.1360  1.3961
 2225TIP3    H228167   5.159   4.763   3.827 -1.0064  0.4752 -0.4309
 2226TIP3   OH228168   2.762   0.773  13.329  0.2601 -0.0232  0.1577
 2226TIP3    H128169   2.843   0.725  13.347 -0.1518 -1.0681 -0.6977
 2226TIP3    H228170   2.756   0.776  13.234 -0.4713  0.4632  0.2122
 2227TIP3   OH228171   3.747   0.623  13.736 -0.7191  0.5807 -0.3390
 2227TIP3    H128172   3.834   0.630  13.698 -0.6292 -0.0456 -0.2489
 2227TIP3    H228173   3.754   0.666  13.821  0.0374 -1.2717  0.5595
 2228TIP3   OH228174   1.837   5.330   3.743  0.0297  0.6877  0.1131
 2228TIP3    H128175   1.894   5.255   3.727  0.7961  0.6752  2.6817
 2228TIP3    H228176   1.894   5.406   3.738 -0.1775  0.8611  0.3291
 2229TIP3   OH228177   3.927   4.245   3.086 -0.3384 -0.1935 -0.0228
 2229TIP3    H128178   3.871   4.176   3.051  0.9794 -1.1369 -0.2969
 2229TIP3    H228179   3.919   4.317   3.023 -0.7483 -0.5594 -0.3862
 2230TIP3   OH228180   2.095   5.056  15.235 -0.0310  0.2591  0.0881
 2230TIP3    H128181   2.093   4.993  15.307 -0.2660  2.8550  2.4404
 2230TIP3    H228182   2.069   5.140  15.275 -0.1919  1.7796 -3.0212
 2231TIP3   OH228183   0.849   5.886  14.740 -0.2724  0.3374  0.9665
 2231TIP3    H128184   0.898   5.814  14.779 -1.1097  0.5539  2.4676
 2231TIP3    H228185   0.780   5.905  14.803 -1.0146  1.4194 -0.1422
 2232TIP3   OH228186   5.196   0.558  16.364 -0.3939 -0.4364  0.4118
 2232TIP3    H128187   5.129   0.594  16.421  0.6005  0.5109  0.9828
 2232TIP3    H228188   5.170   0.585  16.276 -0.4745  0.3567  0.6827
 2233TIP3   OH228189   3.337   1.749  15.701 -0.1165  0.1393  0.1599
 2233TIP3    H128190   3.266   1.723  15.760  0.4491 -0.2196  0.6888
 2233TIP3    H228191   3.411   1.764  15.759 -0.2185  2.2013 -0.2010
 2234TIP3   OH228192   5.821   2.968   5.376  0.0568 -0.0868 -0.2157
 2234TIP3    H128193   5.790   2.969   5.467  1.1702  1.7801  0.1617
 2234TIP3    H228194   5.864   3.053   5.364  1.0838 -0.8412 -2.0919
 2235TIP3   OH228195   2.173   6.377   0.551 -0.0560  0.1297  0.1126
 2235TIP3    H128196   2.176   6.460   0.599 -2.8403 -0.0165  0.6214
 2235TIP3    H228197   2.122   6.396   0.473  0.6700 -0.7337 -0.5850
 2236TIP3   OH228198   3.234   1.319   5.349 -0.6526 -0.2072 -0.5370
 2236TIP3    H128199   3.235   1.239   5.402  0.0965 -0.1665 -0.4860
 2236TIP3    H228200   3.282   1.296   5.270 -2.1129 -0.3837 -1.3922
 2237TIP3   OH228201   3.295   2.996   1.717  0.0291  0.5055 -0.3766
 2237TIP3    H128202   3.368   3.055   1.736 -0.2712  0.8794 -0.3737
 2237TIP3    H228203   3.328   2.909   1.738 -0.6313  0.9744  3.0099
 2238TIP3   OH228204   3.646   2.602  12.362 -0.4863  0.2837  0.0144
 2238TIP3    H128205   3.669   2.608  12.270  1.3418  0.8282  0.4797
 2238TIP3    H228206   3.584   2.530  12.367 -3.2292  2.3588 -2.1172
 2239TIP3   OH228207   4.380   6.529  13.560 -0.4240 -0.4600  0.0923
 2239TIP3    H128208   4.314   6.592  13.590 -0.5772 -1.5590  2.1296
 2239TIP3    H228209   4.462   6.578  13.562 -1.0109  0.6359 -1.5365
 2240TIP3   OH228210   2.057   2.659  17.191  0.8945  0.1795 -0.2813
 2240TIP3    H128211   2.055   2.580  17.245 -0.1366  0.2485 -0.1970
 2240TIP3    H228212   2.009   2.634  17.111 -0.2706  0.9889  0.1445
 2241TIP3   OH228213   4.768   2.778   5.356 -0.4017 -0.4482 -0.1742
 2241TIP3    H128214   4.829   2.777   5.430 -2.3191 -0.2351  1.4593
 2241TIP3    H228215   4.811   2.833   5.290  1.3419 -0.6531  0.7564
 2242TIP3   OH228216   0.915   5.027   1.101  0.0919 -0.0703  0.3670
 2242TIP3    H128217   0.847   5.075   1.148 -0.4872 -1.3745  0.9005
 2242TIP3    H228218   0.899   5.046   1.009  0.0927  1.0314  0.5868
 2243TIP3   OH228219   1.311   4.872  13.431  0.0637  0.1130 -0.0303
 2243TIP3    H128220   1.250   4.889  13.359  1.1239 -0.1354 -1.0157
 2243TIP3    H228221   1.257   4.839  13.502 -1.2507  2.1798 -0.0581
 2244TIP3   OH228222   5.081   5.832   1.324 -0.0856 -0.2740  0.2748
 2244TIP3    H128223   5.176   5.840   1.325  0.1360 -2.4930 -1.0208
 2244TIP3    H228224   5.055   5.860   1.237 -0.6938  0.8898  0.8169
 2245TIP3   OH228225   4.556   0.988  17.123 -0.2784  0.1986  0.3055
 2245TIP3    H128226   4.516   0.925  17.063 -1.2876  1.4137 -0.3108
 2245TIP3    H228227   4.589   1.057  17.066  1.1610  0.0559  0.9495
 2246TIP3   OH228228   1.237   2.921  16.045 -0.3206 -0.3454 -0.6598
 2246TIP3    H128229   1.273   2.840  16.008 -0.3715 -0.1775 -1.0749
 2246TIP3    H228230   1.238   2.983  15.972 -0.6593 -0.0907 -0.4453
 2247TIP3   OH228231   6.174   6.168   2.933  0.0941 -0.4174  0.3204
 2247TIP3    H128232   6.111   6.197   2.868 -1.4552 -0.6802  1.6643
 2247TIP3    H228233   6.227   6.245   2.953 -1.4028  0.4567  0.9605
 2248TIP3   OH228234   1.680   0.368  10.583  0.0375  0.1059 -0.3298
 2248TIP3    H128235   1.676   0.442  10.524 -0.9973  0.4233  0.1215
 2248TIP3    H228236   1.606   0.313  10.558 -0.2666  0.1261  0.5048
 2249TIP3   OH228237   2.483   2.069  12.875  0.0509 -0.0647 -0.4108
 2249TIP3    H128238   2.399   2.069  12.831  0.2567  0.9206 -0.8196
 2249TIP3    H228239   2.539   2.125  12.821  0.6024  0.3142  0.5334
 2250TIP3   OH228240   4.803   5.631   5.668  0.4191 -0.7069  0.1260
 2250TIP3    H128241   4.898   5.621   5.668  0.5537  0.4470 -0.9789
 2250TIP3    H228242   4.770   5.548   5.700  1.7320 -1.8489 -1.4104
 2251TIP3   OH228243   1.071   4.284   4.242 -0.0015 -0.6270  0.1469
 2251TIP3    H128244   1.167   4.286   4.241  0.0105  2.5972  1.7134
 2251TIP3    H228245   1.045   4.331   4.163 -0.3129 -1.1131 -0.0451
 2252TIP3   OH228246   1.532   1.302   0.078 -0.0602  0.2199 -0.7395
 2252TIP3    H128247   1.481   1.374   0.115  1.0240  0.4230  0.4179
 2252TIP3    H228248   1.514   1.228   0.136  0.3296  0.0832 -0.7909
 2253TIP3   OH228249   0.382   6.513  15.954 -0.1771 -0.3702  0.1894
 2253TIP3    H128250   0.335   6.444  15.907  2.9358 -1.3534 -1.5780
 2253TIP3    H228251   0.414   6.470  16.034 -1.7473  0.1726  1.1494
 2254TIP3   OH228252   4.235   5.237   4.380  0.1351  0.0977 -0.1622
 2254TIP3    H128253   4.217   5.321   4.339 -0.1075 -0.2068 -0.6860
 2254TIP3    H228254   4.150   5.207   4.413  0.0586 -0.3610 -0.7728
 2255TIP3   OH228255   2.028   6.590   5.538  0.0202 -0.0548 -0.3606
 2255TIP3    H128256   2.091   6.523   5.564  0.1713  0.5952  1.0093
 2255TIP3    H228257   1.971   6.600   5.614  0.8006  2.2879 -0.0245
 2256TIP3   OH228258   2.107   1.440  12.636  0.1565  0.1737 -0.3554
 2256TIP3    H128259   2.019   1.476  12.642  0.1501 -0.2005  2.4438
 2256TIP3    H228260   2.123   1.429  12.542 -3.1671 -0.7181 -0.8570
 2257TIP3   OH228261   0.382   0.623  15.087  0.6798 -0.1074  0.4471
 2257TIP3    H128262   0.321   0.693  15.111  0.5553  0.5495 -1.6349
 2257TIP3    H228263   0.435   0.662  15.017  0.0945 -2.3487 -1.2883
 2258TIP3   OH228264   0.173   2.929  16.137  0.0588  0.0461  0.6151
 2258TIP3    H128265   0.091   2.955  16.180 -1.3988 -1.2307 -1.3243
 2258TIP3    H228266   0.171   2.833  16.138  1.0983  0.0116 -0.2551
 2259TIP3   OH228267   5.620   6.740  16.804  0.3185 -0.0475 -0.2450
 2259TIP3    H128268   5.567   6.793  16.745  1.8297  0.7348 -0.9281
 2259TIP3    H228269   5.681   6.695  16.746  0.1524 -1.2392  0.4978
 2260TIP3   OH228270   1.642   6.491  15.107  0.1579 -0.5619 -0.0849
 2260TIP3    H128271   1.605   6.557  15.165  0.5450  0.0535 -0.5379
 2260TIP3    H228272   1.725   6.528  15.076  0.6357 -1.4738  0.0714
 2261TIP3   OH228273   6.498   3.199  16.866 -0.1286 -0.2379  0.2497
 2261TIP3    H128274   6.430   3.143  16.827  0.6178 -0.7998 -0.2693
 2261TIP3    H228275   6.578   3.177  16.817  0.4228  0.4360  0.8339
 2262TIP3   OH228276   3.882   4.417   5.538  0.4525 -0.3516 -0.1202
 2262TIP3    H128277   3.805   4.436   5.485 -0.1436 -0.5368  0.6715
 2262TIP3    H228278   3.920   4.503   5.557 -0.4666 -0.1568  0.8360
 2263TIP3   OH228279   2.427   3.793  14.010 -0.1247  0.3993 -0.6274
 2263TIP3    H128280   2.369   3.789  14.085  0.9871 -3.0942  0.1230
 2263TIP3    H228281   2.485   3.867  14.029 -2.1204  1.7824  0.2028
 2264TIP3   OH228282   3.496   5.047   5.398  0.1684 -0.0262  0.5834
 2264TIP3    H128283   3.436   4.980   5.430 -0.3884 -0.3388 -1.0548
 2264TIP3    H228284   3.581   5.004   5.394  0.0485 -0.2737  0.7174
 2265TIP3   OH228285   1.019   3.314  12.280  0.1156 -0.6076 -0.3578
 2265TIP3    H128286   1.022   3.291  12.188  0.9577  3.0114 -1.3362
 2265TIP3    H228287   0.956   3.387  12.285  2.2332  1.1990  1.3619
 2266TIP3   OH228288   2.149   0.528  17.122  0.0756  0.0718  0.4463
 2266TIP3    H128289   2.105   0.611  17.137  1.5186  0.8862  0.1674
 2266TIP3    H228290   2.224   0.528  17.181  1.0608 -0.2799 -0.7842
 2267TIP3   OH228291   3.402   3.528  13.319  0.2738 -0.2249 -0.3840
 2267TIP3    H128292   3.313   3.535  13.283 -0.5366 -0.1764  1.5782
 2267TIP3    H228293   3.421   3.614  13.355  0.8855 -0.4136 -0.2460
 2268TIP3   OH228294   3.436   1.268   1.538 -0.6429  0.0318 -0.0240
 2268TIP3    H128295   3.515   1.258   1.591 -1.6328 -1.5593  1.2021
 2268TIP3    H228296   3.392   1.344   1.575  0.4528  1.1494 -0.9425
 2269TIP3   OH228297   3.224   2.151   1.004 -0.4893 -1.2277  0.8616
 2269TIP3    H128298   3.254   2.223   1.060 -1.5137  0.4444 -0.6534
 2269TIP3    H228299   3.176   2.093   1.063  0.0632 -0.4963  2.0573
 2270TIP3   OH228300   3.074   1.933  12.050  0.2626 -0.2071 -0.1871
 2270TIP3    H128301   3.032   1.999  11.995 -0.9922 -0.2218  0.7288
 2270TIP3    H228302   3.055   1.850  12.006  0.9123 -0.0590 -0.7549
 2271TIP3   OH228303   5.200   2.129   1.387 -0.1523  0.2641 -0.3744
 2271TIP3    H128304   5.161   2.076   1.318  1.2647 -0.1212 -0.9162
 2271TIP3    H228305   5.141   2.203   1.399 -0.9998 -0.2850 -1.1840
 2272TIP3   OH228306   0.313   1.978  14.901  0.1244  0.0667 -0.4117
 2272TIP3    H128307   0.254   1.992  14.827 -0.2702 -1.7731 -0.4522
 2272TIP3    H228308   0.297   2.053  14.959  0.2878  1.4110 -2.0697
 2273TIP3   OH228309   1.603   3.882   3.642  0.4665 -0.1529 -1.0491
 2273TIP3    H128310   1.520   3.833   3.639 -0.6726  1.6899 -0.5227
 2273TIP3    H228311   1.638   3.874   3.553 -0.1970 -1.0571 -1.2446
 2274TIP3   OH228312   6.542   2.884   2.409 -0.7643  0.2079 -0.5656
 2274TIP3    H128313   6.575   2.910   2.323 -0.2836  0.3971 -0.3280
 2274TIP3    H228314   6.467   2.941   2.424  0.8335  2.1684  0.3520
 2275TIP3   OH228315   0.767   3.265   2.856  0.0746  0.4355 -0.5746
 2275TIP3    H128316   0.722   3.193   2.897 -0.3080  0.8281 -0.3051
 2275TIP3    H228317   0.824   3.224   2.790  3.2900 -0.4932  2.6384
 2276TIP3   OH228318   0.059   3.575   3.497 -0.6022 -0.0843  0.0128
 2276TIP3    H128319  -0.032   3.559   3.474 -0.0706 -1.4023 -1.3041
 2276TIP3    H228320   0.099   3.488   3.501  0.5575  0.4640  0.7041
 2277TIP3   OH228321   3.179   2.924  12.288 -0.4691 -0.0669  0.0920
 2277TIP3    H128322   3.263   2.945  12.329 -0.9069 -0.0773  0.9997
 2277TIP3    H228323   3.197   2.845  12.236  0.3119  0.4813 -0.4867
 2278TIP3   OH228324   3.030   3.279   2.470 -0.0853 -0.0714  0.2725
 2278TIP3    H128325   3.111   3.296   2.423  0.0617  1.8768  1.2026
 2278TIP3    H228326   2.990   3.205   2.423  1.1273  0.3898 -1.5238
 2279TIP3   OH228327   6.302   0.677  15.640  0.0188  0.0483  0.3967
 2279TIP3    H128328   6.290   0.707  15.730 -1.1265  0.4117  0.1252
 2279TIP3    H228329   6.395   0.689  15.623 -0.1397  1.9890  0.8199
 2280TIP3   OH228330   4.041   0.319  12.181 -0.4411 -0.1027  0.0281
 2280TIP3    H128331   3.990   0.339  12.259 -0.4286  1.7548 -0.4196
 2280TIP3    H228332   4.093   0.243  12.205 -0.6075  0.3101  1.7451
 2281TIP3   OH228333   6.549   2.930  15.405  0.0056  0.2152 -0.2671
 2281TIP3    H128334   6.470   2.895  15.445  0.3366  0.0524  0.2495
 2281TIP3    H228335   6.604   2.853  15.388 -1.1031  0.0173 -3.2267
 2282TIP3   OH228336   1.884   4.215  14.718  0.0080  0.4383 -0.1299
 2282TIP3    H128337   1.976   4.193  14.699 -0.0658 -0.8410  0.9119
 2282TIP3    H228338   1.871   4.299  14.675  1.1842 -0.1572 -1.7448
 2283TIP3   OH228339   0.863   5.693  11.851  0.3451 -0.0279  0.1573
 2283TIP3    H128340   0.879   5.600  11.871  1.1776  0.2637  0.8730
 2283TIP3    H228341   0.776   5.710  11.888  0.3864 -0.4095  0.4399
 2284TIP3   OH228342   2.377   1.325   6.705 -0.1272  0.4096 -0.4490
 2284TIP3    H128343   2.395   1.368   6.788  1.5232 -0.5875 -0.2471
 2284TIP3    H228344   2.296   1.364   6.674  0.1384  2.0162  0.8046
 2285TIP3   OH228345   0.425   4.811  13.094  0.4113  0.4282 -0.1978
 2285TIP3    H128346   0.447   4.872  13.024 -0.4515  0.1971 -0.6758
 2285TIP3    H228347   0.330   4.801  13.088  0.3537  0.2703  0.8911
 2286TIP3   OH228348   0.557   4.125   3.653 -0.1804  0.1032 -0.0285
 2286TIP3    H128349   0.641   4.129   3.698  0.1982  0.2586 -0.7525
 2286TIP3    H228350   0.494   4.102   3.723  0.5297 -0.5308  0.4171
 2287TIP3   OH228351   2.067   1.069  12.661 -0.3894  0.2589 -0.1995
 2287TIP3    H128352   2.017   1.001  12.707 -0.3793  0.6815  0.4510
 2287TIP3    H228353   2.114   1.115  12.731  0.3909  0.2892 -0.7405
 2288TIP3   OH228354   4.486   6.733   5.119 -0.2002 -0.1239  0.4934
 2288TIP3    H128355   4.538   6.668   5.165  0.0109  0.1872  0.6956
 2288TIP3    H228356   4.397   6.721   5.152 -0.6861 -2.1067 -1.4280
 2289TIP3   OH228357   5.751   2.836   4.554 -0.2019 -0.4450  0.0447
 2289TIP3    H128358   5.708   2.877   4.629 -0.0542 -1.2453  0.5726
 2289TIP3    H228359   5.687   2.845   4.483  1.1355  3.6849 -0.7823
 2290TIP3   OH228360   2.380   1.255   6.208 -0.0328  0.0384 -0.3472
 2290TIP3    H128361   2.293   1.252   6.250  0.3879 -2.5976  0.4219
 2290TIP3    H228362   2.425   1.326   6.254 -0.3082 -1.4280  2.3230
 2291TIP3   OH228363   4.270   5.764  15.542 -0.2759 -0.6105 -0.4198
 2291TIP3    H128364   4.347   5.801  15.586 -0.6413 -0.4231  0.0652
 2291TIP3    H228365   4.239   5.835  15.484 -0.8911 -0.1993  0.4017
 2292TIP3   OH228366   1.101   0.232  14.474  0.6839 -0.0344  0.4462
 2292TIP3    H128367   1.074   0.322  14.488 -0.0711 -0.1551 -0.2215
 2292TIP3    H228368   1.105   0.194  14.561 -0.9453  0.0804  0.5716
 2293TIP3   OH228369   3.894   5.764  16.408 -0.0630  0.7591 -0.8512
 2293TIP3    H128370   3.826   5.826  16.382 -1.2658 -0.4208 -0.5741
 2293TIP3    H228371   3.926   5.798  16.492 -1.7396  0.2283  0.0360
 2294TIP3   OH228372   1.295   1.575   2.772 -0.0899  0.0500  0.1276
 2294TIP3    H128373   1.201   1.559   2.784 -0.0109 -0.3303  0.2372
 2294TIP3    H228374   1.312   1.549   2.681 -0.4997  2.0464 -0.5283
 2295TIP3   OH228375   1.515   1.382   0.420 -0.0740  0.2402  0.7379
 2295TIP3    H128376   1.522   1.302   0.367  0.4585  0.2677  0.7678
 2295TIP3    H228377   1.449   1.361   0.486  0.8189 -0.5476  1.4039
 2296TIP3   OH228378   5.745   5.538   6.174  0.1197 -0.1949 -0.3420
 2296TIP3    H128379   5.795   5.466   6.214  2.1663  0.8165 -0.9861
 2296TIP3    H228380   5.718   5.504   6.089 -0.2973 -0.7542  0.0095
 2297TIP3   OH228381   3.031   3.461  16.738  0.6622  0.4627  0.0835
 2297TIP3    H128382   3.057   3.468  16.830 -0.3300 -1.2016  0.5274
 2297TIP3    H228383   2.942   3.497  16.736  0.2914 -0.4437 -0.0122
 2298TIP3   OH228384   5.407   0.453  16.959  0.2220  0.1062  0.4337
 2298TIP3    H128385   5.425   0.414  16.873 -0.1003  0.8100  0.0483
 2298TIP3    H228386   5.484   0.430  17.012  1.7908  2.1754 -0.8822
 2299TIP3   OH228387   2.594   6.809  11.950  0.0732 -0.3201  0.8854
 2299TIP3    H128388   2.558   6.896  11.969 -0.7893 -0.5677  0.4091
 2299TIP3    H228389   2.557   6.786  11.865 -0.6074 -1.6287  1.5119
 2300TIP3   OH228390   6.002   6.743  11.838 -0.9222 -0.1946 -0.7019
 2300TIP3    H128391   6.089   6.713  11.809  0.1229  0.7343  1.4084
 2300TIP3    H228392   5.949   6.663  11.839  0.0584 -0.8691 -1.4243
 2301TIP3   OH228393   6.704   0.556  14.728 -0.4227  0.4142  0.0548
 2301TIP3    H128394   6.612   0.532  14.728 -0.1883 -0.5934 -2.4288
 2301TIP3    H228395   6.725   0.572  14.636  1.4743  2.2686  0.7585
 2302TIP3   OH228396   3.616   5.059   2.547 -0.6928  0.0447  0.4071
 2302TIP3    H128397   3.631   4.988   2.485  3.0270 -0.8705  2.1774
 2302TIP3    H228398   3.543   5.108   2.511 -0.0403 -1.7242 -3.5236
 2303TIP3   OH228399   2.900   1.690   0.597  0.1041  0.8565  0.2491
 2303TIP3    H128400   2.833   1.755   0.577 -2.4082 -1.9767 -0.9800
 2303TIP3    H228401   2.864   1.641   0.672  1.5746  0.3887  0.6580
 2304TIP3   OH228402   2.691   3.534  13.025 -0.4588 -0.7676 -0.7670
 2304TIP3    H128403   2.602   3.565  13.011 -0.8799 -0.3900  2.3293
 2304TIP3    H228404   2.686   3.439  13.018 -1.6242 -0.9221  1.7605
 2305TIP3   OH228405   6.593   2.147  12.219  0.0742 -0.1294  0.6912
 2305TIP3    H128406   6.646   2.201  12.161 -0.8888  0.4586  0.3499
 2305TIP3    H228407   6.548   2.210  12.276 -0.0028 -0.6370  1.1952
 2306TIP3   OH228408   0.525   1.719  14.195 -0.2132 -0.2117 -0.1090
 2306TIP3    H128409   0.492   1.714  14.105  1.2307 -1.0388 -0.6071
 2306TIP3    H228410   0.619   1.704  14.187  0.0235  0.3303  1.4814
 2307TIP3   OH228411   6.655   4.897   3.248 -0.6134 -0.2904 -0.1657
 2307TIP3    H128412   6.732   4.847   3.222  0.0942  0.8445 -0.3280
 2307TIP3    H228413   6.594   4.887   3.175 -0.4407 -0.8473 -0.2295
 2308TIP3   OH228414   6.300   3.300  14.606 -0.2318 -0.3829  0.4163
 2308TIP3    H128415   6.294   3.213  14.568  0.3788  0.3901 -1.4937
 2308TIP3    H228416   6.229   3.349  14.566 -2.1263 -0.6162  3.3030
 2309TIP3   OH228417   6.287   1.129  15.305  0.4492 -0.7145 -0.2990
 2309TIP3    H128418   6.213   1.127  15.245  1.1737 -1.0379 -1.1873
 2309TIP3    H228419   6.281   1.215  15.347  0.2552 -0.2557 -1.2470
 2310TIP3   OH228420   5.048   4.126   4.220  0.4191  0.1683 -0.1198
 2310TIP3    H128421   4.973   4.182   4.238  1.7000  1.6394  0.8461
 2310TIP3    H228422   5.041   4.105   4.127 -1.4249 -0.1106  0.0751
 2311TIP3   OH228423   1.269   3.773   5.144 -0.3846 -0.0968  0.4669
 2311TIP3    H128424   1.273   3.742   5.053 -1.2155  0.1118  0.3551
 2311TIP3    H228425   1.222   3.856   5.139  0.9463  0.6839  0.9002
 2312TIP3   OH228426   5.535   5.318   5.712  0.2940 -0.0790  0.7890
 2312TIP3    H128427   5.595   5.368   5.767  0.8724 -0.2176  0.2859
 2312TIP3    H228428   5.452   5.319   5.760  0.7091  0.0676  1.5144
 2313TIP3   OH228429   6.082   2.439   1.108 -0.3814 -0.5423  0.1802
 2313TIP3    H128430   6.111   2.528   1.089 -0.7383 -0.2890  0.7939
 2313TIP3    H228431   6.066   2.399   1.023 -0.9480  0.2223 -0.0686
 2314TIP3   OH228432   3.530   2.333   2.799 -0.2307  0.5497  0.5348
 2314TIP3    H128433   3.613   2.376   2.820  0.5970 -0.7423 -0.0658
 2314TIP3    H228434   3.519   2.345   2.705  0.4165 -1.2389  0.2142
 2315TIP3   OH228435   2.259   3.995  10.981  0.7100  0.4346 -0.3666
 2315TIP3    H128436   2.307   4.021  11.060  0.5917  1.2799 -0.5745
 2315TIP3    H228437   2.315   4.021  10.909  1.3839 -1.4370 -0.5646
 2316TIP3   OH228438   0.866   0.922   5.565  0.5978  0.9315 -0.0616
 2316TIP3    H128439   0.942   0.958   5.610  0.4071  0.4186  0.6781
 2316TIP3    H228440   0.890   0.831   5.548  0.0820  0.7296  0.3094
 2317TIP3   OH228441   4.603   0.830  12.278 -0.1479 -0.1180  0.0453
 2317TIP3    H128442   4.635   0.872  12.198 -0.3282  0.2132  0.1453
 2317TIP3    H228443   4.535   0.769  12.247 -0.3558  0.1530 -0.0337
 2318TIP3   OH228444   2.435   0.731  14.251  0.2067 -0.2469  0.8624
 2318TIP3    H128445   2.518   0.685  14.258  0.8155  0.6920 -0.1419
 2318TIP3    H228446   2.453   0.820  14.283 -0.8704 -0.5592  2.4216
 2319TIP3   OH228447   2.181   0.288  11.396  0.1459  0.0548  0.5614
 2319TIP3    H128448   2.101   0.277  11.345 -0.4537  0.7816  1.3241
 2319TIP3    H228449   2.190   0.383  11.406  2.2865  0.0949 -1.3668
 2320TIP3   OH228450   1.315   3.737   3.281 -0.4599 -0.3261  0.0481
 2320TIP3    H128451   1.347   3.706   3.366  1.1718  0.0339 -0.4287
 2320TIP3    H228452   1.375   3.699   3.217 -0.6117  0.8760 -0.8224
 2321TIP3   OH228453   6.288   1.744   6.344 -0.1869  0.7164  0.5507
 2321TIP3    H128454   6.328   1.694   6.415  0.0560 -0.4609 -0.3949
 2321TIP3    H228455   6.267   1.829   6.383  2.1197  0.9388  1.3833
 2322TIP3   OH228456   0.442   4.904   1.438  0.5408 -0.7404 -0.3368
 2322TIP3    H128457   0.524   4.860   1.459  0.2403 -0.9200  0.4509
 2322TIP3    H228458   0.376   4.861   1.492  0.5075  1.7498  1.6762
 2323TIP3   OH228459   0.084   3.753  10.537 -0.2775  0.2628  0.1318
 2323TIP3    H128460   0.129   3.758  10.453 -2.0565 -2.4573 -1.0632
 2323TIP3    H228461   0.152   3.729  10.600  0.8266  1.0106 -0.7668
 2324TIP3   OH228462   4.479   5.429  11.593  0.1154 -0.2159 -0.7373
 2324TIP3    H128463   4.384   5.438  11.595  0.1240 -0.4250  1.3429
 2324TIP3    H228464   4.496   5.379  11.513 -1.5486 -0.4329 -0.9724
 2325TIP3   OH228465   3.915   2.323  17.197 -0.0118  0.2267 -0.3654
 2325TIP3    H128466   3.924   2.239  17.151  0.0886  0.3917 -0.6482
 2325TIP3    H228467   3.894   2.386  17.129  0.4759  0.5363 -0.2297
 2326TIP3   OH228468   6.361   2.325   1.677 -0.2321  0.1377  0.4563
 2326TIP3    H128469   6.435   2.385   1.690 -0.3289  0.0577  1.4137
 2326TIP3    H228470   6.295   2.379   1.632  0.4590  0.1599 -0.5530
 2327TIP3   OH228471   4.111   1.404  17.076 -0.2055  0.1934  0.0819
 2327TIP3    H128472   4.085   1.312  17.080 -1.4987  0.4929 -1.0317
 2327TIP3    H228473   4.204   1.403  17.098 -0.5907 -1.1784  1.7297
 2328TIP3   OH228474   3.859   5.684   3.688 -0.3286  0.0817  0.0985
 2328TIP3    H128475   3.886   5.699   3.778 -0.1179 -0.1802  0.0833
 2328TIP3    H228476   3.800   5.609   3.692 -1.3993  0.9285  0.1801
 2329TIP3   OH228477   4.224   2.183   1.998  0.0901 -0.0070 -0.0489
 2329TIP3    H128478   4.168   2.259   1.985 -1.2085 -1.0088 -0.4553
 2329TIP3    H228479   4.166   2.108   1.985  1.1194 -1.0707  1.2961
 2330TIP3   OH228480   5.414   2.957  12.548  0.4193  0.5450  0.0606
 2330TIP3    H128481   5.416   3.053  12.539 -0.5224  0.5082 -0.6364
 2330TIP3    H228482   5.381   2.942  12.636  0.2725  0.8561  0.0588
 2331TIP3   OH228483   1.743   6.200   5.360  0.0242  0.2240 -0.0006
 2331TIP3    H128484   1.779   6.133   5.417 -0.2622 -0.7557 -0.9478
 2331TIP3    H228485   1.814   6.264   5.351  0.6372 -0.4228  0.1649
 2332TIP3   OH228486   1.654   2.680  13.739  0.1671 -0.6408  0.2836
 2332TIP3    H128487   1.696   2.764  13.724 -0.7008 -0.2416  0.0453
 2332TIP3    H228488   1.686   2.652  13.825 -0.6791  0.6474  1.0506
 2333TIP3   OH228489   0.935   6.669   5.784 -0.2005  0.4552  0.0576
 2333TIP3    H128490   0.972   6.709   5.863 -0.5317  0.4350  0.2241
 2333TIP3    H228491   0.971   6.580   5.783 -0.8404  0.1893  0.6241
 2334TIP3   OH228492   1.544   5.059  13.136 -0.2159  0.6448  0.3022
 2334TIP3    H128493   1.589   5.143  13.142  0.5221  0.2544  0.2800
 2334TIP3    H228494   1.510   5.057  13.047  1.9571 -0.1739 -0.5386
 2335TIP3   OH228495   0.302   0.002   5.717 -0.1739  0.5897  0.4342
 2335TIP3    H128496   0.359   0.072   5.749  1.2142 -0.4475  0.2625
 2335TIP3    H228497   0.282  -0.049   5.795 -0.0880  0.4008  0.3322
 2336TIP3   OH228498   5.839   6.356  12.945  0.3759  0.7064 -0.1203
 2336TIP3    H128499   5.793   6.324  13.022 -2.4002  1.7763 -1.2642
 2336TIP3    H228500   5.862   6.447  12.967  0.5525  0.6597 -0.1160
 2337TIP3   OH228501   3.554   6.010   3.945  0.3342 -0.5403 -0.4669
 2337TIP3    H128502   3.553   5.957   4.025  1.8685 -1.6542 -1.1698
 2337TIP3    H228503   3.647   6.020   3.924  0.0313  1.7214 -0.8295
 2338TIP3   OH228504   2.777   4.842   1.270  0.0355  0.1585 -0.5139
 2338TIP3    H128505   2.790   4.921   1.218 -1.4814  0.4486 -0.4842
 2338TIP3    H228506   2.730   4.782   1.212 -0.7618  0.1015  0.1792
 2339TIP3   OH228507   4.994   0.930   2.540 -0.6471 -0.0070 -1.2024
 2339TIP3    H128508   5.063   0.938   2.474 -1.5337 -0.6803 -2.2074
 2339TIP3    H228509   5.012   1.002   2.601 -0.3229  1.1609 -2.6392
 2340TIP3   OH228510   0.364   6.551   0.786  0.0420  0.0898  0.3042
 2340TIP3    H128511   0.352   6.488   0.856 -0.5418  0.6608  0.7163
 2340TIP3    H228512   0.333   6.634   0.822  1.0490  0.6711 -0.1363
 2341TIP3   OH228513   1.258   2.038   1.103  0.2023 -0.4150 -0.4803
 2341TIP3    H128514   1.215   1.993   1.176  0.0421 -1.6679 -1.3372
 2341TIP3    H228515   1.323   1.975   1.071  0.4315  0.2191 -1.2770
 2342TIP3   OH228516   0.600   4.716   6.187 -0.2601  0.6637  0.4142
 2342TIP3    H128517   0.570   4.635   6.228 -2.7089  0.8304 -0.9553
 2342TIP3    H228518   0.696   4.713   6.194 -0.4568 -1.1745  2.5216
 2343TIP3   OH228519   3.652   0.852  14.869  0.0526 -0.0650 -0.1319
 2343TIP3    H128520   3.618   0.853  14.959 -0.0224  1.7441 -0.1624
 2343TIP3    H228521   3.694   0.767  14.861 -0.0363 -0.3030  1.5827
 2344TIP3   OH228522   1.265   0.855   6.657  0.6473  0.7961  0.0311
 2344TIP3    H128523   1.327   0.783   6.665  1.4108  1.4092 -0.2995
 2344TIP3    H228524   1.258   0.890   6.746  1.7464  1.5106 -0.1463
 2345TIP3   OH228525   4.125   3.225   3.186  0.7030 -0.6618  0.1381
 2345TIP3    H128526   4.107   3.251   3.277  1.6326 -0.2613  0.2121
 2345TIP3    H228527   4.220   3.222   3.180  0.6587 -0.1446 -0.9714
 2346TIP3   OH228528   0.018   5.333   5.502  0.2587 -0.6399  0.3215
 2346TIP3    H128529  -0.036   5.261   5.535 -0.3234 -0.3482  0.0072
 2346TIP3    H228530   0.014   5.324   5.406  0.9244 -0.7286  0.2941
 2347TIP3   OH228531   2.591   1.067  16.705  0.4125 -0.1659  0.1778
 2347TIP3    H128532   2.640   1.067  16.787  1.3724  2.2288 -0.3487
 2347TIP3    H228533   2.651   1.105  16.641 -1.0216 -0.1577 -1.2046
 2348TIP3   OH228534   1.620   0.487  13.778 -0.1830 -0.0653 -0.5018
 2348TIP3    H128535   1.652   0.502  13.690  1.1500 -1.7525 -0.3349
 2348TIP3    H228536   1.696   0.501  13.834 -0.0887 -2.5045  0.0439
 2349TIP3   OH228537   2.090   3.588  16.816 -0.1313 -0.2552 -0.5131
 2349TIP3    H128538   2.083   3.605  16.722  1.0893 -1.6026 -0.8667
 2349TIP3    H228539   2.166   3.639  16.843 -1.1473  1.0256 -0.0174
 2350TIP3   OH228540   2.429   3.628   1.566 -0.7675 -0.3063 -0.7847
 2350TIP3    H128541   2.361   3.627   1.633 -1.1709  0.8929 -1.1406
 2350TIP3    H228542   2.483   3.704   1.588 -0.1535 -0.6490 -1.0969
 2351TIP3   OH228543   5.581   1.048  13.655 -0.6812 -0.1085  0.4777
 2351TIP3    H128544   5.536   1.069  13.573 -0.4109  1.5005  0.7162
 2351TIP3    H228545   5.672   1.035  13.629 -0.2303  2.2620  0.7442
 2352TIP3   OH228546   3.630   1.677   3.273 -0.2894  0.1973  0.0120
 2352TIP3    H128547   3.712   1.655   3.317  0.0705 -0.4192 -0.9703
 2352TIP3    H228548   3.653   1.745   3.210 -1.0110  1.8866  1.5314
 2353TIP3   OH228549   4.109   1.707  13.179  0.2837  0.2682 -0.1204
 2353TIP3    H128550   4.180   1.644  13.163  0.0466 -0.0958  0.2669
 2353TIP3    H228551   4.152   1.792  13.177  1.2550 -0.0906  2.9327
 2354TIP3   OH228552   1.075   4.829   5.071 -0.2126  0.0239 -0.0162
 2354TIP3    H128553   1.153   4.836   5.016 -0.5830 -0.0530 -0.5636
 2354TIP3    H228554   1.069   4.913   5.115 -0.6826  0.6035 -1.1548
 2355TIP3   OH228555   3.762   3.746   2.886  0.2642 -0.0427 -0.5418
 2355TIP3    H128556   3.785   3.814   2.950 -4.6210  2.5031 -1.2808
 2355TIP3    H228557   3.773   3.788   2.801  1.0874 -1.5757 -1.2283
 2356TIP3   OH228558   5.869   5.653  12.251 -0.8876 -0.5784  0.0464
 2356TIP3    H128559   5.865   5.587  12.320 -0.8367  1.0092  1.6160
 2356TIP3    H228560   5.881   5.603  12.171  1.6112 -2.3517  1.4563
 2357TIP3   OH228561   3.057   5.887  13.100 -0.2306 -0.0494 -0.0028
 2357TIP3    H128562   3.138   5.931  13.073  0.3681 -0.7895  0.6051
 2357TIP3    H228563   3.061   5.885  13.195 -0.1215 -1.6739 -0.0310
 2358TIP3   OH228564   0.176   4.820  14.644 -0.2264  0.1665  0.6248
 2358TIP3    H128565   0.230   4.749  14.608  0.2215  1.0068 -0.3942
 2358TIP3    H228566   0.201   4.824  14.736 -1.1105 -1.7712  0.9599
 2359TIP3   OH228567   5.585   6.133  11.375 -0.2027 -0.0782  0.5773
 2359TIP3    H128568   5.537   6.169  11.449 -1.0807 -0.3421  0.1451
 2359TIP3    H228569   5.519   6.122  11.306  0.8337  1.4241 -0.7083
 2360TIP3   OH228570   2.924   3.699   3.257 -0.4736 -0.2463  0.8633
 2360TIP3    H128571   2.972   3.782   3.254 -1.3167  0.2260  0.3756
 2360TIP3    H228572   2.970   3.647   3.324  0.3339  0.4337  0.8413
 2361TIP3   OH228573   3.907   5.090  12.296 -0.0144 -0.9422  0.0213
 2361TIP3    H128574   3.991   5.056  12.328  0.8309  0.0564 -1.0991
 2361TIP3    H228575   3.898   5.052  12.209 -0.2812 -0.3036 -0.2310
 2362TIP3   OH228576   4.621   5.155   2.618  0.3266  0.0223  0.3855
 2362TIP3    H128577   4.617   5.098   2.695  1.5989  0.4637  0.7767
 2362TIP3    H228578   4.678   5.109   2.556  0.0630  0.1168  0.0674
 2363TIP3   OH228579   2.180   2.540  15.721  0.1149  0.6310  0.5809
 2363TIP3    H128580   2.131   2.573  15.797  0.5442 -0.0878  1.1760
 2363TIP3    H228581   2.230   2.616  15.691  1.2414  0.4990  2.0583
 2364TIP3   OH228582   5.176   0.286   2.660  0.1510 -0.0304 -0.0447
 2364TIP3    H128583   5.193   0.213   2.720  0.3461  1.4476  1.7800
 2364TIP3    H228584   5.259   0.333   2.656  0.0633  0.0266 -1.3159
 2365TIP3   OH228585   3.847   2.577  13.067  0.2537  0.0765 -0.3178
 2365TIP3    H128586   3.768   2.524  13.057  0.2508 -0.2382  1.1836
 2365TIP3    H228587   3.822   2.664  13.036 -0.1520 -0.4591 -1.5043
 2366TIP3   OH228588   6.728   1.360   6.497 -0.2968 -0.0129 -0.1078
 2366TIP3    H128589   6.731   1.266   6.513 -0.1857 -0.0040 -0.0774
 2366TIP3    H228590   6.683   1.396   6.573 -0.9574 -0.1156 -0.4395
 2367TIP3   OH228591   5.615   4.404   0.981 -0.6248 -0.0622 -0.3020
 2367TIP3    H128592   5.668   4.357   1.046 -0.8938  0.2209  0.1216
 2367TIP3    H228593   5.537   4.350   0.970 -0.5392 -0.1551 -0.4565
 2368TIP3   OH228594   5.753   2.775  14.256  0.6319  0.6391  0.0192
 2368TIP3    H128595   5.845   2.758  14.233  0.4567  0.0526 -0.2574
 2368TIP3    H228596   5.703   2.732  14.187  0.1361  0.6620  0.3620
 2369TIP3   OH228597   2.969   1.843   3.408 -0.3572  0.0087 -0.5268
 2369TIP3    H128598   2.923   1.890   3.338 -0.8922  0.9574  0.4433
 2369TIP3    H228599   2.924   1.870   3.488  1.4417  0.3895  0.3767
 2370TIP3   OH228600   3.518   2.474   4.518 -0.1810 -0.2746 -0.1901
 2370TIP3    H128601   3.502   2.569   4.516 -1.1271 -0.4669 -3.1981
 2370TIP3    H228602   3.474   2.445   4.598  0.9153  1.9211  1.2788
 2371TIP3   OH228603   2.456   3.773   0.918  0.1906  0.2505 -0.4984
 2371TIP3    H128604   2.494   3.854   0.952  0.1254  0.3091 -0.5656
 2371TIP3    H228605   2.388   3.751   0.982 -0.9920  1.2043 -1.4084
 2372TIP3   OH228606   3.077   4.736   1.221  0.1381  0.1752 -0.3534
 2372TIP3    H128607   3.083   4.826   1.254  0.2978  0.3581 -0.8753
 2372TIP3    H228608   2.984   4.724   1.203 -0.1027 -0.2776  1.1253
 2373TIP3   OH228609   3.547   2.691   0.537 -0.0517 -0.0515  1.0783
 2373TIP3    H128610   3.637   2.697   0.569  0.8585 -0.4868 -1.2679
 2373TIP3    H228611   3.530   2.597   0.530  0.1299  0.0309 -0.6257
 2374TIP3   OH228612   1.102   4.369  16.999 -0.3071 -0.1320 -0.3575
 2374TIP3    H128613   1.161   4.298  17.023 -0.4474  0.1266  0.7800
 2374TIP3    H228614   1.016   4.328  16.995 -0.2744 -0.1881 -0.5070
 2375TIP3   OH228615   3.371   1.938   1.218  0.0815  0.2062  0.0476
 2375TIP3    H128616   3.275   1.947   1.223  0.0118 -1.1260  1.8881
 2375TIP3    H228617   3.401   2.020   1.179 -1.7283  1.2153  0.7029
 2376TIP3   OH228618   4.972   6.648  12.980 -0.3595  0.0771  0.4543
 2376TIP3    H128619   4.980   6.719  13.043 -0.9640 -1.3089  2.1262
 2376TIP3    H228620   4.883   6.614  12.993 -1.0034  0.6545 -2.1123
 2377TIP3   OH228621   3.350   4.806  12.379  0.5897 -0.2046  0.2051
 2377TIP3    H128622   3.398   4.723  12.382  0.6602 -0.1535  0.4850
 2377TIP3    H228623   3.354   4.832  12.287 -1.5804 -1.7581 -0.3709
 2378TIP3   OH228624   3.594   0.735   2.954 -0.0074 -0.1502  0.6683
 2378TIP3    H128625   3.520   0.764   2.901  0.4270 -0.7483 -0.2679
 2378TIP3    H228626   3.612   0.646   2.925  2.4032  0.6950 -0.5910
 2379TIP3   OH228627   5.297   3.349   4.031  0.1285  0.4391  0.6091
 2379TIP3    H128628   5.342   3.290   4.091 -0.1867 -0.7440 -0.2972
 2379TIP3    H228629   5.365   3.411   4.003  1.0378 -0.8488 -0.1338
 2380TIP3   OH228630   3.115   5.108  16.667  0.6255  0.2875 -0.1574
 2380TIP3    H128631   3.038   5.097  16.611 -2.9066 -0.9105  4.6190
 2380TIP3    H228632   3.121   5.202  16.683  0.0852  0.3826 -0.5169
 2381TIP3   OH228633   0.351   6.347  14.060  0.2239  0.1516 -0.2733
 2381TIP3    H128634   0.314   6.349  14.149 -1.2689 -0.7776 -0.8590
 2381TIP3    H228635   0.298   6.410  14.011  0.5633  0.1136 -0.6822
 2382TIP3   OH228636   2.646   3.868   1.869 -0.1855 -0.1947  0.2434
 2382TIP3    H128637   2.737   3.852   1.893  0.2487 -0.5703 -1.5901
 2382TIP3    H228638   2.615   3.786   1.832 -1.7748 -0.5605  2.2700
 2383TIP3   OH228639   2.548   2.711   5.603  0.3464  0.3354  0.0743
 2383TIP3    H128640   2.634   2.747   5.578 -0.0056 -0.2385 -2.0511
 2383TIP3    H228641   2.548   2.623   5.567 -1.0020  0.1993  0.3903
 2384TIP3   OH228642   3.375   4.460   4.469 -0.0609  0.3756  0.2073
 2384TIP3    H128643   3.414   4.381   4.505 -2.8392 -0.8707  0.6012
 2384TIP3    H228644   3.342   4.508   4.545 -0.5584  0.7109 -0.2104
 2385TIP3   OH228645   5.623   4.048   0.779 -0.8658  0.3142 -0.0923
 2385TIP3    H128646   5.626   4.075   0.687  1.9180  0.1542 -0.0913
 2385TIP3    H228647   5.632   3.953   0.777 -1.8848  0.2012  0.3108
 2386TIP3   OH228648   0.750   6.120  15.234  0.1446  0.1516 -0.1393
 2386TIP3    H128649   0.729   6.031  15.207 -0.9167  0.2150  0.4071
 2386TIP3    H228650   0.726   6.122  15.327 -0.8362  1.3005 -0.4079
 2387TIP3   OH228651   4.756   1.926   3.434  0.0742  0.4532 -0.1427
 2387TIP3    H128652   4.666   1.905   3.461 -0.0649  0.3837 -0.6523
 2387TIP3    H228653   4.811   1.877   3.494 -0.2272  0.6492  0.3017
 2388TIP3   OH228654   2.423   1.825   1.117 -0.5432 -0.3715 -0.0771
 2388TIP3    H128655   2.351   1.817   1.179 -0.1668  0.2143  0.4510
 2388TIP3    H228656   2.392   1.781   1.038 -0.8489 -1.5648  0.6793
 2389TIP3   OH228657   0.179   1.385   1.525 -0.4922 -0.2535 -0.2401
 2389TIP3    H128658   0.234   1.368   1.449 -1.5649 -1.6092 -0.7490
 2389TIP3    H228659   0.219   1.334   1.595 -0.1350  0.1204 -0.1684
 2390TIP3   OH228660   2.916   3.242  14.251  0.3123  0.2339  0.1384
 2390TIP3    H128661   2.910   3.320  14.197  2.1434 -0.9832 -1.8737
 2390TIP3    H228662   2.931   3.170  14.190  3.1362 -1.0999  2.2580
 2391TIP3   OH228663   6.173   1.948   5.327 -0.2023 -0.1209  0.0970
 2391TIP3    H128664   6.131   1.890   5.389 -2.0568  1.8622  0.7511
 2391TIP3    H228665   6.225   2.009   5.380  1.3308 -0.8235 -0.5448
 2392TIP3   OH228666   4.023   4.268   2.163  0.3569  0.4530 -0.3669
 2392TIP3    H128667   4.096   4.230   2.211 -0.1179 -1.3130 -1.0255
 2392TIP3    H228668   3.996   4.343   2.216  0.9009 -0.4842  1.2641
 2393TIP3   OH228669   5.795   5.207   3.735  0.0344  0.3779  0.1182
 2393TIP3    H128670   5.888   5.220   3.716 -0.0045  0.8180  0.2025
 2393TIP3    H228671   5.765   5.145   3.670  0.0437  1.3766 -0.8568
 2394TIP3   OH228672   2.351   3.502   0.282  0.5336 -0.4716  0.4929
 2394TIP3    H128673   2.424   3.452   0.318 -0.6567 -1.2775  1.8584
 2394TIP3    H228674   2.335   3.570   0.347 -0.8020 -1.1379  0.8752
 2395TIP3   OH228675   5.967   0.941   4.458 -0.3555 -0.1709  0.3066
 2395TIP3    H128676   6.060   0.920   4.449 -1.0462 -3.5500  0.2704
 2395TIP3    H228677   5.944   0.984   4.377  1.0963  0.3368  0.1501
 2396TIP3   OH228678   1.733   5.670   1.153 -0.0516  0.2990 -0.2498
 2396TIP3    H128679   1.783   5.644   1.230  1.7680  1.2010 -1.0880
 2396TIP3    H228680   1.767   5.615   1.083  0.6485  1.7535 -1.0815
 2397TIP3   OH228681   3.388   5.133  15.531 -0.1980 -0.1213 -0.1903
 2397TIP3    H128682   3.422   5.126  15.442 -1.5963  2.3540 -0.9582
 2397TIP3    H228683   3.331   5.056  15.540  0.0927 -0.4912 -1.3466
 2398TIP3   OH228684   4.777   2.918   4.090  0.6337  0.2804  0.3356
 2398TIP3    H128685   4.712   2.951   4.028  1.5317 -0.3536 -0.9599
 2398TIP3    H228686   4.738   2.934   4.176 -2.8010 -3.1556 -0.4530
 2399TIP3   OH228687   2.169   3.420   2.075 -0.4197  0.5079  0.2221
 2399TIP3    H128688   2.186   3.404   1.982 -0.9669 -0.3845  0.2723
 2399TIP3    H228689   2.246   3.468   2.105 -0.1454  0.6221 -0.6464
 2400TIP3   OH228690   0.260   1.846  15.671 -0.2358 -0.6492  0.7081
 2400TIP3    H128691   0.334   1.865  15.613 -0.7879 -1.7842 -0.3913
 2400TIP3    H228692   0.300   1.810  15.750  0.6163  2.1766  1.6185
 2401TIP3   OH228693   6.787   6.337   6.092 -0.4125 -0.2917  0.3323
 2401TIP3    H128694   6.799   6.418   6.043  0.7789 -1.5377 -1.5272
 2401TIP3    H228695   6.763   6.365   6.180 -0.7646  2.0501 -0.4784
 2402TIP3   OH228696   2.204   1.096  15.659  0.2002  0.6316  0.1622
 2402TIP3    H128697   2.152   1.016  15.650 -1.0668  1.4754 -0.0650
 2402TIP3    H228698   2.140   1.166  15.666  1.3236  1.7996 -1.0820
 2403TIP3   OH228699   4.738   4.468  11.170  0.3092  0.5896  0.6414
 2403TIP3    H128700   4.647   4.454  11.195  0.1972  0.5722  0.2235
 2403TIP3    H228701   4.739   4.557  11.133  0.3650  0.3969  0.1811
 2404TIP3   OH228702   5.581   3.101   0.364  0.3809  0.2905  0.0330
 2404TIP3    H128703   5.671   3.077   0.385 -0.4335 -2.2345  0.7985
 2404TIP3    H228704   5.535   3.099   0.448 -0.7109  0.0206 -0.5632
 2405TIP3   OH228705   1.267   6.552  11.850  0.2313  0.5576 -0.4122
 2405TIP3    H128706   1.229   6.565  11.937  2.1768 -0.6420  0.6434
 2405TIP3    H228707   1.197   6.513  11.799 -0.8285  0.9536  0.7135
 2406TIP3   OH228708   6.189   6.468   0.374  0.0388 -0.1005  0.4017
 2406TIP3    H128709   6.127   6.530   0.412 -0.1239  0.5574 -0.9043
 2406TIP3    H228710   6.266   6.472   0.431 -0.4458  0.3824  1.0252
 2407TIP3   OH228711   3.630   5.585  11.059  0.4005 -0.1584  0.5003
 2407TIP3    H128712   3.686   5.605  10.984 -0.1613 -2.1304 -0.4736
 2407TIP3    H228713   3.580   5.508  11.032 -1.6427  0.6304  1.9685
 2408TIP3   OH228714   6.033   6.617  17.068 -0.0698 -0.3052 -0.4484
 2408TIP3    H128715   6.124   6.623  17.099  0.0638 -2.9386 -0.1571
 2408TIP3    H228716   5.981   6.612  17.148 -0.3848  0.1388 -0.6234
 2409TIP3   OH228717   1.042   4.265  14.305  0.7493  0.3971  0.1133
 2409TIP3    H128718   0.993   4.311  14.237  3.2441  1.5333 -0.9602
 2409TIP3    H228719   1.090   4.335  14.351  1.3612 -0.6872  1.1531
 2410TIP3   OH228720   5.334   5.759   0.677 -0.0042  0.5713  0.2115
 2410TIP3    H128721   5.376   5.715   0.751 -0.6406  0.8289  0.7343
 2410TIP3    H228722   5.354   5.852   0.690  0.9595  0.4875 -0.6437
 2411TIP3   OH228723   4.347   1.567  16.005  0.5591 -0.8311  0.5685
 2411TIP3    H128724   4.339   1.548  16.099  0.5380 -0.7850  0.5753
 2411TIP3    H228725   4.363   1.482  15.965  0.2766 -0.8892  0.5808
 2412TIP3   OH228726   5.259   2.989  13.083 -0.3123 -0.8951 -0.2388
 2412TIP3    H128727   5.340   3.025  13.120 -0.9026  0.7900 -0.5511
 2412TIP3    H228728   5.192   3.006  13.149 -0.7858 -0.5579 -0.8006
 2413TIP3   OH228729   4.798   1.125  11.751 -0.5328 -0.1843 -0.3984
 2413TIP3    H128730   4.743   1.198  11.722 -0.1567 -0.5344 -2.0264
 2413TIP3    H228731   4.740   1.071  11.805 -1.1721  0.6260 -0.2689
 2414TIP3   OH228732   1.590   3.971   4.894 -0.6341  0.7076  0.1485
 2414TIP3    H128733   1.567   4.064   4.888  0.4526  0.7933 -3.8168
 2414TIP3    H228734   1.683   3.968   4.874 -0.4868 -1.1764  1.0606
 2415TIP3   OH228735   5.125   6.005  14.024  0.7368 -0.5821 -0.4055
 2415TIP3    H128736   5.172   6.070  14.075  0.9514 -0.3294 -0.9227
 2415TIP3    H228737   5.109   5.933  14.086 -0.7843  0.5616  0.5727
 2416TIP3   OH228738   5.724   4.733  16.646 -0.1350 -0.4277  0.0538
 2416TIP3    H128739   5.684   4.735  16.559 -1.9989  1.8825  0.8828
 2416TIP3    H228740   5.801   4.788  16.639 -0.6912  0.3615  0.0046
 2417TIP3   OH228741   5.677   1.844   5.687 -0.2215 -0.3826 -0.0325
 2417TIP3    H128742   5.612   1.901   5.646 -1.0074 -0.9535  0.3910
 2417TIP3    H228743   5.746   1.903   5.717  0.6897 -0.0014 -2.7033
 2418TIP3   OH228744   3.226   5.904  14.642 -0.5556 -0.0205  0.0995
 2418TIP3    H128745   3.199   5.979  14.589  0.2579  1.2136  1.3957
 2418TIP3    H228746   3.322   5.912  14.648 -0.4432 -1.2659  0.0879
 2419TIP3   OH228747   2.663   4.132   5.775 -0.1375  0.2968  0.1687
 2419TIP3    H128748   2.668   4.039   5.798  0.4055 -0.2810 -2.1020
 2419TIP3    H228749   2.699   4.136   5.686 -0.8139  2.5717 -0.0299
 2420TIP3   OH228750   6.542   4.058  11.833  0.0919 -1.1295  0.2822
 2420TIP3    H128751   6.535   4.144  11.874 -0.0512  0.5596 -3.1329
 2420TIP3    H228752   6.594   4.073  11.754  0.6524 -4.3128 -0.0080
 2421TIP3   OH228753   3.787   5.473   4.067 -0.3648  0.1939 -0.0761
 2421TIP3    H128754   3.775   5.438   4.156 -0.4669 -0.5614 -0.3823
 2421TIP3    H228755   3.702   5.510   4.044 -0.7364 -0.8116 -0.3681
 2422TIP3   OH228756   0.642   1.175  11.733  0.0941 -0.7599 -0.3445
 2422TIP3    H128757   0.696   1.236  11.784  0.8854 -1.7180 -0.0361
 2422TIP3    H228758   0.553   1.189  11.766  0.4267 -0.5009  0.4448
 2423TIP3   OH228759   4.799   3.351   3.604  0.6491  0.3130 -0.5433
 2423TIP3    H128760   4.799   3.425   3.664  1.6690 -0.3245  0.2566
 2423TIP3    H228761   4.880   3.304   3.623  0.3664 -0.6111 -1.5372
 2424TIP3   OH228762   5.999   6.232   0.039  0.2865 -0.4762  0.2824
 2424TIP3    H128763   6.019   6.207  -0.051 -2.3679  0.0988 -0.4963
 2424TIP3    H228764   6.085   6.243   0.080  1.5654  1.0393 -2.6501
 2425TIP3   OH228765   1.643   0.274  15.315 -0.1954  0.2129 -0.2327
 2425TIP3    H128766   1.657   0.293  15.222  0.0463 -1.7672 -0.6201
 2425TIP3    H228767   1.703   0.333  15.360 -0.0225  0.9168 -1.3542
 2426TIP3   OH228768   4.672   5.622  14.079 -0.3097  0.5627  0.0659
 2426TIP3    H128769   4.579   5.618  14.103 -0.4680  0.3300 -0.5614
 2426TIP3    H228770   4.686   5.544  14.026  0.4120  0.2445  0.7198
 2427TIP3   OH228771   0.539   6.507  13.591 -0.0214 -0.2977  0.1134
 2427TIP3    H128772   0.503   6.450  13.659  0.0584 -0.2314  0.2119
 2427TIP3    H228773   0.623   6.536  13.626  0.9613 -1.8635 -0.8642
 2428TIP3   OH228774   0.936   6.532  12.835 -0.5146 -0.0448 -0.5769
 2428TIP3    H128775   0.843   6.523  12.855 -1.0314 -0.2824 -2.9411
 2428TIP3    H228776   0.979   6.532  12.921 -2.5000 -2.0255  0.4839
 2429TIP3   OH228777   2.937   3.533   1.815 -0.0953 -0.2021 -0.0086
 2429TIP3    H128778   2.962   3.608   1.761 -1.0677 -0.7836 -1.3084
 2429TIP3    H228779   3.016   3.480   1.821  0.2963  0.3787 -0.0035
 2430TIP3   OH228780   2.898   0.227  13.037  0.4815  0.2392  0.3138
 2430TIP3    H128781   2.886   0.322  13.039  0.4070  0.2094  1.5842
 2430TIP3    H228782   2.920   0.204  13.127 -0.9336 -1.1333  0.3220
 2431TIP3   OH228783   4.829   5.626  16.052  0.3443  0.0915  0.7319
 2431TIP3    H128784   4.832   5.720  16.073 -0.4414  0.5767 -1.2341
 2431TIP3    H228785   4.757   5.592  16.105 -0.7716  1.0412 -0.1445
 2432TIP3   OH228786   3.444   2.268  11.423 -0.3671  0.4274  0.1024
 2432TIP3    H128787   3.482   2.274  11.511 -0.1602  0.8650 -0.0188
 2432TIP3    H228788   3.519   2.266  11.364 -0.3506 -3.3303  0.1055
 2433TIP3   OH228789   6.082   2.114   0.857  0.2136  0.2966 -0.2309
 2433TIP3    H128790   6.069   2.082   0.768 -0.5929 -0.1008  0.0274
 2433TIP3    H228791   6.171   2.085   0.880  0.4541  0.4677 -0.9287
 2434TIP3   OH228792   6.377   2.616   1.964  0.0602 -0.2143  0.6841
 2434TIP3    H128793   6.459   2.567   1.959  1.5858  2.3903 -1.0341
 2434TIP3    H228794   6.314   2.554   2.000  1.9907 -3.2814 -1.0264
 2435TIP3   OH228795   5.174   1.573   1.453 -0.1855 -0.2750  0.0933
 2435TIP3    H128796   5.100   1.587   1.511  0.8979 -0.1466  1.4852
 2435TIP3    H228797   5.251   1.575   1.511  0.8533 -1.0222 -1.2133
 2436TIP3   OH228798   6.114   0.410  13.306 -0.5433 -0.8160 -0.2764
 2436TIP3    H128799   6.117   0.499  13.341 -0.6672 -2.0336  3.0155
 2436TIP3    H228800   6.028   0.403  13.266  0.3014  1.2153 -2.5701
 2437TIP3   OH228801   6.493   0.569   1.548  0.4765  0.1687  0.2716
 2437TIP3    H128802   6.400   0.581   1.525  0.0280 -0.7354  1.5582
 2437TIP3    H228803   6.496   0.481   1.586  2.3504 -0.9141 -2.2485
 2438TIP3   OH228804   6.786   4.565   6.656  0.5488  0.2589  0.4638
 2438TIP3    H128805   6.789   4.566   6.560  0.4014 -1.2722  0.4184
 2438TIP3    H228806   6.719   4.630   6.678  0.3350  0.3778 -0.4891
 2439TIP3   OH228807   5.840   3.322   2.269  0.6302 -0.1165  0.6170
 2439TIP3    H128808   5.905   3.391   2.256  0.7682 -0.4678 -0.7120
 2439TIP3    H228809   5.758   3.360   2.236  0.8461 -0.8019 -0.7677
 2440TIP3   OH228810   6.306   5.464   4.038  0.2368 -0.1081  0.1487
 2440TIP3    H128811   6.224   5.494   3.997  0.1581 -1.7055 -0.9202
 2440TIP3    H228812   6.367   5.536   4.024  0.0179 -0.3327 -2.2590
 2441TIP3   OH228813   1.995   3.089  16.307  0.3290 -0.1206  0.1813
 2441TIP3    H128814   2.025   3.024  16.370  1.2026 -0.9952 -1.1288
 2441TIP3    H228815   1.910   3.117  16.340  1.4815  0.6372  2.6472
 2442TIP3   OH228816   2.803   1.068   6.662 -0.3024 -0.5722  0.2567
 2442TIP3    H128817   2.804   0.986   6.711 -0.3277 -0.7720 -0.0755
 2442TIP3    H228818   2.852   1.049   6.582  0.1684 -0.1094  0.4273
 2443TIP3   OH228819   3.492   0.659  15.389 -0.1286 -0.2680  0.0469
 2443TIP3    H128820   3.543   0.578  15.390  1.5207  0.7105 -1.3149
 2443TIP3    H228821   3.498   0.690  15.299 -1.9785  0.6309  0.2052
 2444TIP3   OH228822   2.572   1.021   3.887  0.0882 -0.5629 -0.5797
 2444TIP3    H128823   2.506   1.037   3.820 -0.9946 -0.0479  0.5865
 2444TIP3    H228824   2.524   1.026   3.970  1.2933 -1.7278  0.2129
 2445TIP3   OH228825   3.170   0.947  16.095 -0.2153 -0.1128 -0.0724
 2445TIP3    H128826   3.151   1.030  16.050 -1.5924  0.2757  1.1708
 2445TIP3    H228827   3.263   0.953  16.116  0.1087  0.3421 -1.5377
 2446TIP3   OH228828   5.218   5.036   4.514  0.3388  0.5550  0.5878
 2446TIP3    H128829   5.205   5.100   4.444  0.6423 -1.6017 -1.4972
 2446TIP3    H228830   5.130   5.012   4.542  0.1982  0.6346  0.2157
 2447TIP3   OH228831   3.597   1.149  14.396  0.3079  0.3542  0.2157
 2447TIP3    H128832   3.538   1.146  14.471  1.0677 -4.7945  0.8003
 2447TIP3    H228833   3.541   1.171  14.322 -2.1206 -2.7308  1.0326
 2448TIP3   OH228834   0.468   5.453   1.098 -0.0336  0.5434 -0.2776
 2448TIP3    H128835   0.424   5.381   1.054  0.0790  0.2487  0.0883
 2448TIP3    H228836   0.550   5.415   1.130  0.5477  1.1164 -1.0612
 2449TIP3   OH228837   3.597   2.368  12.086  0.2323  0.0328  0.1866
 2449TIP3    H128838   3.621   2.405  12.001 -1.1873  0.0641 -0.2149
 2449TIP3    H228839   3.511   2.329  12.071 -0.2913  0.5680  1.7633
 2450TIP3   OH228840   3.512   1.376  17.123 -0.1148 -1.0281  0.0545
 2450TIP3    H128841   3.582   1.349  17.183  1.5651 -0.4665 -1.6085
 2450TIP3    H228842   3.466   1.446  17.170  0.7369 -1.0857  0.9904
 2451TIP3   OH228843   4.773   3.139   5.606  0.6068  0.3363 -0.3439
 2451TIP3    H128844   4.841   3.072   5.604  1.7984  1.5573 -0.8054
 2451TIP3    H228845   4.762   3.160   5.699  0.4606 -0.2491 -0.2251
 2452TIP3   OH228846   5.658   0.031   5.962 -1.2746  0.6386 -0.6649
 2452TIP3    H128847   5.695  -0.015   6.037 -1.4739  1.8892  0.2117
 2452TIP3    H228848   5.731   0.041   5.901 -0.9459  0.2360 -0.3359
 2453TIP3   OH228849   0.303   2.735   0.512  0.2910 -0.3729 -0.1022
 2453TIP3    H128850   0.252   2.780   0.444  1.0295 -0.8693 -0.9899
 2453TIP3    H228851   0.272   2.644   0.509  0.9632 -0.5980 -0.4040
 2454TIP3   OH228852   1.246   1.837  15.229 -0.3384  0.3362  0.1115
 2454TIP3    H128853   1.227   1.744  15.217 -1.2154  0.4212  0.8134
 2454TIP3    H228854   1.185   1.866  15.297 -0.2599  1.4837 -0.2859
 2455TIP3   OH228855   5.327   4.575   5.005  0.5865  0.2475 -0.6958
 2455TIP3    H128856   5.315   4.546   4.915  1.8151 -1.6683 -0.2682
 2455TIP3    H228857   5.416   4.549   5.027 -0.1267 -0.4260  1.4856
 2456TIP3   OH228858   2.141   6.584  11.222 -0.1029  0.1757 -0.1499
 2456TIP3    H128859   2.103   6.549  11.141 -0.4988  0.0252  0.1011
 2456TIP3    H228860   2.113   6.676  11.224  1.8892  0.8438 -1.3911
 2457TIP3   OH228861   0.856   6.695  11.882 -0.2483 -0.2028  0.1770
 2457TIP3    H128862   0.801   6.660  11.953 -0.1472 -0.1404  0.2854
 2457TIP3    H228863   0.931   6.734  11.927 -0.2152 -0.1078  0.0378
 2458TIP3   OH228864   0.616   2.549   2.925  0.0231  0.1227  0.0675
 2458TIP3    H128865   0.560   2.606   2.977 -0.7912 -1.9509  1.5402
 2458TIP3    H228866   0.557   2.505   2.864 -0.0564 -2.3086  1.8382
 2459TIP3   OH228867   6.337   5.216  10.669 -0.0145  0.2534 -0.0029
 2459TIP3    H128868   6.261   5.269  10.646 -2.1851 -1.9868  1.7427
 2459TIP3    H228869   6.327   5.136  10.617  2.3323  0.7983 -1.3684
 2460TIP3   OH228870   6.722   4.924   0.712 -0.2777 -0.3966  0.5915
 2460TIP3    H128871   6.662   4.991   0.748  2.6302  2.6315  0.0663
 2460TIP3    H228872   6.786   4.910   0.782  2.0367  1.1795 -1.1449
 2461TIP3   OH228873   5.281   4.102   1.458  0.4041 -0.6460  0.1972
 2461TIP3    H128874   5.341   4.046   1.508 -0.0599 -2.4128 -1.1948
 2461TIP3    H228875   5.203   4.109   1.514  1.4398  0.7779  1.5271
 2462TIP3   OH228876   4.974   0.466   4.175 -0.0611 -0.7837  0.1891
 2462TIP3    H128877   4.987   0.389   4.229  1.6754  0.5836  1.7680
 2462TIP3    H228878   4.886   0.497   4.199 -0.5749 -1.9863 -0.1144
 2463TIP3   OH228879   4.231   5.045  14.709 -0.3198  0.0425 -0.0698
 2463TIP3    H128880   4.165   5.106  14.676  1.3140  0.7541 -2.1818
 2463TIP3    H228881   4.309   5.063  14.655  1.3816 -1.2305  1.8879
 2464TIP3   OH228882   2.342   4.728  16.803 -0.7521  0.2204 -0.3221
 2464TIP3    H128883   2.416   4.716  16.863  0.2263  0.7063 -1.4316
 2464TIP3    H228884   2.338   4.822  16.788 -2.0403  0.2776  0.2659
 2465TIP3   OH228885   5.952   4.498   1.680  0.4233 -0.9133 -0.5158
 2465TIP3    H128886   5.998   4.423   1.642  1.5622  1.2178 -3.5409
 2465TIP3    H228887   5.942   4.560   1.607 -2.5102  0.9449  1.3441
 2466TIP3   OH228888   3.485   0.644  11.701  0.1277 -0.0830 -0.1959
 2466TIP3    H128889   3.560   0.585  11.690  0.3913  0.7736 -3.1618
 2466TIP3    H228890   3.520   0.719  11.749  0.6666 -0.5812  0.2034
 2467TIP3   OH228891   2.960   1.047  14.891 -0.5545 -0.3188  0.9110
 2467TIP3    H128892   2.892   0.991  14.853 -0.8599  0.7542 -0.1468
 2467TIP3    H228893   2.975   1.010  14.978  0.0434 -2.7328 -0.1535
 2468TIP3   OH228894   4.289   6.071   1.960 -0.4478 -0.0870 -0.1823
 2468TIP3    H128895   4.366   6.014   1.956 -0.4052 -0.0259 -0.2305
 2468TIP3    H228896   4.237   6.036   2.033 -0.2798 -0.0107 -0.0242
 2469TIP3   OH228897   4.442   3.657  11.465 -0.2305 -0.1027  0.3600
 2469TIP3    H128898   4.519   3.714  11.465 -1.3721  1.4885 -1.3578
 2469TIP3    H228899   4.433   3.628  11.374 -2.1164  0.3636  0.3831
 2470TIP3   OH228900   3.843   5.573  12.642 -0.2191 -0.3637  0.1515
 2470TIP3    H128901   3.847   5.641  12.575 -1.2272 -0.5685 -0.1125
 2470TIP3    H228902   3.860   5.492  12.595  2.5205 -0.1811  0.7037
 2471TIP3   OH228903   1.344   1.874  10.480  0.3402 -0.7797 -0.4507
 2471TIP3    H128904   1.341   1.935  10.407 -1.3574  2.2809  2.0417
 2471TIP3    H228905   1.261   1.827  10.474  1.0465 -1.9276 -1.5625
 2472TIP3   OH228906   4.068   6.701  16.402 -0.3385  0.1091  0.2482
 2472TIP3    H128907   4.061   6.796  16.390 -0.9425 -0.0860 -0.9692
 2472TIP3    H228908   3.980   6.673  16.425 -0.5294 -0.3789 -1.0398
 2473TIP3   OH228909   0.955   0.137   6.783  0.5622  0.4363 -0.3132
 2473TIP3    H128910   0.992   0.079   6.850 -0.7687  0.0686  0.1037
 2473TIP3    H228911   1.025   0.200   6.766  1.1177  0.1993  1.0008
 2474TIP3   OH228912   0.347   2.340   4.468  0.4112  0.0790 -0.1201
 2474TIP3    H128913   0.326   2.255   4.430  1.1350 -0.0499 -0.2347
 2474TIP3    H228914   0.420   2.324   4.527 -0.7527  0.2773  1.3997
 2475TIP3   OH228915   5.323   3.416  13.138  0.2334  0.4264 -0.2717
 2475TIP3    H128916   5.259   3.479  13.171  0.7376  0.5066  0.5525
 2475TIP3    H228917   5.321   3.345  13.201 -0.3608 -0.4178 -1.2184
 2476TIP3   OH228918   0.757   0.748  14.469  0.2393 -0.0214 -0.2099
 2476TIP3    H128919   0.786   0.797  14.391 -1.5002 -0.2395 -1.0228
 2476TIP3    H228920   0.738   0.816  14.534 -0.1890  0.2853 -0.6475
 2477TIP3   OH228921   2.896   3.112   4.956 -0.3203  0.7141  0.1978
 2477TIP3    H128922   2.947   3.091   4.878 -1.7957  2.4215 -1.2556
 2477TIP3    H228923   2.961   3.116   5.027  0.9695 -1.2805 -0.8067
 2478TIP3   OH228924   4.259   3.729  15.268  0.2998  0.8862 -0.8276
 2478TIP3    H128925   4.244   3.635  15.254  0.6562  0.5437  0.9616
 2478TIP3    H228926   4.232   3.770  15.186  0.5204 -0.8170 -1.7715
 2479TIP3   OH228927   0.388   5.832   6.312  0.4469 -0.0623 -0.7134
 2479TIP3    H128928   0.333   5.775   6.365  0.1624  0.4956 -0.4031
 2479TIP3    H228929   0.333   5.908   6.294  0.4073 -0.4183 -2.1271
 2480TIP3   OH228930   0.136   3.090  15.882  0.3047  0.2351 -0.4236
 2480TIP3    H128931   0.177   3.151  15.943 -1.0052  2.7451 -1.9907
 2480TIP3    H228932   0.043   3.093  15.903 -0.3369  2.0915 -3.3168
 2481TIP3   OH228933   3.778   0.324  13.897 -0.4310 -0.1539 -0.0242
 2481TIP3    H128934   3.724   0.388  13.944  0.7714 -0.9682  2.5274
 2481TIP3    H228935   3.718   0.254  13.874 -0.6943 -0.5995  1.9390
 2482TIP3   OH228936   1.270   1.141  13.985  0.2361 -0.6659 -0.4848
 2482TIP3    H128937   1.272   1.231  14.016 -0.5317 -0.9399  0.3702
 2482TIP3    H228938   1.359   1.108  14.002  0.2248 -0.3853  0.1193
 2483TIP3   OH228939   0.606   1.080  16.446  0.0486  0.1250  0.2291
 2483TIP3    H128940   0.544   1.146  16.476 -2.5026 -2.6217  1.2111
 2483TIP3    H228941   0.659   1.059  16.523 -0.1247 -0.0487  0.3012
 2484TIP3   OH228942   1.592   6.633  15.558 -0.4754  0.2841  0.3066
 2484TIP3    H128943   1.602   6.702  15.492 -0.3171  0.3209  0.3707
 2484TIP3    H228944   1.634   6.556  15.518 -2.7869 -0.4653 -0.8305
 2485TIP3   OH228945   3.007   0.902   2.687 -0.9205 -0.3075 -0.3139
 2485TIP3    H128946   2.966   0.988   2.693 -1.5529 -0.6220 -0.1521
 2485TIP3    H228947   2.941   0.846   2.646 -0.6679 -0.8157 -0.0341
 2486TIP3   OH228948   1.761   1.922   3.130  0.1171  0.3310  0.0754
 2486TIP3    H128949   1.783   2.012   3.106 -0.7195  0.2887 -0.9066
 2486TIP3    H228950   1.845   1.876   3.135  0.4924  0.9953 -0.1469
 2487TIP3   OH228951   5.349   4.530  13.271  0.1147  0.8484  0.1879
 2487TIP3    H128952   5.379   4.613  13.234  0.5987 -0.2645 -1.9952
 2487TIP3    H228953   5.419   4.504  13.331  1.9437  0.0371 -2.1986
 2488TIP3   OH228954   3.474   3.366  13.737  0.4637 -0.1234  0.1288
 2488TIP3    H128955   3.518   3.323  13.810 -0.7709 -1.0904  0.3281
 2488TIP3    H228956   3.388   3.390  13.771  0.5872  1.1742 -0.4379
 2489TIP3   OH228957   2.998   2.888   0.072  0.2895  0.1300  0.4705
 2489TIP3    H128958   2.918   2.873   0.022 -1.3240  2.0285  2.3757
 2489TIP3    H228959   3.044   2.956   0.023 -0.7526  1.2061  0.9711
 2490TIP3   OH228960   2.244   6.786   3.256 -0.0957  0.2973 -0.0168
 2490TIP3    H128961   2.316   6.815   3.311  0.5071 -1.3140  0.0946
 2490TIP3    H228962   2.267   6.817   3.168  0.4030  0.3923  0.1456
 2491TIP3   OH228963   4.251   4.781  11.890 -0.5128 -0.0102  0.6680
 2491TIP3    H128964   4.332   4.730  11.883  0.6821  1.8713  0.3267
 2491TIP3    H228965   4.206   4.768  11.807 -1.0144 -1.8051  1.2141
 2492TIP3   OH228966   0.565   2.384   3.527  0.5939  0.0986 -0.5590
 2492TIP3    H128967   0.537   2.438   3.452 -1.3069 -1.3114 -0.9250
 2492TIP3    H228968   0.639   2.334   3.493  0.7664  0.6381 -0.9996
 2493TIP3   OH228969   0.163   1.695  13.331  0.5895 -0.3547 -1.0183
 2493TIP3    H128970   0.092   1.702  13.267  0.6247  3.3878 -0.7733
 2493TIP3    H228971   0.145   1.614  13.379 -3.3968  0.3889 -1.1224
 2494TIP3   OH228972   4.370   3.007   5.332  0.3895 -0.2527  0.4455
 2494TIP3    H128973   4.461   3.032   5.350  0.8617 -1.3572 -0.3220
 2494TIP3    H228974   4.350   3.049   5.248  1.1812 -2.3664 -0.8426
 2495TIP3   OH228975   3.993   0.762  15.036  0.3141 -0.1740  0.0093
 2495TIP3    H128976   3.940   0.715  14.972  1.3619  1.4250 -2.1079
 2495TIP3    H228977   4.000   0.702  15.110 -0.8517 -2.1344 -1.4075
 2496TIP3   OH228978   3.737   5.753  15.851 -0.0484  0.8211 -0.2098
 2496TIP3    H128979   3.690   5.813  15.794 -1.8989  0.1365  0.5592
 2496TIP3    H228980   3.670   5.693  15.884  1.4221 -0.4097  0.6269
 2497TIP3   OH228981   4.260   6.590   0.379  0.6125 -0.2043  0.2212
 2497TIP3    H128982   4.354   6.603   0.391  0.3954  0.4693  1.1747
 2497TIP3    H228983   4.219   6.670   0.413 -0.3017 -0.4382 -0.2960
 2498TIP3   OH228984   5.711   4.752  13.262  0.3166 -0.0152  0.2364
 2498TIP3    H128985   5.794   4.794  13.240  0.8238 -0.4942  1.2210
 2498TIP3    H228986   5.667   4.816  13.318  0.5354 -0.2585  0.6873
 2499TIP3   OH228987   3.493   1.267  12.419  0.0274  0.3359  0.1677
 2499TIP3    H128988   3.518   1.335  12.481 -0.0093  1.2281 -0.7937
 2499TIP3    H228989   3.406   1.238  12.449 -0.4166  1.4499 -0.0487
 2500TIP3   OH228990   6.329   5.869  14.551 -0.0696 -0.0850  0.1056
 2500TIP3    H128991   6.309   5.935  14.485 -0.8621 -1.3476 -0.9517
 2500TIP3    H228992   6.415   5.894  14.586  0.5310  0.3929 -1.6702
 2501TIP3   OH228993   3.865   5.053  13.740 -0.1225 -0.2147 -0.1631
 2501TIP3    H128994   3.843   4.999  13.816 -2.3916 -1.3705 -1.5857
 2501TIP3    H228995   3.921   4.997  13.686  0.1449  0.0049 -0.1127
 2502TIP3   OH228996   1.631   5.782   2.719 -0.1629 -0.1029  0.5323
 2502TIP3    H128997   1.695   5.849   2.744  0.5826 -0.5540 -0.1181
 2502TIP3    H228998   1.679   5.725   2.659 -0.8985 -1.0111  0.7924
 2503TIP3   OH228999   2.448   4.870  11.298  0.3348  0.7578 -0.1407
 2503TIP3    H129000   2.413   4.886  11.386 -0.2175 -0.4151 -0.1330
 2503TIP3    H229001   2.408   4.787  11.272 -0.3323  1.6208 -1.9344
 2504TIP3   OH229002   4.092   0.362   1.317 -0.2857 -0.5818  0.0323
 2504TIP3    H129003   4.012   0.312   1.300 -1.6142  0.7104  2.2689
 2504TIP3    H229004   4.068   0.453   1.296  1.1129 -0.3948 -0.8347
 2505TIP3   OH229005   6.063   5.085  10.742  0.2781  0.7453  0.1136
 2505TIP3    H129006   6.053   5.054  10.652 -0.6371  0.5539  0.2824
 2505TIP3    H229007   6.015   5.167  10.745 -0.7487  0.1287  0.7619
 2506TIP3   OH229008   0.687   5.947  11.381  0.1520 -0.1004 -0.3228
 2506TIP3    H129009   0.756   6.014  11.379  1.2949 -1.2909 -1.7882
 2506TIP3    H229010   0.645   5.954  11.295 -0.3175 -0.6354 -0.1339
 2507TIP3   OH229011   4.267   3.578   3.388 -0.0035  0.2311 -0.6122
 2507TIP3    H129012   4.203   3.626   3.440  0.2437 -0.3439  0.2372
 2507TIP3    H229013   4.243   3.486   3.399  0.3901  0.0702 -1.0602
 2508TIP3   OH229014   3.124   1.452   5.884  0.0373  0.2872 -0.7640
 2508TIP3    H129015   3.214   1.423   5.895 -0.2595 -0.8827 -1.3089
 2508TIP3    H229016   3.073   1.396   5.943 -0.4189  0.3913 -1.0516
 2509TIP3   OH229017   3.909   1.343  13.047 -0.5585 -0.7493  0.1682
 2509TIP3    H129018   3.864   1.280  13.104 -1.7751 -0.5526 -0.5597
 2509TIP3    H229019   3.839   1.383  12.996  0.1569  1.5167  0.9087
 2510TIP3   OH229020   2.273   2.261   5.075  0.5171 -0.1842 -0.2486
 2510TIP3    H129021   2.300   2.335   5.021  0.2005 -0.9037 -1.4232
 2510TIP3    H229022   2.205   2.296   5.132  1.1623  0.6933 -0.0029
 2511TIP3   OH229023   0.597   4.346  16.776 -0.2850  0.0929  0.5739
 2511TIP3    H129024   0.648   4.276  16.735  0.4727 -0.3411  2.2057
 2511TIP3    H229025   0.629   4.348  16.866 -2.0881  0.8461  1.2056
 2512TIP3   OH229026   1.826   2.396   4.917  0.5569 -0.3643  0.2644
 2512TIP3    H129027   1.841   2.485   4.950  0.8798 -0.3085 -0.0354
 2512TIP3    H229028   1.910   2.351   4.930  0.4285 -0.5937  0.3059
 2513TIP3   OH229029   6.272   5.283  13.928  0.6995  0.5136  0.2365
 2513TIP3    H129030   6.204   5.216  13.935  0.4686  0.6104 -0.8823
 2513TIP3    H229031   6.252   5.346  13.997  1.8865 -1.3952  2.3934
 2514TIP3   OH229032   0.453   2.676  11.737 -0.4499  0.2422  0.0911
 2514TIP3    H129033   0.367   2.639  11.753 -0.4005  0.1265  0.0889
 2514TIP3    H229034   0.472   2.728  11.815  0.3039 -1.2884  0.9389
 2515TIP3   OH229035   2.230   0.381   5.400 -0.0363 -0.1457 -0.8616
 2515TIP3    H129036   2.237   0.287   5.386 -2.5079 -0.5927  0.5337
 2515TIP3    H229037   2.144   0.404   5.365  0.3608  1.5125 -0.7835
 2516TIP3   OH229038   1.921   1.374  12.013  0.4432  0.5953  0.3551
 2516TIP3    H129039   1.874   1.451  11.980 -0.5175 -1.2809 -2.8611
 2516TIP3    H229040   2.013   1.399  12.008  0.1313  1.6788 -0.3202
 2517TIP3   OH229041   3.355   0.294  11.641  0.3908 -0.0428  0.1827
 2517TIP3    H129042   3.381   0.246  11.720  0.1319  0.1407  0.3784
 2517TIP3    H229043   3.414   0.260  11.573  1.0316  0.2379  0.5865
 2518TIP3   OH229044   2.762   0.040   6.697  0.2355 -0.3137 -0.1514
 2518TIP3    H129045   2.714  -0.039   6.725 -0.1867  0.2357  0.6916
 2518TIP3    H229046   2.801   0.074   6.777  2.6048 -1.1074 -0.9341
 2519TIP3   OH229047   6.429   2.097  17.213 -0.1013 -0.0136 -0.2121
 2519TIP3    H129048   6.354   2.090  17.272 -1.0553 -0.9157 -1.4898
 2519TIP3    H229049   6.488   2.026  17.240  0.3936  0.7993  0.8975
 2520TIP3   OH229050   0.135   6.288  15.176 -0.4885  0.3668  0.5778
 2520TIP3    H129051   0.097   6.256  15.257  0.3890  2.5954  1.9241
 2520TIP3    H229052   0.060   6.300  15.117 -1.5708  1.9530  2.2199
 2521TIP3   OH229053   0.747   4.448  17.027  0.3105  0.3679 -0.1127
 2521TIP3    H129054   0.709   4.420  17.111  0.1296  1.8310  0.3154
 2521TIP3    H229055   0.792   4.371  16.994 -0.1269 -0.4037  1.0547
 2522TIP3   OH229056   3.961   0.088   6.375 -0.0869 -0.4526  0.3947
 2522TIP3    H129057   3.919   0.069   6.291  1.2215 -1.6857  0.0170
 2522TIP3    H229058   3.888   0.101   6.435 -1.0260 -0.8537 -0.6401
 2523TIP3   OH229059   1.700   5.105  13.584  0.2391  0.1267 -0.1992
 2523TIP3    H129060   1.616   5.107  13.538  0.5483 -3.1654 -0.9999
 2523TIP3    H229061   1.755   5.166  13.535 -0.5992 -0.4088 -1.8409
 2524TIP3   OH229062   5.571   2.421   4.406  0.0506 -0.0837  0.6737
 2524TIP3    H129063   5.613   2.386   4.327  1.2376  0.6182  0.9846
 2524TIP3    H229064   5.583   2.352   4.472  1.4751  0.4356  0.9922
 2525TIP3   OH229065   0.220   0.167  16.859  0.1718  0.6854  0.5601
 2525TIP3    H129066   0.155   0.210  16.915 -0.6066 -1.4923  1.3821
 2525TIP3    H229067   0.276   0.118  16.920  1.7261  1.4085 -0.2598
 2526TIP3   OH229068   2.334   4.189   2.319 -0.2489 -0.0621  0.1314
 2526TIP3    H129069   2.321   4.094   2.326  1.3217 -0.0917  3.2863
 2526TIP3    H229070   2.257   4.226   2.363  0.3112  0.0799  0.9944
 2527TIP3   OH229071   3.859   2.896   6.066  0.3327 -0.4519 -0.9086
 2527TIP3    H129072   3.853   2.828   5.999 -1.4247 -0.5656 -0.6627
 2527TIP3    H229073   3.894   2.851   6.143  1.0497 -0.6318 -1.3367
 2528TIP3   OH229074   2.835   0.592   2.377 -0.4616  0.9547  0.1247
 2528TIP3    H129075   2.835   0.593   2.473 -1.3038 -1.0682  0.1672
 2528TIP3    H229076   2.752   0.632   2.353 -1.2008 -0.4707  0.2870
 2529TIP3   OH229077   1.423   6.596   0.062 -0.4364  0.3314  0.8432
 2529TIP3    H129078   1.493   6.658   0.080  0.2501 -0.1286 -0.1980
 2529TIP3    H229079   1.427   6.533   0.134  0.5349  0.0357  0.5356
 2530TIP3   OH229080   2.480   5.649  16.576 -0.1032  0.1216 -0.1878
 2530TIP3    H129081   2.412   5.672  16.511 -1.0535  0.3867  0.8822
 2530TIP3    H229082   2.434   5.649  16.660  0.9136 -1.1708  0.3862
 2531TIP3   OH229083   0.466   4.547  13.059  0.1143 -0.3259  0.1911
 2531TIP3    H129084   0.414   4.626  13.075 -2.7744 -1.9543 -0.9457
 2531TIP3    H229085   0.487   4.551  12.965 -1.1931 -1.5822 -0.1611
 2532TIP3   OH229086   5.077   5.193  15.560 -0.2162  0.1383 -0.8122
 2532TIP3    H129087   5.036   5.271  15.524 -0.6409 -0.6659 -2.0869
 2532TIP3    H229088   5.134   5.226  15.629 -3.8162  1.1951  1.8086
 2533TIP3   OH229089   5.367   1.196  11.544  0.2043  0.5531 -0.2614
 2533TIP3    H129090   5.275   1.194  11.519  0.2119  0.6374 -0.2979
 2533TIP3    H229091   5.366   1.210  11.639  0.1617 -0.9530 -0.0353
 2534TIP3   OH229092   1.033   0.220  12.237  1.0802 -0.1204  0.2732
 2534TIP3    H129093   0.959   0.267  12.275  0.6717 -0.3671 -0.2067
 2534TIP3    H229094   1.100   0.288  12.224  1.2245 -0.0412  1.4244
 2535TIP3   OH229095   0.624   5.366  12.771 -0.4485 -0.7013 -0.4460
 2535TIP3    H129096   0.591   5.346  12.683  0.7540  1.0762 -1.3307
 2535TIP3    H229097   0.713   5.330  12.772 -0.8622 -1.7396  0.4679
 2536TIP3   OH229098   1.648   5.613  15.893  0.5275 -0.2782 -0.0753
 2536TIP3    H129099   1.744   5.613  15.889  0.5371  0.5079  0.1186
 2536TIP3    H229100   1.627   5.551  15.962  0.9154 -0.0668  0.2358
 2537TIP3   OH229101   1.319   1.867   0.714 -0.3616  0.3352  0.1045
 2537TIP3    H129102   1.354   1.879   0.803  0.2190  1.2898 -0.2417
 2537TIP3    H229103   1.396   1.873   0.658 -0.7441 -0.1678 -0.4832
 2538TIP3   OH229104   4.831   4.400  10.803  0.1815 -0.1352 -0.0792
 2538TIP3    H129105   4.787   4.329  10.756 -2.0317 -0.0431  1.7531
 2538TIP3    H229106   4.913   4.414  10.755 -1.0026 -1.4811 -2.5941
 2539TIP3   OH229107   4.873   5.178  12.731  0.0280 -0.3713 -0.1734
 2539TIP3    H129108   4.862   5.138  12.817 -2.0194  0.7054  0.1126
 2539TIP3    H229109   4.833   5.116  12.670  2.3040 -1.5625 -0.4753
 2540TIP3   OH229110   5.114   2.313  14.278  0.1496 -0.4490  0.4005
 2540TIP3    H129111   5.025   2.318  14.311  0.1380  0.3962  0.2604
 2540TIP3    H229112   5.107   2.268  14.194 -0.4268  1.4858 -0.6097
 2541TIP3   OH229113   2.532   0.326   3.412 -0.0940  0.6821 -0.1687
 2541TIP3    H129114   2.624   0.299   3.413 -0.1601  0.4526  1.1502
 2541TIP3    H229115   2.527   0.396   3.478 -0.7693  0.9916 -0.5482
 2542TIP3   OH229116   4.074   1.053   6.261  0.0703 -0.1579 -0.8226
 2542TIP3    H129117   4.005   0.989   6.246 -0.0482 -0.0743 -0.6463
 2542TIP3    H229118   4.091   1.092   6.175 -1.7958  1.5308 -0.4586
 2543TIP3   OH229119   6.298   6.286  16.055  0.2551 -0.1268 -0.2411
 2543TIP3    H129120   6.226   6.233  16.021  1.6843 -0.5899 -2.7194
 2543TIP3    H229121   6.373   6.260  16.002  2.3670  0.0046  2.5749
 2544TIP3   OH229122   2.125   6.469  11.470  0.1147 -0.0655 -0.3225
 2544TIP3    H129123   2.099   6.512  11.388 -2.5657 -1.3215 -0.2070
 2544TIP3    H229124   2.093   6.379  11.461  1.7319 -0.8310  1.2321
 2545TIP3   OH229125   6.721   4.622  15.890  0.4675  0.2180 -0.2592
 2545TIP3    H129126   6.719   4.665  15.804 -0.7174  0.0900 -0.3054
 2545TIP3    H229127   6.779   4.677  15.943  0.9660  0.4651 -1.0420
 2546TIP3   OH229128   2.277   1.458  16.059 -0.2644 -0.5517 -0.4059
 2546TIP3    H129129   2.366   1.425  16.053  0.8600  2.0528  0.8598
 2546TIP3    H229130   2.240   1.414  16.136  0.1830 -1.0842 -0.4948
 2547TIP3   OH229131   4.967   5.552  12.611 -0.0226  0.2186  0.4633
 2547TIP3    H129132   5.011   5.637  12.613 -1.7269  1.1156  1.3145
 2547TIP3    H229133   4.988   5.517  12.524  1.3813  1.1252  0.4048
 2548TIP3   OH229134   3.530   0.150   6.259 -0.0536  0.5404  0.3197
 2548TIP3    H129135   3.479   0.227   6.285  1.7394  0.9848  2.5876
 2548TIP3    H229136   3.536   0.097   6.338  4.6687  1.4602  0.7083
 2549TIP3   OH229137   4.988   4.076   3.334 -0.0073 -0.0876 -0.2984
 2549TIP3    H129138   4.894   4.092   3.339 -0.0980 -0.9455  1.0824
 2549TIP3    H229139   5.010   4.086   3.241 -1.8936 -2.3488 -1.0119
 2550TIP3   OH229140   1.223   1.360   6.622  0.2429 -0.1228 -0.1598
 2550TIP3    H129141   1.210   1.300   6.549  0.7870  1.2812 -1.4449
 2550TIP3    H229142   1.279   1.312   6.683  2.7331 -0.0473 -2.2985
 2551TIP3   OH229143   3.294   4.306  12.865 -0.0143  1.2289 -0.3789
 2551TIP3    H129144   3.241   4.359  12.923  1.1371 -0.3808  2.2157
 2551TIP3    H229145   3.232   4.250  12.819 -0.6942  0.2713  1.6685
 2552TIP3   OH229146   4.326   4.638  11.030  0.2321 -0.1595  0.2895
 2552TIP3    H129147   4.240   4.604  11.006  1.3145 -2.1044 -0.8832
 2552TIP3    H229148   4.369   4.566  11.076  2.6082 -0.5032 -2.3718
 2553TIP3   OH229149   0.406   4.311  11.133  0.6798 -0.4450  0.1501
 2553TIP3    H129150   0.413   4.257  11.055 -1.1457 -0.0918 -0.2876
 2553TIP3    H229151   0.368   4.393  11.102 -0.1629 -0.3367  1.4153
 2554TIP3   OH229152   0.119   0.506  17.203  0.0983 -0.0557  0.0043
 2554TIP3    H129153   0.110   0.568  17.276  0.2617 -0.8611  0.7091
 2554TIP3    H229154   0.079   0.425  17.235 -0.6100 -0.1614 -1.1211
 2555TIP3   OH229155   1.755   2.245   2.202 -0.7021  0.1512 -0.0319
 2555TIP3    H129156   1.773   2.194   2.281  0.4955  0.6207  0.0114
 2555TIP3    H229157   1.736   2.333   2.234  1.0628  0.6611 -0.3212
 2556TIP3   OH229158   0.725   5.811  12.956  0.2138 -0.5378 -0.9102
 2556TIP3    H129159   0.759   5.891  12.996  2.1353 -2.0700  0.6370
 2556TIP3    H229160   0.630   5.818  12.966  0.4980  0.4420  1.4135
 2557TIP3   OH229161   2.122   2.752   3.943  0.4791  0.4169 -0.0548
 2557TIP3    H129162   2.120   2.762   3.848  1.1134 -0.7000 -0.1979
 2557TIP3    H229163   2.076   2.669   3.959 -0.4639  1.0774  0.6818
 2558TIP3   OH229164   4.890   6.759  15.434 -0.1208 -0.7626 -0.2303
 2558TIP3    H129165   4.853   6.745  15.347 -2.2810 -0.8118  0.6848
 2558TIP3    H229166   4.843   6.698  15.491  1.0095 -0.4595  1.0659
 2559TIP3   OH229167   4.703   2.515   1.534 -0.3765 -0.0789  0.2767
 2559TIP3    H129168   4.626   2.561   1.502  0.2268 -0.2610 -1.5260
 2559TIP3    H229169   4.701   2.527   1.629 -2.4697  0.1256  0.2237
 2560TIP3   OH229170   1.977   2.308   6.121  0.1487 -0.0462 -0.0551
 2560TIP3    H129171   2.067   2.339   6.135  0.4710 -2.0726  2.6943
 2560TIP3    H229172   1.929   2.336   6.199 -0.7946 -1.8610  0.0351
 2561TIP3   OH229173   6.228   3.331   5.922  0.1041  0.4754 -0.4997
 2561TIP3    H129174   6.241   3.272   5.996 -0.7263 -0.5515 -1.1463
 2561TIP3    H229175   6.244   3.276   5.845  1.9750  1.7828 -1.0785
 2562TIP3   OH229176   4.516   5.023  15.314  0.0058  0.1763  0.1919
 2562TIP3    H129177   4.514   5.112  15.278  0.2482  0.1009 -0.0124
 2562TIP3    H229178   4.503   4.966  15.238 -0.9406  0.0585  0.4258
 2563TIP3   OH229179   6.334   6.030   2.698  0.3460  0.2704  0.1663
 2563TIP3    H129180   6.265   5.970   2.728 -0.2504 -0.0809 -1.8837
 2563TIP3    H229181   6.383   5.980   2.633 -0.5988  2.2203 -2.1105
 2564TIP3   OH229182   5.090   0.938   4.011 -0.1681  0.2809  0.2967
 2564TIP3    H129183   5.056   1.005   4.070 -0.4628  0.6701 -0.3174
 2564TIP3    H229184   5.183   0.959   4.003 -0.1293  0.2357  0.6113
 2565TIP3   OH229185   4.413   1.436   5.053 -0.8921 -0.2427  0.6456
 2565TIP3    H129186   4.454   1.365   5.102 -0.3906 -1.7898 -1.8907
 2565TIP3    H229187   4.470   1.511   5.066  0.4408 -1.2375  0.5783
 2566TIP3   OH229188   3.351   3.604  10.394  0.7294  0.0044 -0.1694
 2566TIP3    H129189   3.338   3.510  10.404 -0.0078 -0.1634 -2.3765
 2566TIP3    H229190   3.266   3.636  10.363  1.3008  1.2268 -0.5017
 2567TIP3   OH229191   2.492   6.218  12.140  0.5423  0.3987 -0.2185
 2567TIP3    H129192   2.422   6.280  12.119 -1.6828 -1.1226  2.3886
 2567TIP3    H229193   2.481   6.147  12.077 -1.2761 -0.5657  1.1563
 2568TIP3   OH229194   2.929   3.690   0.697 -0.0586  0.4464  0.0553
 2568TIP3    H129195   2.852   3.701   0.753  0.8005  2.0141  0.9640
 2568TIP3    H229196   3.000   3.671   0.758  0.3898 -0.4534 -0.7410
 2569TIP3   OH229197   1.052   6.355   5.318 -0.5059 -0.2468  0.2139
 2569TIP3    H129198   0.958   6.339   5.317 -0.6634  0.4984  1.5919
 2569TIP3    H229199   1.064   6.429   5.377  0.8687  0.2122 -0.6081
 2570TIP3   OH229200   0.450   6.695  16.850  0.0056 -0.0141  0.0473
 2570TIP3    H129201   0.382   6.628  16.846  0.3124 -0.3423  0.2574
 2570TIP3    H229202   0.468   6.717  16.758  1.0028 -1.3442 -0.0942
 2571TIP3   OH229203   3.471   6.495  13.560  0.4069  0.0669 -0.4081
 2571TIP3    H129204   3.458   6.416  13.612  0.5842 -0.3930 -1.0676
 2571TIP3    H229205   3.508   6.558  13.622 -1.4953  0.2391  0.6000
 2572TIP3   OH229206   5.698   6.070  12.468  0.1160 -0.1782 -1.1332
 2572TIP3    H129207   5.730   5.982  12.449  0.0242 -0.4042 -0.2706
 2572TIP3    H229208   5.603   6.061  12.472 -0.0252  0.3353 -2.9010
 2573TIP3   OH229209   6.677   2.753   4.399  0.4863 -0.8580 -0.0207
 2573TIP3    H129210   6.713   2.728   4.314 -0.4404  0.2783 -0.7641
 2573TIP3    H229211   6.636   2.673   4.432  2.2605 -1.7334  0.1034
 2574TIP3   OH229212   3.566   0.279  16.123  0.5782  0.1772 -0.2868
 2574TIP3    H129213   3.526   0.211  16.178 -0.8149  0.8899 -0.3826
 2574TIP3    H229214   3.613   0.231  16.055 -2.3528 -0.7371 -1.7714
 2575TIP3   OH229215   6.503   0.953   3.220  0.1434 -0.2877  0.3285
 2575TIP3    H129216   6.544   1.004   3.291  0.7299  0.9275 -0.8487
 2575TIP3    H229217   6.557   0.874   3.214  2.1114  1.1079 -0.9220
 2576TIP3   OH229218   1.973   3.671   4.691  0.5309  0.3852 -0.2178
 2576TIP3    H129219   1.987   3.589   4.738  0.6649 -0.1161 -1.1175
 2576TIP3    H229220   2.029   3.735   4.735 -0.9061  0.4252  1.6059
 2577TIP3   OH229221   1.055   1.925  15.428  0.7297  0.0210  0.2970
 2577TIP3    H129222   0.980   1.981  15.409 -0.6025 -1.3967  1.2467
 2577TIP3    H229223   1.065   1.930  15.523  2.0462  0.4337  0.1517
 2578TIP3   OH229224   0.192   6.261  11.003 -0.2897 -0.4387 -1.1660
 2578TIP3    H129225   0.221   6.173  10.979 -0.6003 -0.8250 -0.1575
 2578TIP3    H229226   0.226   6.274  11.091 -0.3511  0.4064 -1.2668
 2579TIP3   OH229227   1.622   6.084   0.617 -0.0720 -0.2741  0.0069
 2579TIP3    H129228   1.610   6.105   0.524 -0.2810 -0.2115  0.0488
 2579TIP3    H229229   1.667   6.160   0.653 -0.9190  0.1461  0.1811
 2580TIP3   OH229230   6.500   2.402   0.353 -0.5502  0.8777  0.0634
 2580TIP3    H129231   6.522   2.484   0.308  0.4099  0.8291  0.4231
 2580TIP3    H229232   6.555   2.403   0.432  2.5307 -2.0133 -1.9286
 2581TIP3   OH229233   1.264   3.177   3.849  0.4291  0.2700 -0.4486
 2581TIP3    H129234   1.187   3.217   3.889  1.4009  1.9511 -0.2225
 2581TIP3    H229235   1.337   3.201   3.907  1.1720 -1.0943 -0.7903
 2582TIP3   OH229236   0.114   3.830  15.625 -0.5033  0.0694 -0.3282
 2582TIP3    H129237   0.126   3.870  15.711  0.2819 -0.0269 -0.3878
 2582TIP3    H229238   0.162   3.748  15.630  1.8283  1.2915 -1.7310
 2583TIP3   OH229239   6.361   0.214  12.689 -0.3818 -0.9054 -0.1173
 2583TIP3    H129240   6.373   0.238  12.781 -0.0060  3.4181 -1.1758
 2583TIP3    H229241   6.284   0.265  12.661  1.4147  0.3657 -2.9502
 2584TIP3   OH229242   4.111   0.657   4.517 -0.3169  0.2679 -0.2036
 2584TIP3    H129243   4.200   0.651   4.552 -0.4686  2.6552  0.7044
 2584TIP3    H229244   4.121   0.642   4.423  1.0719  0.6285 -0.1199
 2585TIP3   OH229245   6.763   0.963   5.443  0.0035  0.3810  0.2703
 2585TIP3    H129246   6.826   0.987   5.375  0.8024  0.7419  1.1194
 2585TIP3    H229247   6.696   1.031   5.440  0.1665  0.5296  0.0086
 2586TIP3   OH229248   4.803   6.279  12.165 -0.3748 -0.4716  0.1601
 2586TIP3    H129249   4.791   6.370  12.136  1.0616  1.3645  4.8083
 2586TIP3    H229250   4.716   6.251  12.192 -0.4147  0.5078  1.1216
 2587TIP3   OH229251   0.397   2.480   2.721  0.3556  0.4108  0.2610
 2587TIP3    H129252   0.357   2.545   2.664 -1.1634  0.2049  1.0499
 2587TIP3    H229253   0.356   2.397   2.695  1.0604  0.0268  0.3642
 2588TIP3   OH229254   6.491   0.023   3.938  0.0570 -0.0294 -0.2082
 2588TIP3    H129255   6.581   0.027   3.907 -0.1696  0.2395 -0.8529
 2588TIP3    H229256   6.443   0.082   3.880 -0.4348  0.2531  0.4737
 2589TIP3   OH229257   4.907   4.417  11.935  0.3830  0.0703  0.0471
 2589TIP3    H129258   4.937   4.333  11.970  1.2531 -0.4323 -1.8057
 2589TIP3    H229259   4.981   4.476  11.949  0.9852 -0.3014 -1.4969
 2590TIP3   OH229260   1.003   1.372   0.886  0.2873  0.0674  0.2732
 2590TIP3    H129261   1.043   1.328   0.961  2.2577  1.6416  0.1626
 2590TIP3    H229262   0.910   1.350   0.893  1.1308 -3.8597  0.4123
 2591TIP3   OH229263   2.189   2.029  11.317 -0.8184 -0.5548 -0.0277
 2591TIP3    H129264   2.153   2.104  11.270 -0.2266  0.1482  0.6067
 2591TIP3    H229265   2.118   1.966  11.321 -1.2194 -0.1607 -0.8691
 2592TIP3   OH229266   0.551   5.710  15.669  0.3973  0.1694 -0.3716
 2592TIP3    H129267   0.475   5.758  15.636  0.0357 -1.1020 -1.3812
 2592TIP3    H229268   0.523   5.678  15.755  0.5927  1.6208  0.2558
 2593TIP3   OH229269   4.771   6.800   2.782 -0.3299 -0.3623  0.3697
 2593TIP3    H129270   4.853   6.797   2.732  0.3715  0.6038  1.4222
 2593TIP3    H229271   4.789   6.746   2.859 -0.9634 -0.7885  0.2222
 2594TIP3   OH229272   6.070   6.342  13.228  0.0372 -0.3790  0.0462
 2594TIP3    H129273   6.084   6.404  13.157 -2.8634  1.8165  1.2889
 2594TIP3    H229274   6.129   6.370  13.298 -0.0259 -0.0630 -0.0292
 2595TIP3   OH229275   3.655   5.824  12.092  0.1925  0.6306  0.3669
 2595TIP3    H129276   3.600   5.859  12.161  0.3947 -1.6350  1.7265
 2595TIP3    H229277   3.708   5.757  12.135  0.6744 -0.4823 -1.8744
 2596TIP3   OH229278   5.000   2.097  14.840 -0.4978  0.2107  0.2321
 2596TIP3    H129279   5.017   2.054  14.757 -0.1001 -0.0650  0.4498
 2596TIP3    H229280   4.934   2.164  14.821 -2.4558 -1.6694  0.2260
 2597TIP3   OH229281   5.371   4.622   0.030 -0.8452  0.4679 -0.0239
 2597TIP3    H129282   5.376   4.533  -0.005 -2.0117  1.0865 -1.8125
 2597TIP3    H229283   5.403   4.614   0.120 -0.0442 -1.5864 -0.4610
 2598TIP3   OH229284   3.777   1.468  15.314  0.1101  0.3422 -0.2340
 2598TIP3    H129285   3.740   1.390  15.272  2.7710 -0.4231 -1.2189
 2598TIP3    H229286   3.704   1.505  15.364 -1.8931 -1.2970 -1.8637
 2599TIP3   OH229287   5.877   4.846   4.989 -0.3909  0.0556  0.1433
 2599TIP3    H129288   5.823   4.834   4.911 -0.5456 -1.9241  0.5472
 2599TIP3    H229289   5.959   4.802   4.969 -0.9952 -1.8648  1.6597
 2600TIP3   OH229290   3.904   6.738   1.303 -0.1023 -0.0882 -0.1481
 2600TIP3    H129291   3.902   6.677   1.229  0.0158  0.2431 -0.4263
 2600TIP3    H229292   3.825   6.716   1.354 -0.0126 -0.5312 -0.1940
 2601TIP3   OH229293   5.198   0.963   2.364  0.6733  0.1752 -0.3510
 2601TIP3    H129294   5.287   0.945   2.333  0.4494 -1.9362  0.1654
 2601TIP3    H229295   5.142   0.940   2.290  0.4885  0.4882 -0.3090
 2602TIP3   OH229296   5.798   5.843  13.574  0.6535 -0.2619 -0.3333
 2602TIP3    H129297   5.774   5.774  13.512  1.0784 -1.5487  0.9055
 2602TIP3    H229298   5.829   5.796  13.652  1.1434  1.3290  0.4576
 2603TIP3   OH229299   6.607   3.000   2.170  1.0125  0.4767  0.0267
 2603TIP3    H129300   6.533   3.031   2.118  1.2098 -0.1773 -0.6679
 2603TIP3    H229301   6.678   2.989   2.107  1.5508  0.5978  0.6004
 2604TIP3   OH229302   3.341   2.620  13.490 -0.0719 -0.3717 -0.1141
 2604TIP3    H129303   3.333   2.574  13.573  1.2915  0.0474  0.2684
 2604TIP3    H229304   3.435   2.639  13.482 -0.3654  0.7318 -1.1226
 2605TIP3   OH229305   1.339   5.986   3.846 -0.2113  0.6198 -0.1841
 2605TIP3    H129306   1.413   6.021   3.797  0.5521 -0.9174 -0.1719
 2605TIP3    H229307   1.338   6.036   3.927  1.2120  0.2226  0.0933
 2606TIP3   OH229308   2.283   6.508   5.612 -0.2302  0.5012 -0.1873
 2606TIP3    H129309   2.287   6.595   5.572  1.5651  0.3938 -0.3214
 2606TIP3    H229310   2.359   6.506   5.670  0.0070 -1.1269 -0.5252
 2607TIP3   OH229311   5.460   6.154   0.940  0.1381 -0.1438 -0.2031
 2607TIP3    H129312   5.512   6.234   0.943  0.2724 -0.2854  1.3016
 2607TIP3    H229313   5.384   6.173   0.995 -1.9992  0.4495 -3.2021
 2608TIP3   OH229314   1.337   4.793   5.024  0.2830 -0.3415  0.2868
 2608TIP3    H129315   1.432   4.803   5.017  0.0108  0.3562 -2.8538
 2608TIP3    H229316   1.316   4.717   4.969 -1.0497 -0.0676  0.3963
 2609TIP3   OH229317   2.111   4.963   4.840 -0.1324 -0.4224  0.1183
 2609TIP3    H129318   2.070   4.944   4.924  1.5236  0.2589  1.1095
 2609TIP3    H229319   2.126   5.058   4.842 -0.9719 -0.2459 -1.3575
 2610TIP3   OH229320   4.502   1.380   3.346 -0.2988  0.5471 -0.2713
 2610TIP3    H129321   4.476   1.301   3.299  0.4928  0.5466 -0.7164
 2610TIP3    H229322   4.447   1.381   3.424  2.3035 -2.4954  1.6897
 2611TIP3   OH229323   2.308   5.805  13.498  0.3465  0.1557  0.2054
 2611TIP3    H129324   2.351   5.888  13.480  0.2136 -0.1067 -1.3959
 2611TIP3    H229325   2.344   5.777  13.582  0.1319  1.9944  0.9356
 2612TIP3   OH229326   2.958   4.236   3.689 -0.4798 -0.1132  0.6611
 2612TIP3    H129327   3.050   4.245   3.713 -0.5917  0.2149  0.9740
 2612TIP3    H229328   2.918   4.320   3.712 -0.6760  0.0614 -0.2974
 2613TIP3   OH229329   3.023   3.074   4.713  0.2963  0.3765 -0.3110
 2613TIP3    H129330   2.990   3.091   4.624  0.7471  0.8351 -0.3913
 2613TIP3    H229331   3.096   3.014   4.700  0.0474  0.0509 -0.2067
 2614TIP3   OH229332   3.640   5.751  15.219  0.2477  0.4594  0.2063
 2614TIP3    H129333   3.618   5.662  15.247  1.4258 -0.4281 -1.6112
 2614TIP3    H229334   3.703   5.782  15.284  1.1986 -0.7128 -0.1417
 2615TIP3   OH229335   3.672   2.225  15.875  0.7273 -0.2498 -0.7788
 2615TIP3    H129336   3.750   2.211  15.928  1.4308  1.7189 -1.2699
 2615TIP3    H229337   3.700   2.284  15.805 -1.2080  0.5393 -0.9206
 2616TIP3   OH229338   5.865   3.220  11.680 -0.3711  0.2986  0.5196
 2616TIP3    H129339   5.899   3.183  11.761 -3.2988 -1.0039  1.2328
 2616TIP3    H229340   5.833   3.307  11.705  0.8111  0.8222  0.2338
 2617TIP3   OH229341   4.354   3.550  16.836 -0.1003 -0.0817  0.5483
 2617TIP3    H129342   4.323   3.627  16.883  0.9254  0.4335  0.3909
 2617TIP3    H229343   4.286   3.533  16.770 -1.6270 -0.8975  2.2618
 2618TIP3   OH229344   1.395   1.004  16.887 -0.7557  0.3070  0.6857
 2618TIP3    H129345   1.445   0.940  16.836 -1.6278 -0.3459  0.6339
 2618TIP3    H229346   1.322   1.028  16.831 -0.9391  0.6554  1.0728
 2619TIP3   OH229347   6.361   2.983   4.730  0.4885  0.8616  0.0336
 2619TIP3    H129348   6.384   3.067   4.769 -2.9017  2.7539 -1.7863
 2619TIP3    H229349   6.427   2.968   4.663  1.3972  1.8514  0.6930
 2620TIP3   OH229350   6.268   3.733   4.360 -0.5530 -0.5305  0.4139
 2620TIP3    H129351   6.225   3.754   4.277 -0.6446  0.9470  0.8095
 2620TIP3    H229352   6.199   3.691   4.412 -0.8475 -0.3393  0.1803
 2621TIP3   OH229353   6.618   4.083  11.569  0.4541 -0.0465 -0.2551
 2621TIP3    H129354   6.608   4.160  11.513 -0.6808 -0.5168 -0.6971
 2621TIP3    H229355   6.542   4.029  11.550  2.2365 -2.2258 -1.3838
 2622TIP3   OH229356   0.891   4.093  11.926  0.2116  0.5686 -0.4965
 2622TIP3    H129357   0.981   4.064  11.943 -0.2900 -0.1668  0.9544
 2622TIP3    H229358   0.876   4.072  11.834  1.4692  0.5599 -0.7123
 2623TIP3   OH229359   5.272   4.675   0.979 -0.0274 -0.3755 -0.5773
 2623TIP3    H129360   5.352   4.726   0.992  0.8688 -1.9874  0.4543
 2623TIP3    H229361   5.212   4.735   0.935  1.5078  1.0778 -0.7412
 2624TIP3   OH229362   0.338   0.232  10.905 -0.0225 -0.0151  0.2608
 2624TIP3    H129363   0.273   0.203  10.841  1.5054 -0.0885 -1.2900
 2624TIP3    H229364   0.330   0.328  10.906 -0.0567 -0.0164 -0.0051
 2625TIP3   OH229365   6.175   2.252  12.034  0.3251 -0.0601  0.2528
 2625TIP3    H129366   6.236   2.326  12.042 -0.8696  1.0141 -0.3571
 2625TIP3    H229367   6.168   2.217  12.122  1.0516  0.4366  0.5159
 2626TIP3   OH229368   6.786   5.745   6.618 -0.2862 -0.3896  0.4148
 2626TIP3    H129369   6.864   5.800   6.622 -2.3507  2.5273  2.7919
 2626TIP3    H229370   6.813   5.668   6.568  3.1152  2.1218 -1.8293
 2627TIP3   OH229371   3.470   6.575  16.170 -0.1235 -0.1454  0.3858
 2627TIP3    H129372   3.469   6.590  16.075 -1.4867  0.2034  0.4572
 2627TIP3    H229373   3.536   6.637  16.203  1.5765 -1.4253 -0.5055
 2628TIP3   OH229374   0.805   6.636   0.259 -0.1387 -0.4143 -0.3987
 2628TIP3    H129375   0.727   6.678   0.296  0.2435 -1.7156  1.9697
 2628TIP3    H229376   0.836   6.698   0.193 -1.5440  1.4252  0.6139
 2629TIP3   OH229377   6.435   4.100   1.273 -0.0397  0.1072  0.1309
 2629TIP3    H129378   6.474   4.012   1.268 -0.6238 -0.0990 -0.9903
 2629TIP3    H229379   6.510   4.160   1.272  0.3171 -0.3387 -0.3580
 2630TIP3   OH229380   1.121   6.810   5.965  0.6413  0.0872 -0.5106
 2630TIP3    H129381   1.069   6.890   5.970  1.4055  0.6405 -1.2075
 2630TIP3    H229382   1.199   6.829   6.018  0.1873 -0.7002  0.4522
 2631TIP3   OH229383   1.132   6.561  10.882  0.1468  0.3151 -0.2011
 2631TIP3    H129384   1.182   6.612  10.946  0.2106 -0.4569  0.3768
 2631TIP3    H229385   1.103   6.625  10.818  1.4852  0.8582 -0.2886
 2632TIP3   OH229386   4.561   6.681  17.020 -0.1888  0.5980  0.1972
 2632TIP3    H129387   4.525   6.664  16.933  0.5217  1.4008 -0.2520
 2632TIP3    H229388   4.524   6.611  17.075  2.2231 -2.0971 -1.4886
 2633TIP3   OH229389   0.032   6.130  17.217 -0.1247  0.1199 -0.0134
 2633TIP3    H129390   0.063   6.051  17.262  0.2201  0.2007 -0.1081
 2633TIP3    H229391   0.051   6.115  17.125 -0.5450  0.0893 -0.0960
 2634TIP3   OH229392   1.642   4.116   3.981 -0.3586  0.1857  0.5004
 2634TIP3    H129393   1.606   4.194   3.937 -0.0246 -0.1664 -0.4027
 2634TIP3    H229394   1.645   4.049   3.913 -2.2096 -1.1289  1.6630
 2635TIP3   OH229395   4.221   4.895  16.568 -0.0229 -0.0478  0.2499
 2635TIP3    H129396   4.224   4.858  16.656  1.5369  0.1155  0.2850
 2635TIP3    H229397   4.129   4.895  16.545 -0.7612  2.4177  2.9234
 2636TIP3   OH229398   6.137   4.986   3.153 -0.1718  0.0019  0.5701
 2636TIP3    H129399   6.090   4.930   3.092  0.3903 -1.0515  1.1054
 2636TIP3    H229400   6.197   5.036   3.098 -0.6082  0.0231  0.1087
 2637TIP3   OH229401   6.562   4.704  12.725  0.0089  0.2226  0.1910
 2637TIP3    H129402   6.498   4.773  12.706 -0.9825 -0.6337  0.3799
 2637TIP3    H229403   6.574   4.709  12.820 -1.3628 -0.9716  0.4468
 2638TIP3   OH229404   4.891   6.401  15.251 -0.2121  0.1335  0.5994
 2638TIP3    H129405   4.975   6.365  15.278 -0.8927 -1.3438  0.7770
 2638TIP3    H229406   4.837   6.400  15.330 -0.5509  0.6578  0.3831
 2639TIP3   OH229407   0.616   0.404  16.674 -0.2327 -0.2295 -0.3590
 2639TIP3    H129408   0.586   0.490  16.644  1.5108 -0.2410 -2.1917
 2639TIP3    H229409   0.541   0.346  16.657 -0.7230  0.5460 -0.8710
 2640TIP3   OH229410   6.346   6.670  16.845  0.4968  0.3143 -0.0508
 2640TIP3    H129411   6.256   6.699  16.855  0.4626  0.5162 -0.8950
 2640TIP3    H229412   6.340   6.590  16.794  0.7372 -0.1173  0.5966
 2641TIP3   OH229413   5.232   0.469  11.261 -0.3401 -0.0264 -0.3410
 2641TIP3    H129414   5.181   0.421  11.195 -2.0503 -0.8154  1.4989
 2641TIP3    H229415   5.253   0.403  11.327  1.8739  0.6283 -0.3762
 2642TIP3   OH229416   4.358   5.228   3.470  0.3472  0.0821  0.2550
 2642TIP3    H129417   4.442   5.182   3.472  0.6350  0.5366 -0.7637
 2642TIP3    H229418   4.292   5.160   3.475  0.7805 -0.3479  0.1426
 2643TIP3   OH229419   5.631   3.810   3.010 -0.3294 -0.1133 -0.3146
 2643TIP3    H129420   5.604   3.726   3.047 -1.2804  0.7237  0.9597
 2643TIP3    H229421   5.654   3.790   2.919 -1.7614 -1.5280 -0.3968
 2644TIP3   OH229422   6.069   2.713  15.784  0.2008  0.3437  0.2192
 2644TIP3    H129423   6.053   2.805  15.802 -1.7106  0.4032 -1.6688
 2644TIP3    H229424   6.161   2.708  15.758  1.1196  1.2520  3.0813
 2645TIP3   OH229425   6.631   2.408   6.155  0.0957  0.0159  0.1012
 2645TIP3    H129426   6.714   2.433   6.195  0.2284  0.1717 -0.2684
 2645TIP3    H229427   6.564   2.438   6.217  0.1675  2.9334 -1.1550
 2646TIP3   OH229428   0.358   6.459   3.438 -0.5173 -0.5345 -0.6540
 2646TIP3    H129429   0.391   6.441   3.350 -0.9675  1.2816 -1.2238
 2646TIP3    H229430   0.281   6.403   3.448 -1.3296  0.3377 -1.9893
 2647TIP3   OH229431   3.333   0.728   5.514 -0.1747 -0.2595 -0.0414
 2647TIP3    H129432   3.408   0.726   5.573 -1.1622 -1.0268  1.2011
 2647TIP3    H229433   3.371   0.746   5.428  1.3615  0.0121  0.6738
 2648TIP3   OH229434   5.023   0.158  15.512  0.5291 -0.1036 -0.1467
 2648TIP3    H129435   4.975   0.077  15.497  0.1204  0.5631 -2.7438
 2648TIP3    H229436   4.956   0.222  15.536  0.5538 -0.0078 -0.3284
 2649TIP3   OH229437   6.125   5.349  10.578 -0.8149 -1.1994  0.2002
 2649TIP3    H129438   6.049   5.354  10.637 -0.0902 -1.8116  1.1959
 2649TIP3    H229439   6.086   5.341  10.491 -1.9025 -0.5918  0.6071
 2650TIP3   OH229440   2.622   4.404   1.152 -0.3281  0.3740  0.1120
 2650TIP3    H129441   2.654   4.493   1.138  0.8757  0.0895  0.8939
 2650TIP3    H229442   2.536   4.414   1.191 -0.4661  1.1876 -0.4002
 2651TIP3   OH229443   1.682   1.529   2.672 -0.2920 -0.5253  0.2683
 2651TIP3    H129444   1.623   1.524   2.748 -1.4744 -0.6509 -0.6470
 2651TIP3    H229445   1.652   1.606   2.624 -0.7877 -1.5288 -1.0796
 2652TIP3   OH229446   6.421   5.920   1.688  0.1065 -0.0957  0.0231
 2652TIP3    H129447   6.512   5.944   1.672 -0.8016  3.0342 -0.6741
 2652TIP3    H229448   6.397   5.865   1.614  1.6070 -1.5043  0.5557
 2653TIP3   OH229449   5.224   0.551  16.780  0.2313 -0.5328  0.3816
 2653TIP3    H129450   5.157   0.482  16.775 -0.7895  0.5400 -1.3723
 2653TIP3    H229451   5.271   0.533  16.862 -0.4286 -2.9238  0.2921
 2654TIP3   OH229452   1.431   4.524  12.128 -0.3524  0.2880 -0.0538
 2654TIP3    H129453   1.473   4.564  12.203 -2.3970 -1.0012  1.8396
 2654TIP3    H229454   1.397   4.597  12.077 -0.2473  1.1195  1.0546
 2655TIP3   OH229455   0.086   4.431   4.156  0.3953 -0.4788 -0.2658
 2655TIP3    H129456   0.027   4.437   4.081 -1.2802  1.0892  1.1225
 2655TIP3    H229457   0.133   4.514   4.157 -0.1662 -0.1670  0.8783
 2656TIP3   OH229458   1.167   4.951   1.455  0.0256  0.0998 -0.0978
 2656TIP3    H129459   1.190   4.995   1.373 -0.1683  1.0757  0.3666
 2656TIP3    H229460   1.139   5.021   1.513 -0.1543 -0.6255  0.7035
 2657TIP3   OH229461   5.349   4.549   3.619 -0.0267 -0.5102 -0.0525
 2657TIP3    H129462   5.386   4.611   3.556 -0.5740  0.1638  0.2854
 2657TIP3    H229463   5.405   4.558   3.697 -1.3428  1.0912  0.7482
 2658TIP3   OH229464   5.981   3.777  15.703  0.1391  0.0884 -0.0830
 2658TIP3    H129465   5.941   3.863  15.713 -0.0706  0.2007 -1.6917
 2658TIP3    H229466   5.941   3.742  15.623  1.4096 -0.8423 -0.3225
 2659TIP3   OH229467   6.125   5.206   0.620  0.0924 -0.5641 -0.2922
 2659TIP3    H129468   6.099   5.114   0.618  0.1925 -0.6422  1.6020
 2659TIP3    H229469   6.083   5.242   0.698 -1.4178  1.4542 -1.9902
 2660TIP3   OH229470   2.021   4.317  12.738  0.6614 -0.5950  0.0142
 2660TIP3    H129471   2.014   4.353  12.826  1.4847 -1.5464  0.4734
 2660TIP3    H229472   1.932   4.323  12.703  0.9231  2.6639 -0.2566
 2661TIP3   OH229473   5.987   2.375   0.859  0.3982  0.8455 -0.1157
 2661TIP3    H129474   5.928   2.402   0.788 -0.5745  0.3857  0.5039
 2661TIP3    H229475   5.958   2.287   0.882  2.6288 -0.1622 -1.1426
 2662TIP3   OH229476   1.910   2.141  11.156  0.3623  0.4387 -0.6614
 2662TIP3    H129477   1.850   2.105  11.222  0.3104  1.9784  0.1819
 2662TIP3    H229478   1.940   2.066  11.107  1.2570 -0.9165  1.8582
 2663TIP3   OH229479   0.022   5.843   0.291  0.8544  0.3565 -0.4650
 2663TIP3    H129480  -0.030   5.804   0.361 -0.5740  2.3018 -0.4134
 2663TIP3    H229481   0.113   5.825   0.316  0.3949  1.6135  2.2451
 2664TIP3   OH229482   6.043   3.426  14.865  0.0928 -0.2101  0.0252
 2664TIP3    H129483   6.035   3.471  14.781 -0.6654 -1.7346 -0.7435
 2664TIP3    H229484   5.974   3.463  14.919  1.0531  1.3006  0.2199
 2665TIP3   OH229485   6.153   1.015   0.453  0.2853  0.1630  0.0669
 2665TIP3    H129486   6.167   0.928   0.416  0.4299  0.5174 -0.7248
 2665TIP3    H229487   6.082   1.003   0.516 -0.0720 -0.4212 -0.4447
 2666TIP3   OH229488   5.065   6.283  12.136  0.3042 -0.2284  0.1161
 2666TIP3    H129489   5.089   6.193  12.157 -0.6406  0.1479  3.0393
 2666TIP3    H229490   4.972   6.288  12.159  0.1334  1.2492 -0.8622
 2667TIP3   OH229491   6.042   4.850  12.326 -0.5993  0.3356  0.2222
 2667TIP3    H129492   6.069   4.759  12.319 -1.0103  0.2462 -0.2016
 2667TIP3    H229493   5.966   4.848  12.385 -0.7305  0.3765  0.0566
 2668TIP3   OH229494   2.609   1.354  14.980 -0.6454  0.5760 -0.2125
 2668TIP3    H129495   2.572   1.405  15.052 -1.5119 -1.3133  0.7066
 2668TIP3    H229496   2.703   1.368  14.987 -0.7232  0.3517  1.3374
 2669TIP3   OH229497   1.758   5.986  17.199  0.4224 -0.1274  0.5704
 2669TIP3    H129498   1.712   6.061  17.160  0.2967 -0.3634  0.2606
 2669TIP3    H229499   1.836   6.025  17.239  0.2808  0.1910  0.5414
 2670TIP3   OH229500   3.162   6.595  17.213 -0.1699  0.6666 -0.0590
 2670TIP3    H129501   3.130   6.535  17.281 -0.8367  0.8031 -0.2439
 2670TIP3    H229502   3.257   6.596  17.224 -0.0892 -1.0448 -0.5747
 2671TIP3   OH229503   5.342   6.216   0.227  0.0379  0.0635 -0.4518
 2671TIP3    H129504   5.343   6.231   0.321  1.1829  1.7211 -0.6924
 2671TIP3    H229505   5.322   6.123   0.217  1.4748 -0.4834  1.4757
 2672TIP3   OH229506   3.413   5.186  11.168 -0.2967  0.2583  0.3374
 2672TIP3    H129507   3.445   5.255  11.226 -2.3431  0.1049  1.6919
 2672TIP3    H229508   3.486   5.170  11.108  1.1310  1.8091  1.5999
 2673TIP3   OH229509   6.594   4.319  12.005  0.0402  0.1826 -0.4132
 2673TIP3    H129510   6.643   4.359  12.076 -0.3018 -0.8597  0.4269
 2673TIP3    H229511   6.617   4.371  11.928  1.8429  0.2031  0.1110
 2674TIP3   OH229512   5.870   2.046  16.800  0.1660  0.6259 -0.3464
 2674TIP3    H129513   5.916   2.130  16.790  1.0372  0.6199  3.1857
 2674TIP3    H229514   5.778   2.067  16.784  0.5675  1.9412 -0.9988
 2675TIP3   OH229515   4.148   3.056  14.878 -0.3015 -0.4166  0.1543
 2675TIP3    H129516   4.109   3.061  14.966  0.3233  1.1226  0.3662
 2675TIP3    H229517   4.073   3.043  14.820 -0.8332 -0.3900  0.8169
 2676TIP3   OH229518   4.727   1.966  15.549 -0.5121 -0.4462 -0.4061
 2676TIP3    H129519   4.820   1.973  15.525 -0.6343  0.3269 -0.6560
 2676TIP3    H229520   4.697   1.887  15.504 -0.4503  0.3461 -1.8548
 2677TIP3   OH229521   4.731   4.544   4.612  0.4012 -0.5122  0.4186
 2677TIP3    H129522   4.645   4.509   4.635  0.4546 -0.5236  0.6021
 2677TIP3    H229523   4.720   4.577   4.522 -0.0018  0.1823  0.7175
 2678TIP3   OH229524   3.083   2.330  12.179 -0.1396  0.4681  0.1650
 2678TIP3    H129525   3.051   2.411  12.218 -0.4353  0.0765  0.7400
 2678TIP3    H229526   3.012   2.302  12.121 -0.0977  0.5429  0.0771
 2679TIP3   OH229527   4.593   3.940   2.743  0.6717 -0.1446  0.1737
 2679TIP3    H129528   4.593   3.951   2.648 -0.7059 -1.2325  0.0335
 2679TIP3    H229529   4.501   3.945   2.768  0.6551 -3.3713  1.0122
 2680TIP3   OH229530   1.988   2.625  13.651 -0.0996 -0.1470 -0.1077
 2680TIP3    H129531   2.078   2.594  13.657 -0.1405  0.1068  2.2136
 2680TIP3    H229532   1.983   2.669  13.566  1.7488 -0.8383 -0.5783
 2681TIP3   OH229533   3.673   6.219  12.210  0.4491  0.8225 -0.2166
 2681TIP3    H129534   3.635   6.224  12.123 -0.2146  0.6922  0.0651
 2681TIP3    H229535   3.718   6.303  12.221 -0.7092  1.4446 -0.1124
 2682TIP3   OH229536   5.630   4.767   0.287  0.8246 -0.7120  0.2509
 2682TIP3    H129537   5.703   4.761   0.226  1.1719  1.1750  0.4718
 2682TIP3    H229538   5.572   4.833   0.249 -0.6526 -1.9648  0.2338
 2683TIP3   OH229539   3.073   1.616  13.082  0.3916 -0.0122 -0.2039
 2683TIP3    H129540   3.082   1.703  13.044  0.9444  0.4179  0.8553
 2683TIP3    H229541   3.164   1.587  13.096  0.2083 -0.6566 -0.3315
 2684TIP3   OH229542   3.647   2.185  15.528  0.1246 -0.5340 -0.0433
 2684TIP3    H129543   3.721   2.244  15.542  1.6391 -2.6196  1.0732
 2684TIP3    H229544   3.626   2.195  15.435  1.3848  0.5792 -0.2239
 2685TIP3   OH229545   2.791   0.553   4.899 -0.4284 -0.3617 -0.3273
 2685TIP3    H129546   2.720   0.611   4.872 -1.0731 -0.6471  0.7002
 2685TIP3    H229547   2.793   0.484   4.832 -1.9411 -1.0173  0.2728
 2686TIP3   OH229548   5.190   5.195  15.846  0.0063  0.1689  0.0648
 2686TIP3    H129549   5.167   5.215  15.937  0.0452 -1.4132  0.4240
 2686TIP3    H229550   5.285   5.198  15.844  0.0527 -1.0131  0.3607
 2687TIP3   OH229551   0.011   5.599  16.563  0.2000  0.2039  0.6061
 2687TIP3    H129552   0.079   5.617  16.498 -0.4452 -1.5112 -0.5940
 2687TIP3    H229553   0.053   5.616  16.647  1.8648 -0.0331 -0.1592
 2688TIP3   OH229554   5.939   4.183   2.609 -0.4996 -0.1268  0.1218
 2688TIP3    H129555   5.913   4.270   2.581 -2.3118 -0.3783  0.9572
 2688TIP3    H229556   5.985   4.197   2.692 -0.0635  0.0966 -0.1542
 2689TIP3   OH229557   5.447   6.470   0.409 -0.4389  0.3887 -0.1644
 2689TIP3    H129558   5.444   6.565   0.397  0.0604  0.5055  0.5805
 2689TIP3    H229559   5.497   6.439   0.333 -0.0712  0.7795 -0.0870
 2690TIP3   OH229560   5.861   1.016  12.521 -0.2378  0.7946  0.1655
 2690TIP3    H129561   5.798   1.030  12.451  1.7335  1.2508 -1.5422
 2690TIP3    H229562   5.946   1.011  12.478  1.1370  2.0251  2.5891
 2691TIP3   OH229563   6.266   2.464   5.078  0.2017  0.4455 -0.2380
 2691TIP3    H129564   6.179   2.495   5.053  0.7211  0.1972 -2.4785
 2691TIP3    H229565   6.263   2.370   5.063  1.4461  0.6970 -2.3395
 2692TIP3   OH229566   1.443   1.857  14.866  0.2755  0.2209  0.5507
 2692TIP3    H129567   1.473   1.909  14.792 -1.1965  1.3596  0.7377
 2692TIP3    H229568   1.415   1.922  14.931 -1.2997 -0.7948  0.9146
 2693TIP3   OH229569   0.935   5.641  11.300 -0.2032 -1.0389 -0.3019
 2693TIP3    H129570   0.962   5.550  11.286  2.8888 -0.5311  1.9438
 2693TIP3    H229571   0.885   5.638  11.382 -0.9872 -0.8498 -0.7671
 2694TIP3   OH229572   5.643   6.009  12.851  0.3626  0.3111 -0.0930
 2694TIP3    H129573   5.673   5.969  12.933 -0.5954 -1.1899 -0.4495
 2694TIP3    H229574   5.686   5.957  12.783 -0.6540  0.0715 -0.5646
 2695TIP3   OH229575   6.475   4.559  10.786  0.7139 -0.1869 -0.2995
 2695TIP3    H129576   6.483   4.627  10.719  0.7568 -1.0246 -1.1530
 2695TIP3    H229577   6.387   4.569  10.820  1.1113  1.0390  0.3838
 2696TIP3   OH229578   5.767   3.607  13.793  0.0649 -0.1660  0.0231
 2696TIP3    H129579   5.850   3.582  13.833 -0.0789 -1.0655 -0.2436
 2696TIP3    H229580   5.791   3.641  13.707  0.1447 -0.5132 -0.0899
 2697TIP3   OH229581   4.260   4.317  17.002 -0.6966  0.1846  0.2525
 2697TIP3    H129582   4.332   4.317  16.938  0.8712  0.6660  1.9699
 2697TIP3    H229583   4.185   4.283  16.954 -0.1031  2.5418 -2.4343
 2698TIP3   OH229584   3.636   5.372  15.199  0.2428  0.1782 -0.0543
 2698TIP3    H129585   3.711   5.430  15.187 -0.3530  1.0266  0.2062
 2698TIP3    H229586   3.614   5.342  15.110  1.9593 -1.4804  0.0613
 2699TIP3   OH229587   4.892   0.168  15.861  0.2481 -0.1086 -0.0649
 2699TIP3    H129588   4.826   0.125  15.916  0.2842 -0.5026 -0.3327
 2699TIP3    H229589   4.841   0.214  15.795  0.2478 -0.5126 -0.3437
 2700TIP3   OH229590   0.077   3.720  14.614  0.5913  0.1468  0.4324
 2700TIP3    H129591   0.040   3.724  14.526  0.1269  0.5549  0.6441
 2700TIP3    H229592   0.002   3.706  14.672  0.8599  0.1493  0.7876
 2701TIP3   OH229593   2.538   3.679  15.231  0.0543 -0.4226  0.4943
 2701TIP3    H129594   2.546   3.690  15.326 -2.7648 -2.1646  1.0005
 2701TIP3    H229595   2.542   3.584  15.218 -0.0254 -0.2189 -1.0998
 2702TIP3   OH229596   4.019   6.677   0.660 -0.4795  0.0743 -0.1747
 2702TIP3    H129597   4.069   6.674   0.742  0.2959 -0.6910 -0.6734
 2702TIP3    H229598   3.929   6.656   0.687 -0.4526  0.9754  0.6534
 2703TIP3   OH229599   6.054   6.713  16.398  0.0487  0.2790  0.0846
 2703TIP3    H129600   6.054   6.807  16.418 -0.6980  0.5341 -1.1129
 2703TIP3    H229601   6.110   6.705  16.321  1.0561 -0.4182  0.8730
 2704TIP3   OH229602   3.220   3.561  14.391  0.4022 -0.1526 -0.4316
 2704TIP3    H129603   3.248   3.596  14.475  1.3938  0.7382 -1.1179
 2704TIP3    H229604   3.161   3.489  14.413 -3.0000  2.9534  1.0102
 2705TIP3   OH229605   6.122   5.971  16.498 -0.2778 -0.0152  0.5376
 2705TIP3    H129606   6.116   5.970  16.594 -0.2084  1.1023  0.5630
 2705TIP3    H229607   6.103   6.062  16.474  1.7809  0.2001 -0.3707
 2706TIP3   OH229608   2.819   0.498  13.191  0.1415 -0.4414 -0.1225
 2706TIP3    H129609   2.815   0.443  13.269  0.2469  0.7682  0.7627
 2706TIP3    H229610   2.735   0.484  13.147 -0.0230 -0.9334  0.3442
 2707TIP3   OH229611   4.621   0.765  12.560  0.3574  0.5543 -0.3739
 2707TIP3    H129612   4.636   0.854  12.591  0.6820  0.6434 -0.7739
 2707TIP3    H229613   4.614   0.773  12.465  1.7403 -0.0130 -0.5398
 2708TIP3   OH229614   0.750   4.643   0.866  0.0646  0.0390  0.3605
 2708TIP3    H129615   0.674   4.615   0.916  0.4741  0.4061  1.2023
 2708TIP3    H229616   0.822   4.644   0.929  1.1225 -1.8486 -0.7682
 2709TIP3   OH229617   5.217   2.309  11.293 -0.4581 -0.5429 -0.1601
 2709TIP3    H129618   5.189   2.399  11.279  1.6585  0.1241 -0.2294
 2709TIP3    H229619   5.138   2.264  11.325 -1.4877  1.3504  0.0366
 2710TIP3   OH229620   2.373   6.226   5.944 -0.5032  0.2900 -0.5238
 2710TIP3    H129621   2.337   6.236   5.856 -2.4967 -0.8722  0.1206
 2710TIP3    H229622   2.297   6.207   5.999  0.3009  3.7202  1.9698
 2711TIP3   OH229623   1.248   0.280  13.932  0.2692 -0.4048 -0.4789
 2711TIP3    H129624   1.234   0.197  13.979 -0.6241  0.7002  1.2748
 2711TIP3    H229625   1.160   0.313  13.915  0.5682 -1.1012 -3.6094
 2712TIP3   OH229626   6.079   4.718   5.152 -0.5241  0.3217 -0.9035
 2712TIP3    H129627   6.027   4.798   5.164 -1.7808 -0.5609 -0.3701
 2712TIP3    H229628   6.038   4.654   5.210 -1.0125 -1.4102 -3.0872
 2713TIP3   OH229629   0.509   1.953   2.130 -0.6887  0.2271  0.0302
 2713TIP3    H129630   0.503   2.047   2.109  1.3035  0.4183  0.2321
 2713TIP3    H229631   0.451   1.943   2.206 -1.5289  1.1432 -0.4735
 2714TIP3   OH229632   3.856   1.108  14.485  0.7849 -0.3404  0.6322
 2714TIP3    H129633   3.776   1.156  14.506  1.5190  0.5576  1.3818
 2714TIP3    H229634   3.825   1.025  14.449 -0.4859  0.0459  0.8150
 2715TIP3   OH229635   3.475   5.547  11.610  0.1803 -0.3755  0.2319
 2715TIP3    H129636   3.482   5.487  11.684  1.2472  0.9906  1.2635
 2715TIP3    H229637   3.562   5.545  11.570  0.5780  1.3584  0.9765
 2716TIP3   OH229638   1.753   3.019   0.170  0.4975 -0.3200  0.1312
 2716TIP3    H129639   1.831   3.015   0.225  0.4422  0.2972  0.2595
 2716TIP3    H229640   1.719   3.107   0.183  0.8601  0.0559 -1.4181
 2717TIP3   OH229641   6.213   3.584   4.879 -0.2117 -0.2852  0.1521
 2717TIP3    H129642   6.193   3.632   4.798 -1.0740 -0.5892  0.1810
 2717TIP3    H229643   6.225   3.652   4.945 -0.6580 -0.0791  0.0233
 2718TIP3   OH229644   1.901   5.679  15.568 -0.0413  0.0672  0.8213
 2718TIP3    H129645   1.959   5.711  15.638 -0.5173  0.1031  1.2048
 2718TIP3    H229646   1.866   5.759  15.528 -0.4617  0.0423  1.1294
 2719TIP3   OH229647   0.241   3.110  12.353 -0.4952  0.1240 -0.1904
 2719TIP3    H129648   0.335   3.095  12.367 -0.9109 -1.3146  1.1829
 2719TIP3    H229649   0.223   3.066  12.270 -0.0454 -0.0235 -0.2151
 2720TIP3   OH229650   1.161   1.602  11.987  0.0466 -0.1107 -0.0045
 2720TIP3    H129651   1.182   1.678  12.042 -1.6677 -0.7479  1.5252
 2720TIP3    H229652   1.094   1.635  11.927  1.8072  0.5411 -1.6952
 2721TIP3   OH229653   6.006   6.649  14.544  0.5420  0.0046 -0.7356
 2721TIP3    H129654   6.009   6.688  14.631  0.0071  2.6161 -1.8248
 2721TIP3    H229655   5.945   6.576  14.553  1.0566 -0.2197  1.2283
 2722TIP3   OH229656   5.640   2.144   2.798 -0.1196 -0.1850 -0.1532
 2722TIP3    H129657   5.639   2.192   2.715  0.2712 -1.3499 -0.8420
 2722TIP3    H229658   5.726   2.164   2.836 -0.2260  0.2035 -0.1153
 2723TIP3   OH229659   3.102   5.347  16.060  0.3399  0.2910  0.0266
 2723TIP3    H129660   3.052   5.428  16.057  1.0389  0.7387  0.1935
 2723TIP3    H229661   3.170   5.364  16.126  0.2215 -0.5832  0.3804
 2724TIP3   OH229662   4.794   5.707   4.537 -0.2851 -0.2520 -0.4197
 2724TIP3    H129663   4.842   5.719   4.455  1.0190  0.4264  0.4199
 2724TIP3    H229664   4.834   5.769   4.597 -3.1669  1.3222 -0.0504
 2725TIP3   OH229665   0.354   4.394  15.638 -0.6398 -0.2979  0.5025
 2725TIP3    H129666   0.264   4.412  15.665 -1.2576 -1.1927 -0.9263
 2725TIP3    H229667   0.373   4.459  15.570 -0.8085 -1.2176 -0.4258
 2726TIP3   OH229668   6.719   4.003  16.391  1.0060  0.3294 -0.1096
 2726TIP3    H129669   6.662   4.079  16.407  2.4965  1.6972 -1.1335
 2726TIP3    H229670   6.687   3.936  16.452 -1.6979  1.0416 -0.6551
 2727TIP3   OH229671   0.227   0.802  11.547  0.4721  0.1819 -0.3847
 2727TIP3    H129672   0.315   0.808  11.510  0.6103 -0.4026 -0.1620
 2727TIP3    H229673   0.242   0.785  11.640  0.1308  1.5602 -0.0710
 2728TIP3   OH229674   5.649   4.438  17.268 -1.2241  0.2916  0.0448
 2728TIP3    H129675   5.629   4.491  17.191  0.2901  0.0351 -0.5434
 2728TIP3    H229676   5.697   4.498  17.326  1.9524 -0.8070 -1.3172
 2729TIP3   OH229677   2.528   6.451   3.914  0.2044 -0.8085  0.7279
 2729TIP3    H129678   2.567   6.529   3.955 -1.3491  0.1425  0.4610
 2729TIP3    H229679   2.556   6.456   3.822 -0.0863 -0.4207  0.6572
 2730TIP3   OH229680   1.129   5.136   0.028  0.1266 -0.3093 -0.1729
 2730TIP3    H129681   1.065   5.193   0.071  0.6671  0.8104 -0.8241
 2730TIP3    H229682   1.078   5.084  -0.034 -0.0337  1.3039 -1.4235
 2731TIP3   OH229683   4.743   3.807  12.511  0.3510  0.1551  0.0498
 2731TIP3    H129684   4.798   3.729  12.518  1.7256  1.1409  0.4270
 2731TIP3    H229685   4.786   3.861  12.445  0.5340  1.5025  1.2526
 2732TIP3   OH229686   0.356   0.660   5.493 -0.3112  0.5865 -0.2753
 2732TIP3    H129687   0.447   0.636   5.477 -0.2418 -0.0039  0.9425
 2732TIP3    H229688   0.345   0.651   5.588 -2.2810 -1.6242 -0.6655
 2733TIP3   OH229689   0.424   6.480   3.173 -0.5196  0.1911 -0.3977
 2733TIP3    H129690   0.417   6.574   3.159 -0.8023  0.0873 -0.9605
 2733TIP3    H229691   0.516   6.460   3.157  0.7671  1.1759  4.7220
 2734TIP3   OH229692   0.300   4.411  13.636  0.3765 -0.5459  0.0921
 2734TIP3    H129693   0.289   4.414  13.541  0.2420  1.0035  0.1367
 2734TIP3    H229694   0.361   4.339  13.651  1.5824  0.1581 -1.2978
 2735TIP3   OH229695   3.533   4.109   2.803 -0.1939  0.4865 -0.3642
 2735TIP3    H129696   3.585   4.097   2.724 -1.8185  0.3278 -1.4294
 2735TIP3    H229697   3.501   4.199   2.797  1.0244  1.0336  0.9552
 2736TIP3   OH229698   3.024   5.633  13.491 -0.7956  0.1500  0.2680
 2736TIP3    H129699   3.022   5.631  13.395  1.0492 -0.0348  0.2145
 2736TIP3    H229700   3.038   5.541  13.517  1.9460  0.6051  0.5746
 2737TIP3   OH229701   0.899   6.003   0.216  0.5059  0.0323 -0.0179
 2737TIP3    H129702   0.936   5.995   0.303 -0.5656 -2.3004  0.2686
 2737TIP3    H229703   0.941   6.080   0.178  1.8458  0.3704  2.1146
 2738TIP3   OH229704   5.648   0.449  13.390  0.0121 -0.0826  1.0685
 2738TIP3    H129705   5.587   0.406  13.330  0.0976  1.1022  0.1091
 2738TIP3    H229706   5.728   0.460  13.339  0.7424 -0.8321  2.0403
 2739TIP3   OH229707   2.264   6.704   4.828 -0.2825 -0.1944 -0.0700
 2739TIP3    H129708   2.312   6.771   4.780 -2.5163  1.0902 -0.5814
 2739TIP3    H229709   2.322   6.628   4.827  1.3690  1.0432 -1.3737
 2740TIP3   OH229710   0.700   4.370   5.086 -0.4679 -0.1204 -0.3817
 2740TIP3    H129711   0.651   4.334   5.160 -1.0534  0.2052 -0.6045
 2740TIP3    H229712   0.659   4.455   5.069  1.1514  0.8534  0.4119
 2741TIP3   OH229713   5.335   4.500  13.579 -0.1197 -0.0646  0.0595
 2741TIP3    H129714   5.395   4.436  13.541  1.0234  0.6579  0.6169
 2741TIP3    H229715   5.354   4.499  13.672  0.3386  1.5285 -0.0052
 2742TIP3   OH229716   2.617   4.626  14.912  0.4189 -0.3232 -0.0010
 2742TIP3    H129717   2.661   4.711  14.917 -1.4995  0.6943  0.3140
 2742TIP3    H229718   2.599   4.603  15.003 -0.8958 -0.0541 -0.1770
 2743TIP3   OH229719   4.977   5.260   0.199 -0.1535  0.1992 -0.2363
 2743TIP3    H129720   5.031   5.301   0.266 -1.5543 -1.5542  2.0478
 2743TIP3    H229721   5.018   5.174   0.184 -0.6078  0.0546 -0.6754
 2744TIP3   OH229722   4.199   0.329  10.922  0.3905 -0.0081 -0.1350
 2744TIP3    H129723   4.197   0.356  11.014 -1.7397 -1.2922  0.2263
 2744TIP3    H229724   4.253   0.250  10.921  0.3373 -0.0457  0.0171
 2745TIP3   OH229725   6.616   5.142  15.776 -0.2043 -0.3805  0.1743
 2745TIP3    H129726   6.675   5.137  15.701  0.4778  0.9473  0.6128
 2745TIP3    H229727   6.573   5.057  15.778  1.4041 -1.2263 -0.3895
 2746TIP3   OH229728   3.892   5.393  16.739 -0.2800 -0.7766 -0.5313
 2746TIP3    H129729   3.945   5.450  16.683 -1.8168  0.3317 -0.8921
 2746TIP3    H229730   3.872   5.447  16.816 -1.1834 -1.0422 -0.5727
 2747TIP3   OH229731   0.336   3.107  15.283 -0.5127  0.3340  0.4783
 2747TIP3    H129732   0.262   3.048  15.297 -1.5749  1.6352  0.5382
 2747TIP3    H229733   0.303   3.171  15.219 -0.0161  1.9253  1.7988
 2748TIP3   OH229734   2.613   5.993  12.909 -0.3021  0.3776  0.0477
 2748TIP3    H129735   2.606   5.898  12.903 -1.5184  0.4505  0.1521
 2748TIP3    H229736   2.523   6.024  12.911  0.0498  1.6715 -2.0978
 2749TIP3   OH229737   1.472   1.580   0.216  0.1239 -0.2707 -0.4364
 2749TIP3    H129738   1.471   1.660   0.269  1.5006  0.8267 -2.0376
 2749TIP3    H229739   1.470   1.510   0.281  0.6134  1.0519  1.0601
 2750TIP3   OH229740   0.678   5.974  14.928 -0.1802 -0.0916  0.1577
 2750TIP3    H129741   0.588   6.004  14.916 -0.4879 -1.3675 -0.8423
 2750TIP3    H229742   0.730   6.054  14.934 -1.2338  0.6505 -0.5107
 2751TIP3   OH229743   0.296   1.311   0.711 -0.0211  0.2152 -0.3625
 2751TIP3    H129744   0.355   1.282   0.641 -2.5434  0.0785 -2.5487
 2751TIP3    H229745   0.331   1.395   0.739 -0.5683  1.7800 -3.9927
 2752TIP3   OH229746   1.394   1.593   4.843  0.6203  0.3234 -0.2704
 2752TIP3    H129747   1.467   1.653   4.828 -0.1754  1.5777  0.6784
 2752TIP3    H229748   1.430   1.526   4.901  0.5949  1.8764  1.5922
 2753TIP3   OH229749   3.631   3.112  15.198  0.3105 -0.2902  0.2349
 2753TIP3    H129750   3.613   3.203  15.222  0.6718 -0.1380 -0.0507
 2753TIP3    H229751   3.548   3.078  15.167  0.9149  1.0255 -3.0811
 2754TIP3   OH229752   3.798   5.047   2.747  0.2399 -0.0670 -0.7193
 2754TIP3    H129753   3.789   5.121   2.807  1.0857 -0.8729  0.4467
 2754TIP3    H229754   3.727   5.057   2.684  0.0857  1.4864 -0.3052
 2755TIP3   OH229755   4.706   5.352   4.912 -0.5366  0.0858  0.3091
 2755TIP3    H129756   4.729   5.437   4.873 -0.7144  1.0992  2.3252
 2755TIP3    H229757   4.772   5.292   4.880  0.4719  1.3203  0.0347
 2756TIP3   OH229758   3.250   0.275  15.440 -0.6086  0.2271  0.4436
 2756TIP3    H129759   3.157   0.265  15.423 -0.5801  0.2282  0.2819
 2756TIP3    H229760   3.290   0.193  15.411 -0.5797  0.1643  0.6613
 2757TIP3   OH229761   2.561   4.350  14.344 -0.0598  0.5336  0.1813
 2757TIP3    H129762   2.651   4.318  14.333  0.0484  0.6810  0.6424
 2757TIP3    H229763   2.570   4.445  14.349 -0.4389  0.6813 -1.7451
 2758TIP3   OH229764   0.546   5.272   1.964 -0.4719  0.1890  0.0364
 2758TIP3    H129765   0.524   5.208   2.031 -0.6351  1.6569  1.4247
 2758TIP3    H229766   0.494   5.246   1.888 -0.2613 -1.5153  0.4603
 2759TIP3   OH229767   3.179   2.518   3.282 -0.3428 -0.2846  0.0329
 2759TIP3    H129768   3.195   2.586   3.348  3.6038  0.1067 -1.1829
 2759TIP3    H229769   3.126   2.562   3.215 -2.6974 -0.1229  1.9377
 2760TIP3   OH229770   1.722   2.084  15.457 -0.7552  0.4045 -0.1909
 2760TIP3    H129771   1.774   2.162  15.472 -0.7247  0.5107 -0.8478
 2760TIP3    H229772   1.631   2.114  15.464 -0.7436  0.5023 -0.4705
 2761TIP3   OH229773   3.129   2.998   2.738  0.1386  0.0682  0.2642
 2761TIP3    H129774   3.060   2.932   2.733  1.2372 -1.1408  0.7790
 2761TIP3    H229775   3.091   3.067   2.792 -0.2890 -1.0687  1.4460
 2762TIP3   OH229776   4.822   0.136  16.407 -0.0253 -0.5813  0.5971
 2762TIP3    H129777   4.756   0.127  16.476  1.6298  0.0416  2.3021
 2762TIP3    H229778   4.795   0.214  16.358  0.5295  0.8870  2.5549
 2763TIP3   OH229779   4.097   3.129  15.161  0.1722 -0.5009 -0.0096
 2763TIP3    H129780   4.011   3.151  15.124  0.1094  0.2684  0.5781
 2763TIP3    H229781   4.089   3.153  15.254  1.2151  0.1072 -0.0782
 2764TIP3   OH229782   5.244   3.888  17.089 -0.1783 -0.4262 -0.4654
 2764TIP3    H129783   5.192   3.894  17.009  2.0418 -0.9497 -1.9839
 2764TIP3    H229784   5.242   3.976  17.126 -3.1538 -0.7084  0.1907
 2765TIP3   OH229785   2.145   0.878  15.169 -0.6883  0.2806 -0.2371
 2765TIP3    H129786   2.095   0.898  15.089 -0.9615  0.6892  0.0331
 2765TIP3    H229787   2.159   0.963  15.210 -0.4724  0.0800  0.1077
 2766TIP3   OH229788   1.171   3.914  15.169  0.5582  0.2648  0.6015
 2766TIP3    H129789   1.146   3.823  15.181  1.8661 -0.2000 -0.1830
 2766TIP3    H229790   1.145   3.957  15.250  0.7646 -0.9874  1.3344
 2767TIP3   OH229791   2.449   6.188   3.259  0.0840 -0.5099 -0.4582
 2767TIP3    H129792   2.370   6.152   3.299  0.4283 -1.3869 -0.5624
 2767TIP3    H229793   2.428   6.281   3.244  0.0874 -0.0678  2.0744
 2768TIP3   OH229794   5.731   0.059   6.226 -0.4562 -0.2735  0.3565
 2768TIP3    H129795   5.808   0.045   6.170 -0.3744 -1.2032  0.7125
 2768TIP3    H229796   5.746   0.145   6.265  0.6971 -0.7173  0.8966
 2769TIP3   OH229797   6.086   4.873   2.819  0.4372  0.0734 -0.3360
 2769TIP3    H129798   6.139   4.860   2.740  1.9264 -0.3405  0.7056
 2769TIP3    H229799   6.000   4.840   2.795  1.1780 -1.1581 -1.4212
 2770TIP3   OH229800   6.302   3.597  14.927  0.0773  0.4173 -0.1610
 2770TIP3    H129801   6.311   3.506  14.899 -0.6742  0.6592 -1.2241
 2770TIP3    H229802   6.376   3.611  14.986 -0.9121 -1.4731  1.5885
 2771TIP3   OH229803   4.363   6.511  15.742 -0.1196 -0.0545  0.6587
 2771TIP3    H129804   4.394   6.437  15.690  2.0949  0.0083  1.8407
 2771TIP3    H229805   4.288   6.545  15.692  0.7970 -1.1125 -1.5140
 2772TIP3   OH229806   5.676   0.399   2.101  0.2554 -0.2962 -0.2593
 2772TIP3    H129807   5.598   0.450   2.081 -0.3214  0.9666  4.5115
 2772TIP3    H229808   5.746   0.464   2.112  0.7902 -0.9760  0.4639
 2773TIP3   OH229809   2.580   5.281   4.135  0.3757  0.4116 -0.2780
 2773TIP3    H129810   2.548   5.198   4.100  2.0792 -0.3567 -0.0830
 2773TIP3    H229811   2.530   5.295   4.215  0.3560 -0.6245 -0.1048
 2774TIP3   OH229812   3.487   4.457  13.722 -0.0557 -0.2381  0.3955
 2774TIP3    H129813   3.533   4.459  13.806 -2.2600  0.1482  1.6323
 2774TIP3    H229814   3.422   4.526  13.728  0.2025  0.2474 -1.9280
 2775TIP3   OH229815   3.444   5.002  10.955  0.1517  0.6059  0.1678
 2775TIP3    H129816   3.390   5.052  10.894 -0.6204 -0.6807 -0.2286
 2775TIP3    H229817   3.384   4.937  10.992  0.7606  0.9676  1.8376
 2776TIP3   OH229818   6.101   4.044   0.796 -0.6821  0.0316  0.3397
 2776TIP3    H129819   6.083   4.011   0.708 -1.4326 -0.6083  0.7239
 2776TIP3    H229820   6.073   4.135   0.793  0.1403  0.2737 -0.3391
 2777TIP3   OH229821   2.187   0.669  11.960 -0.2934  0.0715  0.0976
 2777TIP3    H129822   2.272   0.670  12.004 -0.6165 -2.8635  0.9087
 2777TIP3    H229823   2.126   0.637  12.027 -1.4915 -0.6716 -1.3312
 2778TIP3   OH229824   3.633   2.887  13.185  0.0315  0.2981 -0.6113
 2778TIP3    H129825   3.555   2.929  13.222  0.9746  0.7246  0.9528
 2778TIP3    H229826   3.620   2.891  13.090 -1.8886  0.2723 -0.3672
 2779TIP3   OH229827   1.694   5.123   2.104  0.2495 -0.1473 -0.7159
 2779TIP3    H129828   1.704   5.045   2.158  0.3777  2.0290  2.5783
 2779TIP3    H229829   1.607   5.115   2.066 -0.1382 -1.4442  0.3936
 2780TIP3   OH229830   6.081   6.773  16.833 -0.2101 -0.0004 -0.6107
 2780TIP3    H129831   6.035   6.755  16.916  0.5502  0.3617 -0.1013
 2780TIP3    H229832   6.015   6.816  16.779 -0.8022 -0.5046 -0.2976
 2781TIP3   OH229833   0.606   4.775  11.221  0.0250 -0.5255  0.1700
 2781TIP3    H129834   0.675   4.740  11.165 -0.1682 -0.6523  0.0097
 2781TIP3    H229835   0.528   4.776  11.165  0.1735  0.7647 -0.0150
 2782TIP3   OH229836   0.255   4.896   2.777  0.3187  0.1401  0.5953
 2782TIP3    H129837   0.251   4.829   2.846 -0.1690  0.4532  0.8684
 2782TIP3    H229838   0.180   4.876   2.720 -0.7466  1.4022  1.5395
 2783TIP3   OH229839   5.136   3.205  12.720 -0.3043  0.3533  0.0879
 2783TIP3    H129840   5.227   3.179  12.736  0.0964  1.6070 -0.0457
 2783TIP3    H229841   5.085   3.156  12.784  0.3353 -1.2016 -0.5625
 2784TIP3   OH229842   2.976   2.894  13.242  0.5834  0.1397 -0.3364
 2784TIP3    H129843   2.967   2.903  13.337 -0.1624  0.8552 -0.4716
 2784TIP3    H229844   3.067   2.918  13.224  0.7373 -0.0470  0.2088
 2785TIP3   OH229845   6.797   3.614  12.030 -0.1238 -0.1005 -0.4600
 2785TIP3    H129846   6.751   3.691  11.995 -0.7887 -0.8891 -1.3764
 2785TIP3    H229847   6.821   3.638  12.119 -2.1888  0.4118 -0.0151
 2786TIP3   OH229848   2.260   6.683   1.066  0.6772 -0.0169  0.2939
 2786TIP3    H129849   2.233   6.665   1.156 -0.6237 -1.2285 -0.3291
 2786TIP3    H229850   2.276   6.597   1.028  1.5940  0.5016 -0.5382
 2787TIP3   OH229851   4.810   3.625   1.392 -0.1203  0.0959 -0.1094
 2787TIP3    H129852   4.853   3.572   1.325  1.3170  1.8224 -0.5928
 2787TIP3    H229853   4.775   3.561   1.454  1.9871 -1.4349 -0.4302
 2788TIP3   OH229854   4.647   1.180  11.437  0.5776 -0.2950 -0.0205
 2788TIP3    H129855   4.597   1.260  11.456  0.5447  0.1229 -1.7962
 2788TIP3    H229856   4.607   1.114  11.493  0.1968  0.7892  1.0172
 2789TIP3   OH229857   4.643   5.629   0.485 -0.1124  0.0661 -0.3708
 2789TIP3    H129858   4.701   5.554   0.496  0.9543  1.0207  0.4725
 2789TIP3    H229859   4.657   5.657   0.394  0.1056 -0.2220 -0.4264
 2790TIP3   OH229860   3.981   2.604  16.010 -0.2937 -0.3260  0.6385
 2790TIP3    H129861   3.984   2.592  15.915 -0.8279 -1.7916  0.7967
 2790TIP3    H229862   3.899   2.651  16.026 -0.2767 -0.2158  0.4043
 2791TIP3   OH229863   4.265   0.507   4.234 -0.4388 -0.4270 -0.3053
 2791TIP3    H129864   4.334   0.499   4.168  0.2317  0.0374  0.3280
 2791TIP3    H229865   4.238   0.598   4.229 -0.8542 -0.5559 -0.4021
 2792TIP3   OH229866   4.214   3.312  12.449  0.0161 -0.1673  0.2832
 2792TIP3    H129867   4.211   3.237  12.390  2.2523 -0.9139  1.0965
 2792TIP3    H229868   4.173   3.281  12.530  0.0752 -0.2061  0.2975
 2793TIP3   OH229869   5.483   1.130   0.407 -0.3275 -0.3235  0.0892
 2793TIP3    H129870   5.528   1.170   0.481 -0.8168 -1.7327  1.1576
 2793TIP3    H229871   5.392   1.158   0.416 -0.5682 -1.2366  0.5468
 2794TIP3   OH229872   0.275   5.385   0.155  0.1204 -0.4610  0.5313
 2794TIP3    H129873   0.326   5.366   0.077  1.3975  1.0327  0.9633
 2794TIP3    H229874   0.190   5.416   0.122 -0.0182 -1.6346 -0.2172
 2795TIP3   OH229875   3.581   3.616   1.483  0.1797  0.3623 -0.0842
 2795TIP3    H129876   3.547   3.662   1.406 -0.0129 -0.3380 -0.4174
 2795TIP3    H229877   3.597   3.686   1.547  0.0544  0.9144 -0.6492
 2796TIP3   OH229878   1.657   1.555   4.095 -0.2352 -0.0377 -0.6970
 2796TIP3    H129879   1.739   1.559   4.045  0.8961  0.5190  1.1562
 2796TIP3    H229880   1.627   1.465   4.084  2.1666 -1.1124  0.9509
 2797TIP3   OH229881   5.657   4.368   3.139  0.3536 -0.4495  0.3693
 2797TIP3    H129882   5.661   4.442   3.078  2.2279  0.3532  1.4227
 2797TIP3    H229883   5.593   4.308   3.100  0.0263  0.9667 -1.3399
 2798TIP3   OH229884   2.852   3.997  16.714  0.1531 -0.0607 -0.8136
 2798TIP3    H129885   2.813   4.061  16.773  2.0780  0.8789 -0.5087
 2798TIP3    H229886   2.855   4.041  16.629  1.8095  0.4314 -0.5255
 2799TIP3   OH229887   3.846   6.054  16.512  0.4679 -0.1627 -0.7056
 2799TIP3    H129888   3.858   6.055  16.417 -0.3087  3.0792 -0.8557
 2799TIP3    H229889   3.935   6.048  16.548  0.9988  1.3591 -1.7009
 2800TIP3   OH229890   6.002   6.378  14.089 -0.2895 -0.1179  0.7637
 2800TIP3    H129891   5.925   6.408  14.136 -1.5023 -0.4795 -0.9267
 2800TIP3    H229892   6.020   6.448  14.026 -0.2504 -0.7750  0.0346
 2801TIP3   OH229893   4.765   4.612  14.156  0.5440  0.0731  0.3236
 2801TIP3    H129894   4.834   4.653  14.104  0.4871  0.9291  0.8955
 2801TIP3    H229895   4.768   4.520  14.134  2.4402 -0.0374  0.9597
 2802TIP3   OH229896   1.861   1.454   2.039 -0.1161  0.2456 -0.5243
 2802TIP3    H129897   1.907   1.444   2.122  0.6758 -1.0298 -1.1017
 2802TIP3    H229898   1.821   1.541   2.044 -0.4763 -0.0044  1.3767
 2803TIP3   OH229899   1.001   5.909  15.858 -0.2751 -0.1212 -0.0152
 2803TIP3    H129900   1.071   5.952  15.809  1.2242 -1.8784  0.5628
 2803TIP3    H229901   1.043   5.875  15.936 -1.9020 -0.7202  0.6215
 2804TIP3   OH229902   3.790   1.949  14.536  0.1051  0.1399 -0.5728
 2804TIP3    H129903   3.816   1.868  14.580  1.3116  1.0600  0.4134
 2804TIP3    H229904   3.755   2.004  14.606 -0.5425  0.5521 -1.2176
 2805TIP3   OH229905   2.134   5.930   2.355  0.1201 -0.0373  0.1016
 2805TIP3    H129906   2.087   6.010   2.378  1.1777  0.6187  0.0614
 2805TIP3    H229907   2.145   5.935   2.260 -2.1768 -1.5829 -0.2958
 2806TIP3   OH229908   4.199   3.012  13.862 -0.7910 -0.1448  0.2368
 2806TIP3    H129909   4.233   2.949  13.799  3.3400  1.2778  0.8967
 2806TIP3    H229910   4.186   2.962  13.943 -0.7188 -0.8083 -0.1650
 2807TIP3   OH229911   3.316   0.501  15.227 -0.1313 -0.4945 -0.4509
 2807TIP3    H129912   3.392   0.451  15.258 -1.3456  0.0670  3.7780
 2807TIP3    H229913   3.249   0.435  15.210  0.0113 -0.7162 -0.1651
 2808TIP3   OH229914   0.102   0.618  10.561  0.2764  0.1876 -0.3444
 2808TIP3    H129915   0.161   0.692  10.573  0.1850  0.1806  0.1401
 2808TIP3    H229916   0.160   0.544  10.542  0.4723  0.0208  0.8818
 2809TIP3   OH229917   6.274   4.927  11.392 -0.1382 -0.2989 -0.1824
 2809TIP3    H129918   6.343   4.970  11.342  0.5120 -1.0368  0.0741
 2809TIP3    H229919   6.274   4.973  11.476 -0.7852  0.5007 -0.6112
 2810TIP3   OH229920   4.317   1.076  16.894  0.2007 -0.6965 -0.0765
 2810TIP3    H129921   4.353   0.996  16.930 -2.3483 -2.7511 -1.9223
 2810TIP3    H229922   4.237   1.092  16.944 -0.3134 -0.3770 -0.9919
 2811TIP3   OH229923   5.700   2.583  14.038 -0.1921  0.4096  0.3411
 2811TIP3    H129924   5.756   2.507  14.052  0.6779  0.6031 -1.8182
 2811TIP3    H229925   5.630   2.551  13.981 -0.3073  1.0255  0.1370
 2812TIP3   OH229926   2.688   1.630  15.845 -0.2863 -0.2401  0.1672
 2812TIP3    H129927   2.607   1.581  15.832  0.0619 -0.5417 -0.9110
 2812TIP3    H229928   2.758   1.566  15.832  0.1167 -0.0518  1.4066
 2813TIP3   OH229929   2.780   4.127   0.160 -0.5630 -0.2643  0.0172
 2813TIP3    H129930   2.821   4.094   0.080 -0.6612 -0.6265  0.1164
 2813TIP3    H229931   2.702   4.073   0.172 -0.8501  0.1537  0.0545
 2814TIP3   OH229932   1.585   1.628   0.780  0.1946  0.3397 -0.4631
 2814TIP3    H129933   1.513   1.633   0.843 -0.9880  0.0733 -1.7667
 2814TIP3    H229934   1.658   1.673   0.823 -0.0885 -1.2846  1.7642
 2815TIP3   OH229935   5.139   6.239  11.132 -0.2999  0.1993 -0.1031
 2815TIP3    H129936   5.091   6.322  11.143 -0.2910  0.1402  0.3906
 2815TIP3    H229937   5.207   6.260  11.068  0.6193  0.9673  1.1157
 2816TIP3   OH229938   3.546   5.323   0.590 -0.3091  0.4935  0.3694
 2816TIP3    H129939   3.503   5.306   0.674  0.1880 -0.5046  0.4354
 2816TIP3    H229940   3.628   5.366   0.613  1.0052 -2.0275  0.5949
 2817TIP3   OH229941   4.909   5.315  12.078 -0.4626 -0.1156 -0.2665
 2817TIP3    H129942   4.966   5.351  12.010  0.3453  0.6320  0.8003
 2817TIP3    H229943   4.875   5.234  12.040  0.2721  0.1073 -1.4176
 2818TIP3   OH229944   3.989   4.080  11.810 -0.2177  0.2421  0.0721
 2818TIP3    H129945   4.026   4.043  11.730  0.2285 -0.6279  0.6764
 2818TIP3    H229946   4.059   4.071  11.875 -0.4713  1.2077  0.4905
 2819TIP3   OH229947   0.961   0.348  10.941  0.1717 -0.3345  0.0413
 2819TIP3    H129948   0.971   0.296  10.861  0.2716  1.9343 -1.4674
 2819TIP3    H229949   0.933   0.434  10.910  0.5855  0.6990  2.4310
 2820TIP3   OH229950   0.776   3.676  12.743 -0.2819 -0.1179  0.1444
 2820TIP3    H129951   0.847   3.710  12.689 -0.9722 -0.5770 -1.0991
 2820TIP3    H229952   0.762   3.742  12.810  0.5440  0.5124 -0.2940
 2821TIP3   OH229953   0.284   1.708  13.879  0.2263 -0.0565 -0.1649
 2821TIP3    H129954   0.361   1.653  13.892 -0.4624 -1.0968 -0.4314
 2821TIP3    H229955   0.260   1.696  13.787  0.1364  0.7922 -0.2640
 2822TIP3   OH229956   2.052   2.335   3.441  0.0535  0.0165  0.2826
 2822TIP3    H129957   1.961   2.305   3.446  0.7547 -1.9428  2.6188
 2822TIP3    H229958   2.065   2.387   3.520  1.2348 -0.5807  0.4962
 2823TIP3   OH229959   5.039   1.845   5.913  0.3139 -0.2746 -0.3459
 2823TIP3    H129960   5.002   1.904   5.979 -0.0146 -1.0011  0.1189
 2823TIP3    H229961   5.110   1.800   5.958 -0.5037 -1.4528 -0.2045
 2824TIP3   OH229962   5.297   1.871   5.994 -0.0974 -0.3815 -0.8856
 2824TIP3    H129963   5.315   1.963   5.972  0.2009 -0.5291 -1.2671
 2824TIP3    H229964   5.345   1.855   6.075 -1.8192  0.3892  0.3237
 2825TIP3   OH229965   1.768   4.157  12.917  0.7171  0.2440  0.1469
 2825TIP3    H129966   1.770   4.245  12.954 -0.5737  0.2609  0.1916
 2825TIP3    H229967   1.795   4.100  12.989  1.4451  0.5881  0.1507
 2826TIP3   OH229968   1.940   1.890  13.667  0.2442  0.0436 -0.1573
 2826TIP3    H129969   2.031   1.879  13.696  0.9305 -0.2903 -2.3454
 2826TIP3    H229970   1.947   1.942  13.587 -1.6368  1.3705  0.5051
 2827TIP3   OH229971   3.703   0.985  17.085  0.1593  0.1524 -0.0351
 2827TIP3    H129972   3.619   1.023  17.056 -0.1212 -0.3700  0.0945
 2827TIP3    H229973   3.680   0.900  17.121  0.5185  0.7526  1.6618
 2828TIP3   OH229974   3.344   4.184   2.974 -0.0237 -0.6016  0.4558
 2828TIP3    H129975   3.432   4.168   2.939 -0.3504  1.9934 -1.7760
 2828TIP3    H229976   3.287   4.178   2.897 -1.4410  0.3900  1.4142
 2829TIP3   OH229977   6.623   1.083  17.038  0.4499 -0.0037  0.1685
 2829TIP3    H129978   6.556   1.131  16.990 -0.6116 -1.7086 -0.0908
 2829TIP3    H229979   6.653   1.145  17.105 -0.4253  1.2347 -0.5625
 2830TIP3   OH229980   1.480   4.812   1.554  0.0446  0.3279 -0.4880
 2830TIP3    H129981   1.437   4.727   1.555  1.4500 -0.3936 -0.0978
 2830TIP3    H229982   1.452   4.852   1.471 -0.5337 -0.5573 -0.7302
 2831TIP3   OH229983   0.408   0.847   5.057  0.1909  0.6356 -0.3685
 2831TIP3    H129984   0.325   0.821   5.097  0.6006 -1.5979 -0.9215
 2831TIP3    H229985   0.453   0.765   5.037  2.2478  1.7913 -0.7166
 2832TIP3   OH229986   6.500   1.256   3.975  0.2102  0.4231  0.0195
 2832TIP3    H129987   6.565   1.203   3.929 -0.2855  0.5159 -0.8078
 2832TIP3    H229988   6.538   1.344   3.977 -0.7620  0.9302 -2.2821
 2833TIP3   OH229989   5.449   2.100   3.201  0.2232 -1.4221  0.3104
 2833TIP3    H129990   5.468   2.023   3.147  0.6240 -0.8319 -0.3941
 2833TIP3    H229991   5.495   2.083   3.283  0.0381 -2.0823  0.2833
 2834TIP3   OH229992   1.591   6.059   6.858  0.1797  0.3094 -0.0156
 2834TIP3    H129993   1.619   6.040   6.769 -2.1092 -0.0547 -0.6922
 2834TIP3    H229994   1.537   5.984   6.883  0.7712  0.4209  1.6686
 2835TIP3   OH229995   3.732   2.676   2.816 -0.3985 -0.6237  0.2968
 2835TIP3    H129996   3.648   2.722   2.808 -0.0223  0.0847  0.3644
 2835TIP3    H229997   3.797   2.742   2.795  0.2795 -0.5384  2.5378
 2836TIP3   OH229998   6.302   5.968   2.301  0.5555  0.0474  0.1531
 2836TIP3    H129999   6.279   5.924   2.219 -0.1789  2.0224 -0.7064
 2836TIP3    H230000   6.286   5.902   2.369 -2.2122 -0.4634 -0.9493
 2837TIP3   OH230001   0.368   5.302   6.472 -0.2027 -0.3302  0.0829
 2837TIP3    H130002   0.417   5.380   6.498  1.4061 -0.8462 -1.3635
 2837TIP3    H230003   0.320   5.277   6.551  1.6504  0.3538  1.4637
 2838TIP3   OH230004   4.227   2.881  12.422  0.3573  0.3793  0.2614
 2838TIP3    H130005   4.180   2.951  12.377  0.5045 -0.2865 -0.9584
 2838TIP3    H230006   4.182   2.801  12.395  1.5980 -0.1835 -0.1770
 2839TIP3   OH230007   5.186   5.221   1.790 -0.0361 -0.4750 -0.3104
 2839TIP3    H130008   5.115   5.284   1.779 -0.5733 -0.9593  0.3252
 2839TIP3    H230009   5.239   5.230   1.711  0.4038  1.4062  0.1717
 2840TIP3   OH230010   6.776   5.627  11.748  0.4194 -0.1053  0.0883
 2840TIP3    H130011   6.854   5.592  11.707 -0.8224 -1.4290 -1.1764
 2840TIP3    H230012   6.729   5.671  11.677  0.5567  1.6944  1.0720
 2841TIP3   OH230013   6.265   0.919   4.874 -0.1503 -0.0968  0.6245
 2841TIP3    H130014   6.279   0.828   4.901  0.8798 -0.0218  0.3576
 2841TIP3    H230015   6.296   0.971   4.948  0.1834  0.0499  0.3858
 2842TIP3   OH230016   5.061   5.554  15.168 -0.4796 -0.3469 -0.3303
 2842TIP3    H130017   5.089   5.645  15.177 -0.1054 -0.6304  1.6018
 2842TIP3    H230018   5.107   5.522  15.091 -0.3585  1.0088 -0.8328
 2843TIP3   OH230019   6.201   4.640   1.013  0.4340 -0.0127 -0.2249
 2843TIP3    H130020   6.116   4.671   0.984 -0.0476  0.8032  1.9476
 2843TIP3    H230021   6.259   4.715   1.005  0.3369  0.1715  0.6956
 2844TIP3   OH230022   3.220   6.371   0.894  0.3953  0.3399 -0.1321
 2844TIP3    H130023   3.138   6.384   0.941 -1.3299 -1.3452 -2.5605
 2844TIP3    H230024   3.253   6.287   0.926 -0.6990 -0.7297 -1.6938
 2845TIP3   OH230025   1.908   5.021   5.752 -0.0964  0.0096  0.0842
 2845TIP3    H130026   1.847   4.982   5.815  0.2238  1.3682  1.2877
 2845TIP3    H230027   1.925   5.108   5.788  1.7941  0.0002 -0.7618
 2846TIP3   OH230028   2.692   4.837  17.287  0.1803 -0.0498  0.4362
 2846TIP3    H130029   2.617   4.850  17.345 -1.1145 -2.3479 -0.6414
 2846TIP3    H230030   2.688   4.909  17.225 -0.5420  0.3981  0.9969
 2847TIP3   OH230031   1.675   6.586  16.330 -0.1050  0.3408 -0.6765
 2847TIP3    H130032   1.616   6.544  16.392 -0.5530  1.5020 -0.2969
 2847TIP3    H230033   1.731   6.642  16.384  0.5273  0.1845 -1.1636
 2848TIP3   OH230034   3.139   4.147   4.107  0.5398 -0.6677 -0.0338
 2848TIP3    H130035   3.086   4.107   4.039  1.6070 -1.1383 -0.5950
 2848TIP3    H230036   3.209   4.194   4.060 -1.8591  3.6950  0.4700
 2849TIP3   OH230037   1.639   4.141  15.782 -0.2422 -0.0533  0.4185
 2849TIP3    H130038   1.598   4.158  15.866 -2.1728 -0.8163 -0.3362
 2849TIP3    H230039   1.587   4.191  15.719  2.2415  1.9586 -0.1661
 2850TIP3   OH230040   1.090   5.407   5.063 -0.3046 -0.1350 -0.2694
 2850TIP3    H130041   1.150   5.466   5.017  0.9578 -2.9726 -2.4519
 2850TIP3    H230042   1.009   5.409   5.011 -0.4875  0.2087  0.0336
 2851TIP3   OH230043   1.279   3.338   1.381  0.3185 -0.2261  0.4005
 2851TIP3    H130044   1.225   3.396   1.328  0.6073 -0.5536 -0.2673
 2851TIP3    H230045   1.231   3.327   1.462 -1.0130 -1.1481 -0.4926
 2852TIP3   OH230046   2.192   4.874   5.980 -0.1692 -0.1009 -0.1985
 2852TIP3    H130047   2.224   4.788   6.007 -2.1800 -0.1467  2.1970
 2852TIP3    H230048   2.136   4.857   5.904  0.1580 -0.7855 -0.2848
 2853TIP3   OH230049   5.393   1.112  13.359  0.1575 -0.2628 -0.3022
 2853TIP3    H130050   5.303   1.096  13.385  1.0511 -0.4341  3.0636
 2853TIP3    H230051   5.399   1.207  13.351  0.2999  0.0027  2.3391
 2854TIP3   OH230052   1.319   1.302   6.227 -0.4691 -0.1339 -0.4115
 2854TIP3    H130053   1.231   1.310   6.263 -0.4110 -0.7347 -0.1237
 2854TIP3    H230054   1.372   1.272   6.300  0.0017  0.3392 -0.5547
 2855TIP3   OH230055   2.803   4.210  17.180 -0.1302  0.1093 -0.4595
 2855TIP3    H130056   2.808   4.123  17.140  0.5066 -0.4557  0.8383
 2855TIP3    H230057   2.716   4.242  17.156 -0.3115 -0.8121 -1.0770
 2856TIP3   OH230058   6.025   5.030   5.873  0.2122 -0.5672 -0.2589
 2856TIP3    H130059   5.950   5.084   5.900  2.2168  1.9025  0.4840
 2856TIP3    H230060   6.086   5.091   5.833  1.9524 -2.5285 -0.6808
 2857TIP3   OH230061   3.783   2.703   0.687  0.5958 -0.6184  0.1342
 2857TIP3    H130062   3.740   2.766   0.745  0.2250 -1.2595  0.5597
 2857TIP3    H230063   3.855   2.752   0.648 -0.3873  0.4094 -0.4178
 2858TIP3   OH230064   4.187   0.536  12.103  0.2120 -0.8395  0.2844
 2858TIP3    H130065   4.221   0.502  12.020  0.8334  0.9424 -0.2120
 2858TIP3    H230066   4.119   0.474  12.128  2.5338 -3.4247  0.3390
 2859TIP3   OH230067   6.069   1.224  11.869  0.4971  0.1598 -0.1344
 2859TIP3    H130068   6.003   1.163  11.900 -0.3764  0.9398 -0.4260
 2859TIP3    H230069   6.137   1.169  11.830 -0.7508 -0.5651 -1.3022
 2860TIP3   OH230070   2.827   2.687   1.976  0.0045  0.2767  0.0741
 2860TIP3    H130071   2.894   2.702   2.043  0.3081 -0.8912  0.0308
 2860TIP3    H230072   2.746   2.715   2.018  0.0122 -1.5619  1.3794
 2861TIP3   OH230073   5.139   6.766   4.873 -0.1073  0.2130  0.6852
 2861TIP3    H130074   5.207   6.803   4.815 -0.9456 -0.1759 -0.5543
 2861TIP3    H230075   5.088   6.842   4.901 -0.6533  0.2412 -0.3429
 2862TIP3   OH230076   1.536   2.639   5.118 -0.1020 -0.1378  0.1999
 2862TIP3    H130077   1.491   2.651   5.201  1.0848  2.3775  0.5144
 2862TIP3    H230078   1.623   2.607   5.142 -0.2991 -0.9918 -0.1853
 2863TIP3   OH230079   2.761   0.012  14.769  0.3156  0.1407  0.3860
 2863TIP3    H130080   2.814  -0.032  14.836  0.4531  0.3666  0.4272
 2863TIP3    H230081   2.695  -0.053  14.745  0.0811  0.1641  0.9541
 2864TIP3   OH230082   1.972   3.720   0.371 -0.2397  0.4110 -0.0687
 2864TIP3    H130083   1.972   3.682   0.459  0.2299  1.8578  0.5718
 2864TIP3    H230084   1.984   3.645   0.312 -1.2940 -0.6567  1.0478
 2865TIP3   OH230085   4.961   1.755   1.317 -0.0173 -0.0222  0.5276
 2865TIP3    H130086   5.029   1.703   1.360 -0.6248 -2.1983 -1.0285
 2865TIP3    H230087   5.009   1.819   1.264  0.8997 -2.1272 -1.2771
 2866TIP3   OH230088   3.570   3.145   4.708  0.6886 -0.2483  0.3409
 2866TIP3    H130089   3.501   3.190   4.757  0.8091  0.8794 -0.4950
 2866TIP3    H230090   3.525   3.113   4.629  1.0878  0.4290 -0.1724
 2867TIP3   OH230091   5.094   4.560   0.446  0.6278 -0.0193 -0.4298
 2867TIP3    H130092   5.148   4.627   0.406 -0.2683  0.9510 -0.0443
 2867TIP3    H230093   5.063   4.506   0.373 -1.2861  1.9501 -1.1134
 2868TIP3   OH230094   0.554   0.336  13.720 -0.1099  0.1943 -0.2409
 2868TIP3    H130095   0.577   0.377  13.804 -0.4414 -1.1800  0.5359
 2868TIP3    H230096   0.463   0.309  13.731  1.2829 -4.5843  0.8812
 2869TIP3   OH230097   4.275   0.043   6.368 -0.5343 -0.2811 -0.0347
 2869TIP3    H130098   4.318  -0.005   6.438 -2.2997 -1.7850  0.0633
 2869TIP3    H230099   4.185   0.054   6.398 -0.9771  0.2256 -1.4914
 2870TIP3   OH230100   0.377   1.496  14.937 -0.1624 -0.2427 -0.2118
 2870TIP3    H130101   0.421   1.483  15.021  0.3075  1.6495 -0.1403
 2870TIP3    H230102   0.329   1.578  14.947 -2.2264 -1.3199 -0.9326
 2871TIP3   OH230103   4.263   4.598   3.752  0.5408  0.4536 -0.3892
 2871TIP3    H130104   4.304   4.683   3.768 -0.2133  1.1014 -1.7889
 2871TIP3    H230105   4.311   4.537   3.808 -0.0896  2.0930  2.0172
 2872TIP3   OH230106   2.776   5.715   5.584 -0.3380  0.0430 -0.6223
 2872TIP3    H130107   2.798   5.803   5.615  0.2543  0.0542 -1.0671
 2872TIP3    H230108   2.698   5.727   5.531 -0.0920  0.3402 -0.9184
 2873TIP3   OH230109   2.342   4.803   4.623 -0.3415  0.5513 -0.3787
 2873TIP3    H130110   2.295   4.869   4.673 -0.1385  1.2361 -1.0795
 2873TIP3    H230111   2.314   4.816   4.532  1.1718  0.9882 -0.8147
 2874TIP3   OH230112   3.237   5.437   1.249 -0.0985  0.6240 -0.7055
 2874TIP3    H130113   3.272   5.466   1.165  0.4140  1.3189 -0.2653
 2874TIP3    H230114   3.181   5.509   1.278 -0.4848  0.2741 -0.5786
 2875TIP3   OH230115   3.029   2.194  13.825 -0.0692 -0.4950  0.2554
 2875TIP3    H130116   2.974   2.216  13.900  0.4963 -0.5303  0.6816
 2875TIP3    H230117   3.013   2.264  13.762 -0.4326 -0.3857  0.4676
 2876TIP3   OH230118   4.407   0.142   4.536  0.1009  0.7129 -0.3574
 2876TIP3    H130119   4.426   0.050   4.554  2.4547  1.1741 -0.3319
 2876TIP3    H230120   4.356   0.141   4.456 -2.9502 -0.8078  1.5017
 2877TIP3   OH230121   4.718   5.547  12.728  0.2940 -0.2379 -0.4868
 2877TIP3    H130122   4.809   5.561  12.702  0.4429 -0.5779 -0.1569
 2877TIP3    H230123   4.703   5.454  12.716 -0.2230 -0.0632 -1.1947
 2878TIP3   OH230124   0.104   3.793   6.309  0.0954  0.0709 -0.8852
 2878TIP3    H130125   0.145   3.875   6.282 -0.5683  1.7866  2.9071
 2878TIP3    H230126   0.012   3.814   6.320  0.1973 -0.6267  1.8157
 2879TIP3   OH230127   3.506   6.216  12.655 -0.3198  0.1521 -0.5822
 2879TIP3    H130128   3.451   6.184  12.726 -0.2649 -1.5521 -1.2584
 2879TIP3    H230129   3.566   6.278  12.696  0.4953 -1.6870  1.0785
 2880TIP3   OH230130   0.251   4.206  17.084 -0.0636  0.0043 -0.5055
 2880TIP3    H130131   0.280   4.290  17.048 -0.6196  0.9418  1.1485
 2880TIP3    H230132   0.181   4.229  17.146  0.2132 -1.6186  0.4510
 2881TIP3   OH230133   0.254   1.905   5.839 -0.1404  0.8920 -0.0843
 2881TIP3    H130134   0.343   1.905   5.804 -0.8869  3.2061 -2.1177
 2881TIP3    H230135   0.243   1.992   5.877 -1.1385  0.2190  1.1866
 2882TIP3   OH230136   6.194   1.744   5.001  0.2085 -0.2262  0.8180
 2882TIP3    H130137   6.175   1.837   5.011 -1.7380 -0.3786 -1.1751
 2882TIP3    H230138   6.233   1.736   4.914  3.2765 -0.8995  2.1764
 2883TIP3   OH230139   3.496   2.207   1.592 -0.8746 -0.1987 -0.1263
 2883TIP3    H130140   3.493   2.111   1.591 -0.0556 -0.2205 -0.7452
 2883TIP3    H230141   3.552   2.228   1.667 -0.3556 -0.2269 -0.5032
 2884TIP3   OH230142   0.952   3.347   4.228 -0.5126  0.3411  0.6995
 2884TIP3    H130143   0.966   3.284   4.298  0.4435 -0.4828 -0.1982
 2884TIP3    H230144   0.861   3.374   4.237 -0.9436 -1.1928  1.0935
 2885TIP3   OH230145   3.014   1.928  15.012 -0.1905 -0.3227  0.4667
 2885TIP3    H130146   3.045   1.961  15.096  2.1360 -0.6685 -0.2015
 2885TIP3    H230147   3.063   1.846  15.000 -1.9083 -1.2467 -0.3536
 2886TIP3   OH230148   5.717   0.755  15.838  0.0666 -0.0932  0.0045
 2886TIP3    H130149   5.626   0.726  15.827 -0.7300  1.8637  1.1154
 2886TIP3    H230150   5.757   0.741  15.753 -1.1923 -1.3120 -0.4015
 2887TIP3   OH230151   6.199   0.037   5.657  0.7397 -0.2144 -0.6875
 2887TIP3    H130152   6.265   0.072   5.597  1.2411 -1.9713 -1.1946
 2887TIP3    H230153   6.185  -0.053   5.627 -0.3570 -0.5234  0.7109
 2888TIP3   OH230154   0.654   3.061   3.053  0.0062 -0.7273 -0.1869
 2888TIP3    H130155   0.611   3.058   3.139  0.6002  1.5626  0.2119
 2888TIP3    H230156   0.717   2.989   3.056 -0.0133 -0.7088  1.2820
 2889TIP3   OH230157   3.693   3.021   5.469 -0.1084  0.3524 -0.5289
 2889TIP3    H130158   3.678   3.005   5.562 -0.9962  1.5700 -0.4580
 2889TIP3    H230159   3.763   3.086   5.467  1.0314 -0.8537 -0.7586
 2890TIP3   OH230160   2.519   5.814  13.213 -0.5754  0.3891 -0.2924
 2890TIP3    H130161   2.472   5.828  13.131 -1.0441  1.0580  0.0789
 2890TIP3    H230162   2.453   5.779  13.273 -0.1990 -0.2479 -0.2417
 2891TIP3   OH230163   4.548   1.940  12.899 -0.3277 -0.9853 -0.3747
 2891TIP3    H130164   4.518   2.031  12.895 -1.0340 -1.1014  1.6837
 2891TIP3    H230165   4.484   1.892  12.847 -1.2277 -0.6075  0.3642
 2892TIP3   OH230166   0.713   6.497  11.291  0.1056  0.0535  0.1873
 2892TIP3    H130167   0.694   6.439  11.216  1.2025 -2.8607  2.0612
 2892TIP3    H230168   0.738   6.580  11.251  2.5622 -1.9807 -2.7958
 2893TIP3   OH230169   0.030   2.628   2.139 -0.0192  0.5982 -0.5464
 2893TIP3    H130170  -0.002   2.662   2.055 -1.1868  1.1983  0.1379
 2893TIP3    H230171  -0.039   2.569   2.169  0.2033  0.7199  0.2039
 2894TIP3   OH230172   5.754   1.033  10.772  0.5364  0.0502 -0.2967
 2894TIP3    H130173   5.729   0.977  10.699  2.5982 -1.2842 -0.0184
 2894TIP3    H230174   5.671   1.061  10.811 -0.5215 -2.7107 -0.4989
 2895TIP3   OH230175   2.446   4.710   5.478 -0.4689 -0.9975  0.5855
 2895TIP3    H130176   2.371   4.718   5.419 -0.2959  0.5501  0.5515
 2895TIP3    H230177   2.423   4.762   5.555  0.9915  0.4104  0.1086
 2896TIP3   OH230178   1.197   0.547   0.497  0.5638 -0.1901 -0.1044
 2896TIP3    H130179   1.147   0.617   0.457  1.4318  1.2631  1.2851
 2896TIP3    H230180   1.258   0.591   0.556  2.4696 -1.9795 -0.6363
 2897TIP3   OH230181   0.009   3.304  16.140 -0.2846  0.3167 -0.2991
 2897TIP3    H130182   0.102   3.279  16.149 -0.1267  0.0027 -2.6241
 2897TIP3    H230183   0.010   3.399  16.147  0.2417  0.3245 -0.3947
 2898TIP3   OH230184   0.713   3.333  12.548  0.3176  0.0361 -0.0367
 2898TIP3    H130185   0.678   3.412  12.508 -0.8197 -1.3004 -1.7710
 2898TIP3    H230186   0.727   3.356  12.640  0.4786  2.3747 -0.6353
 2899TIP3   OH230187   0.130   4.707   4.333  0.2259 -0.1821 -0.5275
 2899TIP3    H130188   0.122   4.756   4.251 -2.5794 -0.5054 -0.5234
 2899TIP3    H230189   0.049   4.728   4.381  1.9838  0.3084  2.3322
 2900TIP3   OH230190   0.440   5.093   4.574 -0.0311 -0.2902  0.1311
 2900TIP3    H130191   0.522   5.132   4.544 -0.2057 -0.7821 -1.0294
 2900TIP3    H230192   0.467   5.012   4.618  0.2658  0.6859  1.7734
 2901TIP3   OH230193   0.795   1.297  17.154  0.1617 -0.0139  0.1694
 2901TIP3    H130194   0.806   1.206  17.126  0.9095  0.8980 -2.6346
 2901TIP3    H230195   0.883   1.327  17.175 -0.2399 -0.2961  2.3334
 2902TIP3   OH230196   4.278   3.665  13.802 -0.9690  0.5461 -0.2695
 2902TIP3    H130197   4.363   3.701  13.774 -2.4282  4.0652 -0.4021
 2902TIP3    H230198   4.222   3.674  13.725 -1.6425 -1.3074 -0.0262
 2903TIP3   OH230199   1.668   6.094  13.773 -0.0625  0.2357  0.1856
 2903TIP3    H130200   1.619   6.102  13.691  0.6417 -0.4507 -0.3109
 2903TIP3    H230201   1.755   6.128  13.753  0.4164 -0.8526  0.3570
 2904TIP3   OH230202   0.640   2.162  17.084  0.1556  0.0688  0.2705
 2904TIP3    H130203   0.707   2.104  17.048  0.7032  0.8934 -0.0407
 2904TIP3    H230204   0.643   2.239  17.028 -0.1948  0.6217  1.0183
 2905TIP3   OH230205   3.877   1.418  13.729  0.8210  0.3991 -0.2954
 2905TIP3    H130206   3.842   1.384  13.647  0.3130 -0.7730  0.3960
 2905TIP3    H230207   3.800   1.432  13.784  1.2125  0.6090  0.2014
 2906TIP3   OH230208   0.967   5.240  11.372  0.3769 -0.4827  0.6470
 2906TIP3    H130209   1.021   5.163  11.389  1.3878  0.6886  2.8632
 2906TIP3    H230210   1.003   5.277  11.292 -0.8249 -2.8869 -1.0765
 2907TIP3   OH230211   4.797   2.563  10.832 -0.0913  0.1585  0.6464
 2907TIP3    H130212   4.861   2.533  10.767  0.1069  1.1855  0.3603
 2907TIP3    H230213   4.755   2.483  10.863 -0.3136 -0.3392 -0.8805
 2908TIP3   OH230214   3.151   1.501  14.139 -0.2905 -0.1337 -0.0715
 2908TIP3    H130215   3.158   1.521  14.233  1.1690 -1.7709  0.1907
 2908TIP3    H230216   3.064   1.462  14.129  0.5757 -2.4652  1.1147
 2909TIP3   OH230217   2.381   4.356  12.399  0.2346  0.1103  0.1167
 2909TIP3    H130218   2.452   4.415  12.422  0.4709 -0.1265 -0.0004
 2909TIP3    H230219   2.355   4.317  12.482 -1.0146  1.5862  0.4388
 2910TIP3   OH230220   1.789   5.922  15.507  0.0762 -0.3360 -0.0592
 2910TIP3    H130221   1.840   5.998  15.535  2.8102 -2.6214  1.3677
 2910TIP3    H230222   1.698   5.951  15.515  1.0271  2.7278  0.5699
 2911TIP3   OH230223   4.742   4.735  14.409  0.2353 -0.0776  0.3489
 2911TIP3    H130224   4.651   4.718  14.435  0.7387 -1.5253  1.2219
 2911TIP3    H230225   4.761   4.668  14.344  1.2737 -1.0014  1.5719
 2912TIP3   OH230226   4.784   5.725  13.750  0.5362 -0.9636 -0.1773
 2912TIP3    H130227   4.689   5.715  13.756  0.5941 -1.0739  0.5476
 2912TIP3    H230228   4.806   5.788  13.819  1.0209 -1.1474 -0.1624
 2913TIP3   OH230229   1.296   6.275   5.954  0.5233  0.3889 -0.0989
 2913TIP3    H130230   1.357   6.309   6.019 -0.1761 -0.5229  1.0529
 2913TIP3    H230231   1.211   6.281   5.996 -0.0786  0.7846 -1.3477
 2914TIP3   OH230232   3.067   1.435  13.668 -0.8091 -0.2147  0.2929
 2914TIP3    H130233   3.003   1.374  13.704 -1.2960 -0.1136 -0.3864
 2914TIP3    H230234   3.109   1.475  13.744 -2.5820  0.8062  0.7632
 2915TIP3   OH230235   3.213   2.001   0.769  0.0788 -0.1172  0.1101
 2915TIP3    H130236   3.126   1.962   0.773  0.8285 -1.7130  1.4438
 2915TIP3    H230237   3.211   2.071   0.834 -0.1499 -0.2551  0.2527
 2916TIP3   OH230238   0.152   6.167  13.813 -0.6672 -0.4240 -0.5047
 2916TIP3    H130239   0.182   6.097  13.755 -0.9714 -0.0616 -1.1026
 2916TIP3    H230240   0.115   6.233  13.754 -0.4167  0.2253  0.0590
 2917TIP3   OH230241   5.644   1.443  16.817 -0.3116  0.4490  0.2220
 2917TIP3    H130242   5.711   1.405  16.874  0.4360  0.2853 -0.7729
 2917TIP3    H230243   5.639   1.384  16.742 -0.6276  1.1842 -0.3451
 2918TIP3   OH230244   4.940   3.310  11.633  0.6241  0.6173  0.8132
 2918TIP3    H130245   4.923   3.225  11.673  0.4444  1.0776  1.7149
 2918TIP3    H230246   5.008   3.292  11.568 -0.4480 -0.4836 -0.0371
 2919TIP3   OH230247   5.068   6.544   4.157 -0.4966  0.3559  0.4395
 2919TIP3    H130248   5.083   6.636   4.132 -1.3020  0.4861  0.4127
 2919TIP3    H230249   5.069   6.496   4.074 -0.9200  0.4637  0.3707
 2920TIP3   OH230250   0.254   1.765   4.110  0.2603 -0.1004  0.1123
 2920TIP3    H130251   0.220   1.781   4.022 -0.2423 -0.8968  0.1466
 2920TIP3    H230252   0.348   1.774   4.102  0.2154 -0.1442 -0.5083
 2921TIP3   OH230253   6.553   1.081   0.356 -0.3107  0.1452 -0.6083
 2921TIP3    H130254   6.479   1.029   0.386 -0.1702 -1.4542 -2.9248
 2921TIP3    H230255   6.569   1.052   0.267  1.9055  1.8261 -0.8233
 2922TIP3   OH230256   6.143   4.788   5.764  0.1671  0.6247  0.1757
 2922TIP3    H130257   6.081   4.849   5.803 -0.1603  0.4629 -0.0852
 2922TIP3    H230258   6.229   4.822   5.787 -0.0193  0.9432  0.3969
 2923TIP3   OH230259   4.745   0.926   0.374 -0.6394  0.9156 -0.4125
 2923TIP3    H130260   4.808   0.993   0.347 -0.5225  0.3350 -1.6004
 2923TIP3    H230261   4.709   0.958   0.457  0.5918  1.6603 -0.1701
 2924TIP3   OH230262   0.058   0.867   1.686  0.3366  0.3342 -0.2787
 2924TIP3    H130263   0.146   0.900   1.664  0.1671  0.9716 -0.0116
 2924TIP3    H230264   0.002   0.900   1.615  0.3482 -0.2472 -0.5603
 2925TIP3   OH230265   4.035   5.167  13.339 -0.2923 -0.0439 -1.1546
 2925TIP3    H130266   4.124   5.141  13.316  0.1215  0.2290  0.1065
 2925TIP3    H230267   4.038   5.262  13.346  0.5097 -0.2894  3.5467
 2926TIP3   OH230268   1.811   3.793  12.305  0.3388 -0.4100 -0.0348
 2926TIP3    H130269   1.751   3.718  12.310  0.5012 -0.6435 -1.4543
 2926TIP3    H230270   1.778   3.845  12.231  0.3295  0.8469  0.8224
 2927TIP3   OH230271   6.189   6.396  10.861  0.5073 -0.5682 -0.5244
 2927TIP3    H130272   6.207   6.363  10.773 -2.2801 -1.3629 -0.8496
 2927TIP3    H230273   6.097   6.425  10.857  0.3889 -0.4631  2.0722
 2928TIP3   OH230274   3.065   3.036  14.404 -0.3205  0.1925  0.0340
 2928TIP3    H130275   3.010   3.065  14.332 -0.5087 -0.8318 -0.2501
 2928TIP3    H230276   3.109   2.957  14.370  0.8027  0.6123  0.4877
 2929TIP3   OH230277   4.909   1.762  13.313  0.1382  0.3654 -0.3942
 2929TIP3    H130278   4.962   1.842  13.322 -1.1892  1.4402 -1.8826
 2929TIP3    H230279   4.849   1.765  13.386 -0.0171  0.8244 -0.5375
 2930TIP3   OH230280   0.128   2.939   0.642 -0.0143 -0.2009  0.3763
 2930TIP3    H130281   0.174   3.021   0.657  0.4130 -0.4027  0.1766
 2930TIP3    H230282   0.197   2.873   0.640  0.1484 -0.0231 -3.8158
 2931TIP3   OH230283   0.054   1.043   6.127  0.3472  0.0802 -0.4720
 2931TIP3    H130284   0.141   1.008   6.106  0.2646 -0.9502  0.8053
 2931TIP3    H230285  -0.004   0.999   6.065  0.5583 -0.2924 -0.4116
 2932TIP3   OH230286   3.396   4.801  14.184  0.2667 -0.4873  0.4038
 2932TIP3    H130287   3.416   4.763  14.099  0.0192 -0.9128  0.5340
 2932TIP3    H230288   3.468   4.862  14.201  0.3819 -0.5008 -0.0501
 2933TIP3   OH230289   5.674   3.571   2.605  0.2190  0.1663  0.6216
 2933TIP3    H130290   5.712   3.566   2.518  1.0635  0.1004  0.9866
 2933TIP3    H230291   5.735   3.625   2.655 -1.0107  1.4256  0.7886
 2934TIP3   OH230292   4.288   0.076  16.741  0.1658 -0.1491  0.1018
 2934TIP3    H130293   4.372   0.088  16.784 -0.4693  0.0380  1.3231
 2934TIP3    H230294   4.274  -0.019  16.741 -1.0481  0.0042  2.7317
 2935TIP3   OH230295   5.954   1.973   5.812  0.0503  0.3137  0.5754
 2935TIP3    H130296   6.045   1.946   5.826 -0.8104 -2.1072  1.9016
 2935TIP3    H230297   5.921   1.992   5.900 -1.4464 -1.3293  0.3888
 2936TIP3   OH230298   4.765   0.054   0.592  0.2588 -0.0345 -0.1397
 2936TIP3    H130299   4.688   0.087   0.545 -0.4849  0.0503  1.1347
 2936TIP3    H230300   4.732  -0.018   0.645  1.0318  0.1339  0.5758
 2937TIP3   OH230301   1.104   3.329  15.947  0.6533  0.1844 -0.2210
 2937TIP3    H130302   1.162   3.350  16.021  0.1957  3.2832 -0.6578
 2937TIP3    H230303   1.019   3.312  15.987  0.6369  0.8784  0.0442
 2938TIP3   OH230304   4.205   5.926  15.306  0.1310 -0.1586 -0.4285
 2938TIP3    H130305   4.279   5.935  15.247  0.9647 -2.1143  0.2611
 2938TIP3    H230306   4.150   5.859  15.265  0.2813 -0.8927  0.5399
 2939TIP3   OH230307   6.574   5.780   5.900  0.2436  0.2477 -0.1288
 2939TIP3    H130308   6.620   5.714   5.847  0.6022  0.5627 -0.2091
 2939TIP3    H230309   6.606   5.765   5.989  1.2642  1.1146 -0.3364
 2940TIP3   OH230310   3.343   1.137  14.533 -0.7577  0.7179 -0.2511
 2940TIP3    H130311   3.314   1.228  14.532  3.0203  2.0106 -0.8917
 2940TIP3    H230312   3.372   1.122  14.623  1.3744  1.1462 -0.8312
 2941TIP3   OH230313   3.596   1.119  13.933  0.4633 -0.4677  0.2159
 2941TIP3    H130314   3.622   1.085  13.848  2.6672 -1.1320  1.1015
 2941TIP3    H230315   3.670   1.098  13.991  1.2140  4.3557  1.2173
 2942TIP3   OH230316   4.982   6.078  16.651 -0.0748  0.4141 -0.2708
 2942TIP3    H130317   5.001   6.093  16.744 -0.2066  0.1619 -0.2025
 2942TIP3    H230318   4.919   6.006  16.652  0.4221 -0.0266 -0.5846
 2943TIP3   OH230319   0.919   5.848  16.481 -0.0770  0.1070 -0.1105
 2943TIP3    H130320   0.832   5.852  16.441  0.4291 -1.4682 -1.4271
 2943TIP3    H230321   0.967   5.920  16.441 -0.1822 -0.2389 -0.8721
 2944TIP3   OH230322   1.328   0.772  15.656  0.2860  0.2163  0.1221
 2944TIP3    H130323   1.240   0.760  15.620  0.3679  1.3870 -0.5038
 2944TIP3    H230324   1.314   0.801  15.746  0.0667 -2.1000  0.8524
 2945TIP3   OH230325   3.636   5.920  12.830  0.7391  0.2411 -0.0138
 2945TIP3    H130326   3.641   5.983  12.902  0.6931 -0.5575  0.6949
 2945TIP3    H230327   3.716   5.935  12.779 -0.8718  3.2231 -1.8300
 2946TIP3   OH230328   2.342   5.995  14.272  0.2567 -0.1968  0.0765
 2946TIP3    H130329   2.407   6.011  14.341 -0.0117 -2.2472  0.8474
 2946TIP3    H230330   2.389   6.008  14.190  0.9331  0.9333  0.6369
 2947TIP3   OH230331   4.624   4.736   0.416  0.0467 -0.2743 -0.2271
 2947TIP3    H130332   4.704   4.788   0.409 -0.2091  0.2149  0.4141
 2947TIP3    H230333   4.632   4.691   0.501  0.1077 -1.0246 -0.6199
 2948TIP3   OH230334   2.683   2.489   3.456 -0.6366  0.0227  0.2142
 2948TIP3    H130335   2.722   2.575   3.476  0.8383 -0.4269 -0.6453
 2948TIP3    H230336   2.658   2.495   3.364  0.0697 -0.6777 -0.0302
 2949TIP3   OH230337   3.033   3.280   2.155  0.0311  0.9532 -0.2761
 2949TIP3    H130338   3.115   3.285   2.205 -0.3472 -0.3595  0.4994
 2949TIP3    H230339   2.997   3.194   2.178 -1.0069  1.0628 -1.4842
 2950TIP3   OH230340   1.473   2.778  13.260  0.2336  0.1199  0.5662
 2950TIP3    H130341   1.385   2.770  13.298  0.4467  1.9971  1.4759
 2950TIP3    H230342   1.509   2.856  13.299  0.5091  2.1534 -3.4645
 2951TIP3   OH230343   6.448   5.511  13.404 -0.2934  0.5407  0.6997
 2951TIP3    H130344   6.405   5.596  13.410 -1.6501  0.0355 -1.3480
 2951TIP3    H230345   6.436   5.484  13.313  3.3527 -0.1529  0.3395
 2952TIP3   OH230346   2.836   5.424   2.636 -0.0797  0.5252 -0.0064
 2952TIP3    H130347   2.867   5.514   2.650 -1.7949  0.8079  2.1938
 2952TIP3    H230348   2.873   5.374   2.709 -0.9880 -0.0875  0.0375
 2953TIP3   OH230349   2.221   5.700  12.836 -0.1219 -0.3182  0.6577
 2953TIP3    H130350   2.284   5.635  12.867 -0.3141 -0.1134  1.5117
 2953TIP3    H230351   2.246   5.718  12.746  1.7778  0.6445  1.3559
 2954TIP3   OH230352   5.021   1.600   2.887  0.4108 -0.0167 -0.2927
 2954TIP3    H130353   5.026   1.688   2.922  1.4413 -0.5281  0.8626
 2954TIP3    H230354   4.944   1.601   2.829 -0.1113  1.3675  0.4273
 2955TIP3   OH230355   5.274   0.234  17.196 -0.0272 -0.0255 -0.2294
 2955TIP3    H130356   5.359   0.218  17.237 -0.2664  0.6831  0.5555
 2955TIP3    H230357   5.295   0.256  17.105  0.8263  2.6199  0.5675
 2956TIP3   OH230358   2.368   3.964   1.709  0.0393 -1.3725  0.1600
 2956TIP3    H130359   2.339   3.880   1.744 -1.0304 -0.9058  0.3953
 2956TIP3    H230360   2.355   4.026   1.780  0.6352 -0.9648 -0.0809
 2957TIP3   OH230361   2.486   0.667   3.767  0.3557  0.3870  0.2201
 2957TIP3    H130362   2.520   0.663   3.856 -1.0724 -1.1416  0.7223
 2957TIP3    H230363   2.417   0.733   3.770  1.0832  1.1697 -0.0407
 2958TIP3   OH230364   0.628   0.714  14.931 -0.0921  0.2625  0.4471
 2958TIP3    H130365   0.631   0.664  14.850 -0.8776 -0.3479  0.7965
 2958TIP3    H230366   0.638   0.805  14.903 -1.0002  0.1086 -0.3864
 2959TIP3   OH230367   0.036   2.011  13.777 -0.0741 -0.6182  0.1429
 2959TIP3    H130368  -0.026   2.082  13.761  2.1782  1.1524 -0.9939
 2959TIP3    H230369   0.100   2.048  13.838  0.2758 -2.1851  0.7512
 2960TIP3   OH230370   6.103   1.326   5.774  0.1718 -0.1276 -0.0734
 2960TIP3    H130371   6.081   1.369   5.692  1.2040 -0.5342 -0.5803
 2960TIP3    H230372   6.064   1.381   5.842  1.1184  1.4005 -0.7284
 2961TIP3   OH230373   6.579   5.953  15.590  0.2563 -0.0652 -0.1680
 2961TIP3    H130374   6.618   5.873  15.625  1.0548  0.1577 -0.5307
 2961TIP3    H230375   6.490   5.954  15.625 -0.1354 -1.6742 -1.0873
 2962TIP3   OH230376   0.569   1.173   2.589 -0.3594  0.1240 -0.4540
 2962TIP3    H130377   0.614   1.129   2.517 -2.2067  0.9986 -2.1886
 2962TIP3    H230378   0.640   1.206   2.645  1.0952 -0.9044 -1.6584
 2963TIP3   OH230379   4.494   6.438  12.860  0.4778 -0.6339 -0.4538
 2963TIP3    H130380   4.464   6.348  12.874  1.0821 -0.6059  1.1142
 2963TIP3    H230381   4.494   6.477  12.947  1.0401  0.6251 -1.0142
 2964TIP3   OH230382   1.761   3.548   4.288 -0.5059  0.1318 -0.1940
 2964TIP3    H130383   1.749   3.607   4.362 -1.3115  0.9731 -0.9860
 2964TIP3    H230384   1.754   3.460   4.326 -0.5643  0.5562  0.7807
 2965TIP3   OH230385   5.511   1.037   5.191 -0.0638  0.6850 -0.2217
 2965TIP3    H130386   5.557   1.015   5.272  0.6504 -0.7916 -1.0067
 2965TIP3    H230387   5.547   1.121   5.164  1.9147 -0.2758 -0.6279
 2966TIP3   OH230388   4.415   4.779   6.161  0.5626  0.3640  0.1874
 2966TIP3    H130389   4.334   4.806   6.204  1.0386  2.5006 -0.1754
 2966TIP3    H230390   4.392   4.702   6.110 -1.0199  0.3990  0.8502
 2967TIP3   OH230391   0.801   0.518  13.360  0.2442  0.0671 -0.0647
 2967TIP3    H130392   0.880   0.468  13.343  0.0373  0.0957 -1.1654
 2967TIP3    H230393   0.731   0.468  13.316 -0.1892  0.5551  0.0642
 2968TIP3   OH230394   2.227   3.925  16.440 -0.2831  0.2547 -0.3430
 2968TIP3    H130395   2.215   4.016  16.416  1.2280  1.0108  1.5773
 2968TIP3    H230396   2.138   3.890  16.446 -0.9503  1.9780  0.2571
 2969TIP3   OH230397   0.235   2.055   5.565  0.0148 -0.1375 -0.2763
 2969TIP3    H130398   0.165   2.080   5.505  1.4187  0.3201 -1.7456
 2969TIP3    H230399   0.273   1.976   5.526  0.1847 -0.5117  0.6277
 2970TIP3   OH230400   5.059   4.691   3.956  0.0566 -0.0663  0.2198
 2970TIP3    H130401   5.054   4.660   4.047  0.9920 -0.1998  0.2278
 2970TIP3    H230402   4.983   4.651   3.913  0.2848 -0.9832  0.6567
 2971TIP3   OH230403   2.747   0.945  15.452  0.5927 -0.2880 -0.2894
 2971TIP3    H130404   2.686   1.019  15.454  0.2161 -0.6125  0.0261
 2971TIP3    H230405   2.691   0.867  15.447  0.9612 -0.6152  0.5995
 2972TIP3   OH230406   2.624   5.113   5.444 -0.1490  0.4662  0.2118
 2972TIP3    H130407   2.582   5.189   5.483 -1.2104 -0.5861  1.1774
 2972TIP3    H230408   2.710   5.109   5.487 -0.2572  0.8747  0.4766
 2973TIP3   OH230409   6.558   5.612  12.597 -0.1033 -0.7304 -0.0140
 2973TIP3    H130410   6.613   5.648  12.527 -0.2011 -0.7215 -0.0866
 2973TIP3    H230411   6.471   5.644  12.577  0.1527  0.6455  1.0494
 2974TIP3   OH230412   0.131   0.990   4.862 -0.3988  0.5337 -0.9501
 2974TIP3    H130413   0.226   1.000   4.871 -0.6632  0.7459  2.1500
 2974TIP3    H230414   0.105   1.062   4.805  1.1298  1.3063 -0.7167
 2975TIP3   OH230415   2.885   0.821   0.995 -0.0568  0.4323  0.4009
 2975TIP3    H130416   2.968   0.848   0.955 -0.6804  0.7336 -0.6914
 2975TIP3    H230417   2.901   0.828   1.089  0.8903  1.3099  0.1829
 2976TIP3   OH230418   5.336   1.628   3.916 -0.5281  0.1525  0.4265
 2976TIP3    H130419   5.345   1.694   3.846  0.2751 -0.3747  0.0202
 2976TIP3    H230420   5.304   1.678   3.991  1.0607  1.2143  0.4264
 2977TIP3   OH230421   6.460   5.714   2.965  0.5749 -0.8535  0.0273
 2977TIP3    H130422   6.554   5.710   2.978  0.5348 -0.4354  0.4650
 2977TIP3    H230423   6.436   5.805   2.986  0.1084 -0.9046 -0.2713
 2978TIP3   OH230424   6.380   1.917  14.676  0.0772  0.3394 -0.2284
 2978TIP3    H130425   6.371   1.858  14.750  2.0679  0.1340 -0.1406
 2978TIP3    H230426   6.434   1.989  14.708  1.1028  0.1646 -1.5313
 2979TIP3   OH230427   5.268   2.572   3.814 -0.1458  0.5573  0.4379
 2979TIP3    H130428   5.344   2.621   3.782  1.0224 -1.1554  0.5248
 2979TIP3    H230429   5.292   2.481   3.803 -2.1079 -0.0144  0.7262
 2980TIP3   OH230430   2.122   4.142  17.241  0.1340 -0.1480 -0.7700
 2980TIP3    H130431   2.152   4.161  17.152  2.9966 -0.1766  0.1436
 2980TIP3    H230432   2.154   4.053  17.258 -0.9941 -0.4069  0.0620
 2981TIP3   OH230433   3.097   6.734   0.961 -0.1288  0.4270  0.2440
 2981TIP3    H130434   3.136   6.718   1.047 -1.2997  1.5483  0.9977
 2981TIP3    H230435   3.170   6.762   0.906  0.2911  1.5805  1.3820
 2982TIP3   OH230436   3.549   1.881  13.604  0.6053  0.8667 -0.1055
 2982TIP3    H130437   3.505   1.961  13.574 -0.9767  0.4239  0.9563
 2982TIP3    H230438   3.635   1.911  13.635  1.2119  1.7014 -2.5302
 2983TIP3   OH230439   3.772   5.752  12.455 -0.8062  0.3361 -0.3909
 2983TIP3    H130440   3.685   5.757  12.495 -0.7137  1.2311 -0.3103
 2983TIP3    H230441   3.800   5.843  12.445  0.1972  0.0504 -0.2516
 2984TIP3   OH230442   4.092   0.937   4.597 -0.1393  0.2072  0.0639
 2984TIP3    H130443   4.138   0.973   4.521 -2.8257  1.2521 -1.1275
 2984TIP3    H230444   4.106   0.842   4.591  0.8695  0.4144 -0.9401
 2985TIP3   OH230445   4.890   2.374   0.088 -0.1462 -0.0380 -0.1122
 2985TIP3    H130446   4.799   2.381   0.061  0.3348  1.2965 -1.4488
 2985TIP3    H230447   4.888   2.315   0.163 -2.1688  0.3531  0.1757
 2986TIP3   OH230448   0.086   3.086  11.982  0.3576 -0.3804 -0.6939
 2986TIP3    H130449   0.047   3.003  12.008  0.7262  0.2041  1.9052
 2986TIP3    H230450   0.063   3.146  12.053  1.3680  1.3556 -1.7951
 2987TIP3   OH230451   0.697   0.251  14.877 -0.0199 -0.3094 -0.3614
 2987TIP3    H130452   0.604   0.255  14.900 -0.1927  0.6230 -1.2188
 2987TIP3    H230453   0.713   0.330  14.827  1.0255 -0.9408 -1.0344
 2988TIP3   OH230454   2.175   2.001  12.166 -0.6216  0.1488 -0.5644
 2988TIP3    H130455   2.268   1.982  12.157  0.4421  3.8581  1.4136
 2988TIP3    H230456   2.161   2.078  12.110 -2.1942  0.4193  0.1602
 2989TIP3   OH230457   3.343   0.140  16.865 -0.0521  0.7992  0.1138
 2989TIP3    H130458   3.255   0.134  16.826  1.0703 -0.0217 -2.4253
 2989TIP3    H230459   3.329   0.125  16.958 -2.3737 -1.6173 -0.5419
 2990TIP3   OH230460   2.983   1.961  13.690 -0.0379  0.1047 -0.1620
 2990TIP3    H130461   3.055   1.908  13.725 -0.5534 -1.1626 -0.9820
 2990TIP3    H230462   2.981   2.039  13.746  0.1764 -1.1282  1.6125
 2991TIP3   OH230463   0.241   0.555  16.603  0.2485  0.0674 -0.5756
 2991TIP3    H130464   0.220   0.532  16.694  0.8570 -1.5242 -0.8173
 2991TIP3    H230465   0.320   0.608  16.609  0.7232 -0.6626 -0.2013
 2992TIP3   OH230466   6.228   1.097  13.082 -0.5051  0.3616 -0.6871
 2992TIP3    H130467   6.150   1.136  13.120  0.6932  1.0177  1.1742
 2992TIP3    H230468   6.223   1.004  13.105  0.6039  0.8894  1.8430
 2993TIP3   OH230469   1.778   2.659  16.537 -0.2121 -0.0935 -0.1250
 2993TIP3    H130470   1.865   2.647  16.575 -0.5026 -1.1603  0.2211
 2993TIP3    H230471   1.793   2.667  16.443  0.2677 -0.2346 -0.0620
 2994TIP3   OH230472   4.603   1.101   0.090  0.1531 -0.0267 -0.0627
 2994TIP3    H130473   4.694   1.127   0.078 -0.0251  0.0651 -1.2640
 2994TIP3    H230474   4.574   1.073   0.003 -1.5603  1.8139 -0.1160
 2995TIP3   OH230475   6.214   6.426   0.957 -0.6066  0.6193 -0.0420
 2995TIP3    H130476   6.178   6.448   1.043 -0.0718 -0.9696  0.5987
 2995TIP3    H230477   6.296   6.475   0.952 -0.4856  0.4713  0.4868
 2996TIP3   OH230478   0.072   5.683   5.283 -0.8591  0.5840  0.4265
 2996TIP3    H130479   0.011   5.633   5.229 -1.1027  0.2004  1.0591
 2996TIP3    H230480   0.017   5.746   5.329 -0.9367 -0.5192  1.8731
 2997TIP3   OH230481   1.908   5.277   3.357  0.1071 -0.3790 -0.3654
 2997TIP3    H130482   1.829   5.294   3.408  0.5394 -1.1409  0.5920
 2997TIP3    H230483   1.971   5.341   3.390 -0.1772  0.3570 -1.2673
 2998TIP3   OH230484   6.602   2.331   1.073 -0.5744 -0.8529 -0.1357
 2998TIP3    H130485   6.679   2.290   1.034 -1.1611 -0.3569 -1.8387
 2998TIP3    H230486   6.616   2.425   1.061 -1.1638 -0.7291  0.1100
 2999TIP3   OH230487   6.400   4.113   5.615 -0.2743  0.4941 -0.2117
 2999TIP3    H130488   6.424   4.078   5.700 -0.4386 -0.0221 -0.3734
 2999TIP3    H230489   6.483   4.127   5.570 -0.0885  2.6246  0.7539
 3000TIP3   OH230490   3.993   6.363   4.283  0.0906  0.4862  0.5956
 3000TIP3    H130491   4.072   6.373   4.336  1.5052  2.1719 -1.7472
 3000TIP3    H230492   3.943   6.443   4.302  1.2364  1.7577 -1.5822
 3001TIP3   OH230493   4.993   2.278   2.764 -0.2622  0.0988  0.3692
 3001TIP3    H130494   4.979   2.307   2.673  0.1333 -0.9465 -0.0291
 3001TIP3    H230495   4.957   2.190   2.766 -0.5852  0.2543  1.3321
 3002TIP3   OH230496   6.572   0.687  11.922 -0.2566 -0.1620  0.0868
 3002TIP3    H130497   6.624   0.731  11.855  1.0717 -2.5599 -0.5266
 3002TIP3    H230498   6.547   0.603  11.882 -1.8563 -0.4168  1.5585
 3003TIP3   OH230499   2.434   2.136  11.828 -0.2198 -0.3872  0.3940
 3003TIP3    H130500   2.385   2.072  11.776 -1.3902  0.8535 -0.0740
 3003TIP3    H230501   2.526   2.120  11.807 -0.5957 -0.9242 -0.8619
 3004TIP3   OH230502   1.573   0.325  11.125  0.0718 -0.1780 -0.1959
 3004TIP3    H130503   1.600   0.307  11.035  0.1121  0.9679 -0.4274
 3004TIP3    H230504   1.588   0.419  11.136 -2.5994  0.2578  0.0982
 3005TIP3   OH230505   4.095   6.608   5.259  0.1955 -0.2922 -0.6786
 3005TIP3    H130506   4.184   6.580   5.239 -0.1419 -1.5878 -0.3835
 3005TIP3    H230507   4.096   6.703   5.246  1.7749 -0.2190 -0.1007
 3006TIP3   OH230508   3.658   2.121  17.107 -0.4892  0.1702  0.4653
 3006TIP3    H130509   3.569   2.105  17.078 -0.7841  1.3755  0.7030
 3006TIP3    H230510   3.649   2.155  17.196  0.1234  1.8506 -0.1051
 3007TIP3   OH230511   0.912   6.399  11.753  0.5593  0.5651 -0.2450
 3007TIP3    H130512   0.868   6.435  11.830  1.2329 -0.3419  0.5622
 3007TIP3    H230513   0.860   6.322  11.730  0.6129  0.5873 -0.4427
 3008TIP3   OH230514   6.596   2.091   3.073  0.2714 -0.9014  0.0479
 3008TIP3    H130515   6.636   2.008   3.049 -0.2763 -1.3118  0.5478
 3008TIP3    H230516   6.669   2.151   3.085  0.7106 -1.5528  0.6101
 3009TIP3   OH230517   3.832   4.703   2.274 -0.6687 -0.2681 -0.1449
 3009TIP3    H130518   3.764   4.680   2.211 -0.5096 -0.8476 -0.1083
 3009TIP3    H230519   3.914   4.681   2.230 -0.5642 -0.8686  0.3295
 3010TIP3   OH230520   4.955   1.147   4.149  0.6941  0.0782 -0.3496
 3010TIP3    H130521   4.978   1.228   4.103 -0.4048  0.0916 -0.8822
 3010TIP3    H230522   4.933   1.175   4.237  0.7853  0.2986 -0.3974
 3011TIP3   OH230523   6.648   4.071   0.456  0.3125  0.8734 -0.1680
 3011TIP3    H130524   6.662   4.163   0.432  1.9254  0.3326 -1.3936
 3011TIP3    H230525   6.668   4.022   0.376  0.6107 -0.6193  0.8110
 3012TIP3   OH230526   3.152   1.730  11.325 -0.1490 -0.1795 -0.3131
 3012TIP3    H130527   3.126   1.697  11.411 -1.0461 -1.3218 -1.0012
 3012TIP3    H230528   3.230   1.783  11.342 -2.1656  2.2821  1.6294
 3013TIP3   OH230529   4.504   3.822   3.581  0.5429  0.2511 -0.1823
 3013TIP3    H130530   4.550   3.887   3.633  3.3825 -1.3844 -0.5275
 3013TIP3    H230531   4.487   3.866   3.497 -0.6891  1.6492  0.7833
 3014TIP3   OH230532   4.661   3.567  13.646 -0.0675 -0.1440 -0.1773
 3014TIP3    H130533   4.672   3.661  13.661  1.3919 -0.4836  1.0693
 3014TIP3    H230534   4.672   3.528  13.733 -1.4985 -1.4072 -0.5504
 3015TIP3   OH230535   5.185   5.591   3.230 -0.0822  0.2137 -0.4947
 3015TIP3    H130536   5.113   5.651   3.251  0.6275  0.6859  0.6077
 3015TIP3    H230537   5.260   5.648   3.214  0.6482 -0.3891  0.7715
 3016TIP3   OH230538   1.682   1.232  15.758  0.1705  0.2877  0.0520
 3016TIP3    H130539   1.695   1.304  15.820  0.5673 -0.0287  0.3399
 3016TIP3    H230540   1.668   1.276  15.673  0.7986  0.6931  0.1540
 3017TIP3   OH230541   3.371   4.744  11.357 -0.4631 -0.6273 -0.3655
 3017TIP3    H130542   3.291   4.697  11.379 -0.5948  0.1247  0.8086
 3017TIP3    H230543   3.427   4.736  11.435  0.4838 -0.8928 -1.0599
 3018TIP3   OH230544   2.895   5.151  13.914  0.0646  0.4744 -0.2743
 3018TIP3    H130545   2.887   5.056  13.913  0.9184  0.4015 -0.8789
 3018TIP3    H230546   2.807   5.183  13.892 -0.1188 -0.1825 -0.5000
 3019TIP3   OH230547   5.296   1.267   4.761 -0.2229  0.1204 -0.6204
 3019TIP3    H130548   5.226   1.203   4.770  0.0462  0.0002  0.6461
 3019TIP3    H230549   5.367   1.234   4.815  0.1509  1.1614 -0.4481
 3020TIP3   OH230550   6.388   2.655  12.264 -0.4319  0.5125  0.1488
 3020TIP3    H130551   6.353   2.731  12.218  0.6004 -0.0136 -1.5246
 3020TIP3    H230552   6.481   2.676  12.278 -0.7550  0.7316  2.1428
 3021TIP3   OH230553   4.459   1.354  14.221 -0.5278  0.6849  0.5664
 3021TIP3    H130554   4.489   1.437  14.259  0.3354 -0.3254  2.1558
 3021TIP3    H230555   4.413   1.310  14.292  1.6042 -1.4847  0.6853
 3022TIP3   OH230556   3.175   6.706   2.131  0.1601  0.0411 -0.4499
 3022TIP3    H130557   3.170   6.720   2.226  0.7950  0.6611 -0.5004
 3022TIP3    H230558   3.151   6.614   2.119 -1.0265  0.2526  0.2005
 3023TIP3   OH230559   1.827   5.873  12.611 -0.5533  0.0463 -0.3744
 3023TIP3    H130560   1.891   5.810  12.645 -2.7855 -0.7050  2.6061
 3023TIP3    H230561   1.848   5.879  12.517  1.8075 -2.6193 -0.1040
 3024TIP3   OH230562   5.714   2.229   5.196 -0.8696 -0.1048  0.2396
 3024TIP3    H130563   5.638   2.284   5.176  0.0270  0.9398 -0.2890
 3024TIP3    H230564   5.753   2.270   5.273 -1.5572 -1.3744  1.2872
 3025TIP3   OH230565   3.450   2.736  16.011  0.1892  0.0894  0.0482
 3025TIP3    H130566   3.377   2.745  15.949  1.2839  0.8038 -1.1622
 3025TIP3    H230567   3.463   2.642  16.019  0.1762 -0.0174 -1.0141
 3026TIP3   OH230568   0.651   2.431   0.969  0.7363 -0.7488  0.3827
 3026TIP3    H130569   0.719   2.497   0.953 -0.0420  0.1588  0.7470
 3026TIP3    H230570   0.698   2.357   1.008  1.5389 -0.1745  0.5175
 3027TIP3   OH230571   1.110   4.830  16.908  0.2184  0.1706 -0.3129
 3027TIP3    H130572   1.177   4.892  16.939  0.7723  0.1324 -1.4022
 3027TIP3    H230573   1.119   4.754  16.966  0.5303  0.5194  0.1045
 3028TIP3   OH230574   1.693   5.340  17.080 -0.1334  0.0400 -0.2285
 3028TIP3    H130575   1.737   5.392  17.148  1.4325 -2.2595  0.5672
 3028TIP3    H230576   1.763   5.322  17.016 -1.2419  0.9246 -1.7191
 3029TIP3   OH230577   6.683   4.439  11.774 -0.1045  0.4785  0.1192
 3029TIP3    H130578   6.777   4.456  11.768 -0.0431 -0.6115 -2.4822
 3029TIP3    H230579   6.642   4.509  11.724 -0.4584 -0.8967 -1.5688
 3030TIP3   OH230580   6.137   3.133  13.592  0.4712  0.1844  0.0806
 3030TIP3    H130581   6.214   3.082  13.567  1.5346  1.7782 -0.0118
 3030TIP3    H230582   6.063   3.073  13.581  1.6680 -1.2779 -0.1260
 3031TIP3   OH230583   2.380   6.026   4.886 -0.7353 -0.5022  0.4483
 3031TIP3    H130584   2.334   6.107   4.908 -1.1806 -0.9684  1.2694
 3031TIP3    H230585   2.386   6.027   4.791  0.7916  1.3119  0.5578
 3032TIP3   OH230586   0.285   6.188   5.918  0.0789  0.1706 -0.3266
 3032TIP3    H130587   0.275   6.275   5.878 -2.2863 -0.4876 -1.2347
 3032TIP3    H230588   0.352   6.201   5.985 -0.0029  2.6307 -0.6485
 3033TIP3   OH230589   4.617   3.704  16.736  0.4662 -0.8075  0.7925
 3033TIP3    H130590   4.599   3.798  16.742 -0.0196 -0.7735 -1.0117
 3033TIP3    H230591   4.686   3.688  16.801 -1.1309  0.3438  2.8066
 3034TIP3   OH230592   0.740   0.895   5.952  0.3715  0.1658 -0.6668
 3034TIP3    H130593   0.655   0.908   5.995  0.0086  0.0562 -1.3402
 3034TIP3    H230594   0.804   0.901   6.023 -0.2489 -0.4354 -0.0495
 3035TIP3   OH230595   5.862   4.415   3.914  0.3393  0.2834 -0.0202
 3035TIP3    H130596   5.833   4.344   3.971 -1.0931 -1.0466 -2.3442
 3035TIP3    H230597   5.948   4.386   3.882  0.8253  0.7119  0.8653
 3036TIP3   OH230598   0.644   0.417  10.788 -0.4358  0.7702  0.1969
 3036TIP3    H130599   0.610   0.340  10.742 -1.0399  0.7502  0.6861
 3036TIP3    H230600   0.612   0.491  10.736 -0.9064  0.7385  0.4411
 3037TIP3   OH230601   3.757   1.083  12.351  0.3981  0.0807 -0.0417
 3037TIP3    H130602   3.712   1.003  12.325  2.8792 -1.1008 -0.9093
 3037TIP3    H230603   3.756   1.082  12.447 -2.0225  0.4836 -0.0358
 3038TIP3   OH230604   3.148   1.078  13.774 -0.3303 -0.5499 -0.0125
 3038TIP3    H130605   3.229   1.122  13.800 -1.0394  0.4832  0.4824
 3038TIP3    H230606   3.078   1.133  13.811 -1.3141 -0.1503 -2.4032
 3039TIP3   OH230607   0.760   1.660  11.650  0.7668 -0.4842  0.1323
 3039TIP3    H130608   0.810   1.728  11.696 -0.7421 -0.0865  1.2289
 3039TIP3    H230609   0.750   1.693  11.561 -0.0947  0.8198  0.7051
 3040TIP3   OH230610   2.540   0.249  16.074  0.2231 -0.4420  0.2008
 3040TIP3    H130611   2.532   0.257  15.979 -0.3037 -0.6593  0.2238
 3040TIP3    H230612   2.633   0.260  16.092  0.2012  0.4666 -0.2573
 3041TIP3   OH230613   5.209   3.081   5.134  0.0059  0.4299  0.1197
 3041TIP3    H130614   5.289   3.033   5.154  0.1358  0.8578  0.6475
 3041TIP3    H230615   5.231   3.173   5.153 -1.0557  0.3736  1.6330
 3042TIP3   OH230616   6.706   4.566   2.459 -0.5948  0.1538  0.7001
 3042TIP3    H130617   6.688   4.472   2.448 -3.4056  0.6095  0.9864
 3042TIP3    H230618   6.801   4.573   2.455 -0.3812 -2.6199 -0.1010
 3043TIP3   OH230619   2.548   4.060   0.834  0.7888 -0.2169  0.0567
 3043TIP3    H130620   2.592   4.142   0.855 -0.6450  0.2432  1.3129
 3043TIP3    H230621   2.519   4.070   0.743 -0.3309  1.0988  0.5538
 3044TIP3   OH230622   4.440   6.751  16.045  0.3106  0.4574  0.2442
 3044TIP3    H130623   4.500   6.732  15.973  0.3995  0.2782  0.3669
 3044TIP3    H230624   4.496   6.766  16.121  0.2332  1.0017  0.2010
 3045TIP3   OH230625   4.813   1.616  14.177 -0.7597  0.0983 -0.1963
 3045TIP3    H130626   4.842   1.534  14.217 -0.9299  0.3779  0.4971
 3045TIP3    H230627   4.868   1.625  14.099 -0.2636 -0.3164  0.1033
 3046TIP3   OH230628   5.803   3.730  14.792 -0.5939  0.0380 -0.5767
 3046TIP3    H130629   5.820   3.821  14.767 -1.7555  0.2276 -0.7190
 3046TIP3    H230630   5.889   3.689  14.796  0.0419  1.5297  1.0084
 3047TIP3   OH230631   2.115   1.913   2.283 -0.0720  0.1607 -0.4186
 3047TIP3    H130632   2.114   1.956   2.197 -0.6524 -0.7902 -0.9069
 3047TIP3    H230633   2.094   1.982   2.345  0.7298  0.9470 -1.0060
 3048TIP3   OH230634   5.263   2.396   4.339 -0.0164 -0.0022 -0.1710
 3048TIP3    H130635   5.297   2.390   4.428 -0.5579  1.0532  0.1204
 3048TIP3    H230636   5.206   2.319   4.330  1.0227 -0.7896 -0.0480
 3049TIP3   OH230637   6.065   0.690  12.287 -0.1533 -0.9919  0.5642
 3049TIP3    H130638   6.073   0.623  12.220 -0.7170 -1.0014  0.5020
 3049TIP3    H230639   6.098   0.770  12.246  0.6342 -1.2608  0.6816
 3050TIP3   OH230640   6.265   6.469  14.887 -0.1780  0.2381  0.1688
 3050TIP3    H130641   6.258   6.487  14.793  2.5506  1.5827  0.1779
 3050TIP3    H230642   6.200   6.527  14.928  0.7254  1.8844 -0.6809
 3051TIP3   OH230643   2.265   4.530   3.710 -0.0958 -0.5592  0.4432
 3051TIP3    H130644   2.237   4.605   3.657  2.0158  1.2917  1.8328
 3051TIP3    H230645   2.203   4.528   3.784  0.5974  0.6545  1.0800
 3052TIP3   OH230646   4.340   1.212   6.285  0.0371 -0.3480  0.4039
 3052TIP3    H130647   4.277   1.260   6.338  0.3625  0.8992 -0.3166
 3052TIP3    H230648   4.291   1.187   6.206  0.0515 -0.6209  0.4812
 3053TIP3   OH230649   2.596   2.490   2.549 -0.2212  1.0626  0.7022
 3053TIP3    H130650   2.567   2.408   2.510 -0.6451  1.4471  0.1895
 3053TIP3    H230651   2.631   2.466   2.635 -1.5580  0.5132  1.1034
 3054TIP3   OH230652   3.193   6.347   1.276 -0.1883 -0.2431 -0.1290
 3054TIP3    H130653   3.210   6.256   1.297  3.8967  0.6273  0.8096
 3054TIP3    H230654   3.280   6.386   1.264 -1.8237  3.4011 -1.0772
 3055TIP3   OH230655   2.184   3.069   0.917 -0.3438 -0.6209  0.0623
 3055TIP3    H130656   2.278   3.069   0.931 -0.4927  0.1250  1.1456
 3055TIP3    H230657   2.173   3.063   0.822  0.7849 -0.8371 -0.0544
 3056TIP3   OH230658   3.339   3.844  15.115 -0.3538  0.0458 -0.5010
 3056TIP3    H130659   3.333   3.885  15.029  0.9710  1.5219  0.0853
 3056TIP3    H230660   3.419   3.880  15.154  0.2885 -2.3030  0.4756
 3057TIP3   OH230661   3.408   5.676  13.713  0.5017 -0.5582  0.7098
 3057TIP3    H130662   3.410   5.762  13.670  1.1680  0.2095  2.2467
 3057TIP3    H230663   3.494   5.638  13.693  0.6593 -0.3669  1.0151
 3058TIP3   OH230664   0.523   1.541  13.040 -0.4870 -0.2771 -0.4760
 3058TIP3    H130665   0.436   1.532  13.078 -0.8596 -1.3063 -1.5373
 3058TIP3    H230666   0.572   1.467  13.075 -0.4820 -0.5410 -1.0299
 3059TIP3   OH230667   6.699   0.687   3.402  0.7709 -0.2797  0.1916
 3059TIP3    H130668   6.788   0.720   3.406  1.3459 -1.6846 -0.4959
 3059TIP3    H230669   6.708   0.592   3.408 -0.4922 -0.5925 -1.9301
 3060TIP3   OH230670   4.905   4.122   1.836  0.0438  0.0332  0.0960
 3060TIP3    H130671   4.927   4.061   1.907  1.0359 -0.9646 -1.0489
 3060TIP3    H230672   4.909   4.208   1.877  2.0347 -0.4301  0.9259
 3061TIP3   OH230673   1.997   5.683   2.945 -0.4885  0.2318  0.2301
 3061TIP3    H130674   1.940   5.653   3.015 -1.9208  0.3627 -0.8486
 3061TIP3    H230675   1.948   5.754   2.903  0.3587  0.1693 -0.8863
 3062TIP3   OH230676   1.366   2.864  12.077  0.4471 -0.0663 -0.6859
 3062TIP3    H130677   1.458   2.853  12.100  0.6533  2.3557 -0.2398
 3062TIP3    H230678   1.318   2.841  12.157  0.5305 -2.7520 -1.3428
 3063TIP3   OH230679   0.466   4.689  14.673  0.3066  0.3983 -0.2546
 3063TIP3    H130680   0.535   4.725  14.728 -0.9647  0.8656  1.0755
 3063TIP3    H230681   0.418   4.630  14.730 -0.2005 -0.1745 -1.2542
 3064TIP3   OH230682   5.766   3.820   3.793  0.3974 -0.5640 -0.6956
 3064TIP3    H130683   5.788   3.854   3.880  0.6633  0.0838 -1.0111
 3064TIP3    H230684   5.843   3.771   3.766  0.2848 -0.8298 -0.5338
 3065TIP3   OH230685   6.542   1.128   5.468 -0.1394 -0.0195  0.3375
 3065TIP3    H130686   6.457   1.155   5.435 -0.5989 -1.9926 -0.1788
 3065TIP3    H230687   6.530   1.122   5.563 -0.4208  0.2368  0.3172
 3066TIP3   OH230688   2.114   0.733   5.505 -0.2817  0.1520 -0.2600
 3066TIP3    H130689   2.127   0.742   5.411 -0.5122 -1.6072 -0.4784
 3066TIP3    H230690   2.197   0.700   5.538 -0.6724 -0.6507 -0.0679
 3067TIP3   OH230691   0.044   4.916   1.387  0.0862 -0.1880 -0.6513
 3067TIP3    H130692  -0.006   4.855   1.442  0.7185  0.3130  0.4979
 3067TIP3    H230693   0.015   5.003   1.416 -0.2440  0.0681 -1.7440
 3068TIP3   OH230694   5.892   2.988  10.448 -0.0314  0.2446  0.0846
 3068TIP3    H130695   5.955   2.919  10.425  1.0535  0.4027  2.4518
 3068TIP3    H230696   5.902   3.054  10.379  2.1138  0.0792  0.2090
 3069TIP3   OH230697   1.147   4.147  16.420  0.2770 -0.1241 -0.2676
 3069TIP3    H130698   1.220   4.099  16.382  0.5063 -1.4723  1.8459
 3069TIP3    H230699   1.070   4.095  16.398  0.2337 -0.0557 -0.2768
 3070TIP3   OH230700   0.331   4.846   5.342 -0.9072  0.1102 -0.7656
 3070TIP3    H130701   0.400   4.865   5.278 -0.9510  1.1772 -0.5009
 3070TIP3    H230702   0.261   4.907   5.319 -0.3210  1.5797  1.2796
 3071TIP3   OH230703   3.848   2.763  15.704  0.0984  0.1221  0.2712
 3071TIP3    H130704   3.883   2.680  15.737  0.7884  0.2962 -0.0328
 3071TIP3    H230705   3.759   2.767  15.741  0.4001 -0.2987  1.0598
 3072TIP3   OH230706   2.586   1.952  17.213  0.0750 -0.1665  0.1586
 3072TIP3    H130707   2.616   2.002  17.138  0.8766 -0.2823  0.3924
 3072TIP3    H230708   2.528   1.885  17.177  0.8890 -0.5685 -0.4213
 3073TIP3   OH230709   6.681   6.275  12.774 -0.4050 -0.0718  0.3575
 3073TIP3    H130710   6.716   6.286  12.862 -1.1942  0.6988  0.5752
 3073TIP3    H230711   6.629   6.353  12.758 -0.2025 -0.1628 -0.8310
 3074TIP3   OH230712   5.724   2.294  14.971 -0.2443  0.3521 -0.8490
 3074TIP3    H130713   5.636   2.259  14.956 -0.5444  0.8222 -0.2394
 3074TIP3    H230714   5.773   2.220  15.007 -0.9819  0.6295  0.8055
 3075TIP3   OH230715   1.105   5.756  16.995 -0.1892  0.2938 -0.2405
 3075TIP3    H130716   1.092   5.737  16.902 -0.7215 -0.9209  0.0783
 3075TIP3    H230717   1.133   5.848  16.996  2.4439 -0.4450 -1.7943
 3076TIP3   OH230718   5.523   3.212   5.714  0.0101 -0.3966 -0.2398
 3076TIP3    H130719   5.453   3.156   5.746  0.9068 -2.2571 -1.3744
 3076TIP3    H230720   5.487   3.254   5.636 -0.3132 -0.2666 -0.0174
 3077TIP3   OH230721   3.216   4.397   0.588  0.2019 -0.0585 -0.6263
 3077TIP3    H130722   3.295   4.344   0.600 -0.8581 -1.8710 -1.5852
 3077TIP3    H230723   3.244   4.486   0.610  2.2590 -0.8338  0.0022
 3078TIP3   OH230724   1.401   1.507  17.093 -0.3432 -0.3051  0.0119
 3078TIP3    H130725   1.464   1.437  17.077  0.5841  0.1486  1.5138
 3078TIP3    H230726   1.333   1.465  17.147 -0.3476 -0.3298 -0.0104
 3079TIP3   OH230727   0.274   5.601   6.417 -0.2549  0.2797  0.8275
 3079TIP3    H130728   0.199   5.573   6.469  0.7433 -1.2752  1.4927
 3079TIP3    H230729   0.350   5.576   6.470  0.7582 -0.2068 -0.8104
 3080TIP3   OH230730   1.877   2.933   0.584 -0.2695  0.0461 -0.3271
 3080TIP3    H130731   1.866   2.870   0.513 -0.9448 -0.9907  0.6829
 3080TIP3    H230732   1.913   2.882   0.657 -2.9704  0.3292  1.2516
 3081TIP3   OH230733   1.042   0.035   5.242  0.3624  0.1476  0.1891
 3081TIP3    H130734   1.113   0.040   5.305  1.6378 -2.0114 -0.9942
 3081TIP3    H230735   1.070   0.089   5.168 -0.8506  2.1650  1.1521
 3082TIP3   OH230736   6.053   1.566   1.532 -0.0575 -0.3041 -0.2194
 3082TIP3    H130737   6.026   1.649   1.572 -1.4003 -1.2457  0.8515
 3082TIP3    H230738   5.982   1.543   1.473  0.9985  0.0404 -1.6573
 3083TIP3   OH230739   6.203   2.838  11.015 -0.8114 -0.3700 -0.0620
 3083TIP3    H130740   6.116   2.825  11.053 -1.4656 -0.4911 -1.5965
 3083TIP3    H230741   6.193   2.817  10.922  0.9400 -0.7194 -0.1915
 3084TIP3   OH230742   1.080   5.220  15.821  0.0434  0.0027 -0.3424
 3084TIP3    H130743   1.159   5.221  15.767  0.8121  1.0659  0.7732
 3084TIP3    H230744   1.056   5.312  15.829 -0.4016 -0.1972  0.6290
 3085TIP3   OH230745   1.678   0.620   2.742 -0.4458 -0.1515  0.1619
 3085TIP3    H130746   1.585   0.633   2.724 -0.5344  1.4371  1.6170
 3085TIP3    H230747   1.700   0.689   2.805  1.7919 -0.3097 -0.4094
 3086TIP3   OH230748   4.008   1.261  14.040 -0.1473  0.6041 -0.0638
 3086TIP3    H130749   3.964   1.216  14.112 -0.9586 -0.8945 -1.4423
 3086TIP3    H230750   4.015   1.352  14.069 -0.8817  0.1309  1.6898
 3087TIP3   OH230751   3.316   0.870  15.448  0.6615  0.1468  0.2403
 3087TIP3    H130752   3.368   0.894  15.524  0.4502 -1.8235  1.0224
 3087TIP3    H230753   3.360   0.794  15.411  0.4226  0.7249 -1.2691
 3088TIP3   OH230754   6.252   4.718  13.393 -0.1107  0.1327 -0.0624
 3088TIP3    H130755   6.166   4.722  13.435  0.5246 -0.1771  1.2881
 3088TIP3    H230756   6.239   4.661  13.318 -0.7091 -1.2997  1.0942
 3089TIP3   OH230757   2.888   0.315   4.272 -0.4494 -0.0675  0.6503
 3089TIP3    H130758   2.900   0.235   4.220  0.6872 -0.3208  1.2867
 3089TIP3    H230759   2.874   0.384   4.208 -0.7149 -0.6561  0.0686
 3090TIP3   OH230760   0.857   4.086  14.993 -0.3345  0.3897  0.3124
 3090TIP3    H130761   0.943   4.115  15.023 -1.0157  1.2384  1.4772
 3090TIP3    H230762   0.808   4.072  15.074 -0.6886 -1.9690 -0.2855
 3091TIP3   OH230763   6.443   2.679  14.009  0.0086  0.0373 -0.4320
 3091TIP3    H130764   6.369   2.625  13.983  1.3719 -1.2518 -1.7671
 3091TIP3    H230765   6.466   2.728  13.930  1.3931 -0.5893 -0.4446
 3092TIP3   OH230766   5.551   3.524  16.882  0.2901  0.3547  0.1195
 3092TIP3    H130767   5.633   3.480  16.904 -0.1635 -0.9649 -0.7691
 3092TIP3    H230768   5.523   3.564  16.965  1.9645  1.0816  0.3669
 3093TIP3   OH230769   6.656   1.026   4.386 -0.5335  0.2740  0.0886
 3093TIP3    H130770   6.597   1.096   4.356 -2.7408 -1.4619  0.2086
 3093TIP3    H230771   6.660   1.037   4.481 -1.9402 -0.5504  0.2499
 3094TIP3   OH230772   3.089   2.829   3.436  0.2618 -0.1691  0.0066
 3094TIP3    H130773   3.093   2.877   3.353 -2.1301 -1.3590 -0.8667
 3094TIP3    H230774   3.091   2.897   3.503  0.5123  0.9308 -1.0985
 3095TIP3   OH230775   2.919   3.964   2.176  1.0483  0.0676 -0.5643
 3095TIP3    H130776   2.988   3.999   2.232 -0.4354  1.1917  0.6431
 3095TIP3    H230777   2.845   4.023   2.191  0.6319  0.4622 -3.8275
 3096TIP3   OH230778   3.070   1.553  11.136  0.5712 -0.0375  0.4422
 3096TIP3    H130779   2.976   1.554  11.122  0.7460  0.2288 -0.7826
 3096TIP3    H230780   3.088   1.633  11.186  0.5066  1.4841 -1.8953
 3097TIP3   OH230781   1.284   4.746   6.101 -0.2715 -0.3584  0.2897
 3097TIP3    H130782   1.354   4.746   6.167  0.5445 -0.0281 -0.5767
 3097TIP3    H230783   1.208   4.779   6.148  0.2277 -0.4244  1.1593
 3098TIP3   OH230784   0.227   3.480   1.859 -0.7544  0.1983 -0.0887
 3098TIP3    H130785   0.292   3.435   1.805 -0.1193  1.4846 -0.3990
 3098TIP3    H230786   0.210   3.562   1.813 -1.2418  0.6855  0.9519
 3099TIP3   OH230787   6.615   2.372  11.968 -0.4313  0.5634 -0.2112
 3099TIP3    H130788   6.682   2.321  12.014 -2.1680 -1.9443 -0.3211
 3099TIP3    H230789   6.656   2.399  11.886  0.3196 -1.3483 -0.4822
 3100TIP3   OH230790   2.344   5.323  13.337 -1.1580 -0.0298  0.0987
 3100TIP3    H130791   2.347   5.286  13.249 -0.2751 -0.4502  0.3042
 3100TIP3    H230792   2.423   5.291  13.380 -0.4589  1.9397  0.3478
 3101TIP3   OH230793   1.342   0.622  13.437 -0.1188  0.5492  0.3549
 3101TIP3    H130794   1.337   0.552  13.502  0.2419  0.4819  0.3154
 3101TIP3    H230795   1.377   0.697  13.485 -1.5574  1.0366  0.6595
 3102TIP3   OH230796   1.918   3.188   1.526 -0.2056 -0.4482  0.2870
 3102TIP3    H130797   2.000   3.237   1.537  0.6811 -1.9173  0.3852
 3102TIP3    H230798   1.854   3.254   1.499  1.5413  0.3663 -2.0382
 3103TIP3   OH230799   2.235   2.480  16.202  0.0259 -0.3578 -0.4247
 3103TIP3    H130800   2.167   2.442  16.147 -0.2887 -1.0084  0.4123
 3103TIP3    H230801   2.306   2.502  16.141 -1.6510  2.0473 -1.5968
 3104TIP3   OH230802   6.315   0.189  11.616  0.1789  0.4229  0.6205
 3104TIP3    H130803   6.269   0.270  11.637 -1.4130  0.0172 -1.1741
 3104TIP3    H230804   6.359   0.207  11.533 -1.6583 -1.0871 -0.7265
 3105TIP3   OH230805   6.060   5.493  15.555 -0.2792 -0.4357 -0.5341
 3105TIP3    H130806   5.994   5.533  15.499  0.2268  0.8656 -0.2078
 3105TIP3    H230807   6.076   5.408  15.514 -1.2264 -0.2463 -1.3358
 3106TIP3   OH230808   0.506   1.733  14.748  0.5015  0.2639  0.5269
 3106TIP3    H130809   0.415   1.712  14.729  0.4933 -0.2085  1.0800
 3106TIP3    H230810   0.510   1.829  14.744 -0.9570  0.5814  4.7014
 3107TIP3   OH230811   6.113   1.787  14.845 -0.2344 -0.3744  0.0463
 3107TIP3    H130812   6.206   1.804  14.861  0.0150 -2.0410  0.5567
 3107TIP3    H230813   6.082   1.862  14.795  1.0064  0.9659  1.2414
 3108TIP3   OH230814   4.592   1.683  15.127 -0.2734  0.6459 -0.6974
 3108TIP3    H130815   4.635   1.598  15.125 -1.2339  0.1294  0.3180
 3108TIP3    H230816   4.530   1.682  15.054 -0.2763  0.4805 -0.6922
 3109TIP3   OH230817   4.315   0.708  15.542 -0.2998 -0.3172 -0.2054
 3109TIP3    H130818   4.385   0.768  15.516 -0.8639  0.5332  0.2383
 3109TIP3    H230819   4.324   0.634  15.482  1.0418 -0.2581 -0.0937
 3110TIP3   OH230820   2.009   1.084  15.009  0.1648  0.1517  0.1637
 3110TIP3    H130821   2.084   1.094  14.950  0.4251  3.0566  0.8907
 3110TIP3    H230822   1.933   1.082  14.951  0.5347  1.2678 -0.3747
 3111TIP3   OH230823   4.435   1.301   0.497 -0.0041  0.2929 -0.0547
 3111TIP3    H130824   4.428   1.272   0.406 -1.7424  0.1143  0.1230
 3111TIP3    H230825   4.507   1.363   0.497  0.0401  0.2590 -1.5458
 3112TIP3   OH230826   3.065   5.845  16.099 -1.1875 -0.1115  0.8179
 3112TIP3    H130827   3.104   5.906  16.037 -2.0280 -0.0161  0.3800
 3112TIP3    H230828   3.024   5.901  16.165 -2.1150 -0.1994  0.3176
 3113TIP3   OH230829   5.991   2.550   2.017  0.5213 -0.1740 -0.8316
 3113TIP3    H130830   5.904   2.533   2.051  0.0502  0.9719 -1.4360
 3113TIP3    H230831   6.047   2.484   2.058 -0.6700 -1.0717 -0.6495
 3114TIP3   OH230832   6.321   3.966   5.161 -0.2593  0.2997 -0.1962
 3114TIP3    H130833   6.269   3.925   5.231  0.6168 -0.0495  0.2510
 3114TIP3    H230834   6.355   4.046   5.201 -2.3185  1.7424 -1.1969
 3115TIP3   OH230835   3.585   3.030  10.709 -0.4074  0.0819 -0.2854
 3115TIP3    H130836   3.553   2.943  10.684 -1.2325  0.0330  0.9058
 3115TIP3    H230837   3.654   3.013  10.772 -1.5253  0.3094  1.0232
 3116TIP3   OH230838   5.067   2.673  16.977  0.0215  0.0876 -0.6108
 3116TIP3    H130839   5.092   2.626  16.898  0.7326 -0.2039 -0.2218
 3116TIP3    H230840   5.012   2.612  17.025  0.5160 -0.1588 -0.3524
 3117TIP3   OH230841   4.506   1.608  14.870  0.3074 -0.1305  0.2629
 3117TIP3    H130842   4.588   1.591  14.824  0.3035 -1.0297  0.5715
 3117TIP3    H230843   4.464   1.522  14.876 -0.4846  0.2688  0.4224
 3118TIP3   OH230844   5.389   3.056  12.067  0.2206  0.3922  0.0588
 3118TIP3    H130845   5.476   3.091  12.047  0.5352 -0.7949 -0.6875
 3118TIP3    H230846   5.393   3.033  12.159  1.1008 -0.7863 -0.2642
 3119TIP3   OH230847   1.389   3.599  16.213 -0.3241  0.5713  0.3611
 3119TIP3    H130848   1.326   3.562  16.151 -1.0405 -2.5228  2.8460
 3119TIP3    H230849   1.469   3.548  16.200  1.3253  3.5067 -1.7266
 3120TIP3   OH230850   1.087   5.279   4.153 -0.0142 -0.1436 -0.2158
 3120TIP3    H130851   1.123   5.242   4.073  2.9355  0.5761  0.7074
 3120TIP3    H230852   1.056   5.366   4.128  1.2203  0.2169 -0.5195
 3121TIP3   OH230853   5.400   3.668   5.674 -0.4868  0.0182  0.2120
 3121TIP3    H130854   5.402   3.603   5.604 -0.8660  0.0956  0.1287
 3121TIP3    H230855   5.367   3.620   5.750 -3.4365  0.7714 -0.5509
 3122TIP3   OH230856   4.076   5.870   0.711 -0.5840 -0.2412  0.3477
 3122TIP3    H130857   4.110   5.944   0.762 -0.7638  1.2694 -1.6559
 3122TIP3    H230858   3.983   5.866   0.733 -0.1241 -1.3221  2.1730
 3123TIP3   OH230859   5.909   6.390  16.978  0.4544  1.0195 -0.3524
 3123TIP3    H130860   5.946   6.473  17.005 -2.6232  2.0867  0.7816
 3123TIP3    H230861   5.819   6.391  17.011  0.2444 -2.6388 -0.5278
 3124TIP3   OH230862   0.732   5.068   2.904 -0.4266  0.0066  0.8707
 3124TIP3    H130863   0.732   5.121   2.984  0.8548 -1.3492  1.8097
 3124TIP3    H230864   0.644   5.033   2.899 -0.0369 -1.3142  2.6876
 3125TIP3   OH230865   3.716   0.828  15.357  0.6482 -0.4863 -0.1483
 3125TIP3    H130866   3.738   0.766  15.426 -0.6036 -1.1400 -0.3293
 3125TIP3    H230867   3.705   0.911  15.402 -0.9975 -1.0746  0.5639
 3126TIP3   OH230868   2.001   3.272  13.013 -0.0494  0.4214  0.0597
 3126TIP3    H130869   2.042   3.189  12.991  0.9531  1.0681 -0.5827
 3126TIP3    H230870   2.027   3.331  12.942 -2.7197  0.6818 -0.7510
 3127TIP3   OH230871   2.406   6.120   0.433  0.1386 -0.6133  0.1583
 3127TIP3    H130872   2.326   6.169   0.448 -0.2116 -1.8453  2.7429
 3127TIP3    H230873   2.420   6.123   0.339 -0.6771  3.1046  0.0820
 3128TIP3   OH230874   2.511   5.739  12.205 -0.9479  0.4138 -0.3120
 3128TIP3    H130875   2.427   5.775  12.233 -0.5527 -0.4393  2.0744
 3128TIP3    H230876   2.565   5.741  12.284  1.3269  1.0984 -1.8730
 3129TIP3   OH230877   0.159   2.397  16.357  0.1710  0.3640 -0.3773
 3129TIP3    H130878   0.127   2.450  16.430 -1.1304  0.5446 -1.0866
 3129TIP3    H230879   0.238   2.355  16.392  0.5332  1.8059  0.5718
 3130TIP3   OH230880   1.689   3.780  13.260  0.2022 -0.0620  0.0567
 3130TIP3    H130881   1.628   3.767  13.333 -0.2356  1.5374  0.0042
 3130TIP3    H230882   1.636   3.823  13.193  0.7530 -1.0060 -0.9795
 3131TIP3   OH230883   4.225   5.283  13.073  0.1306  0.2638 -0.1764
 3131TIP3    H130884   4.195   5.363  13.116  1.7922 -0.5705  2.6422
 3131TIP3    H230885   4.318   5.297  13.057  0.7105 -1.5081  1.3943
 3132TIP3   OH230886   1.093   5.434  11.181  0.5934  0.5425  0.3536
 3132TIP3    H130887   1.135   5.518  11.161  0.3232  0.7506  0.6487
 3132TIP3    H230888   1.051   5.409  11.099  1.3271  0.3104  0.0486
 3133TIP3   OH230889   5.589   4.671   1.944 -0.2662  0.5050  0.2381
 3133TIP3    H130890   5.507   4.650   1.900 -0.5517 -0.4727  1.2261
 3133TIP3    H230891   5.562   4.701   2.031  0.3873  0.7909  0.3418
 3134TIP3   OH230892   0.312   3.691  14.460  0.2911 -0.4331  0.0287
 3134TIP3    H130893   0.343   3.601  14.447  0.5319 -0.1610 -1.3478
 3134TIP3    H230894   0.233   3.681  14.514  0.5275 -1.4323  0.2046
 3135TIP3   OH230895   1.217   5.548   6.108 -0.0498  0.0360  0.3615
 3135TIP3    H130896   1.269   5.518   6.033 -1.1507  0.2049 -0.4872
 3135TIP3    H230897   1.200   5.641   6.090  1.6716  0.7132  2.0031
 3136TIP3   OH230898   0.573   3.270   0.431  0.6016 -0.2656  0.2620
 3136TIP3    H130899   0.639   3.332   0.461  0.7244 -1.4599  2.6045
 3136TIP3    H230900   0.500   3.282   0.492  0.4855 -2.1210  0.5161
 3137TIP3   OH230901   2.117   3.982  12.119 -0.0635 -0.3724  0.1728
 3137TIP3    H130902   2.028   4.009  12.097  0.0191  0.1219  0.4519
 3137TIP3    H230903   2.154   4.055  12.168  0.6849 -0.3382 -0.4170
 3138TIP3   OH230904   5.878   6.665  12.866  0.0844 -0.1919  0.4038
 3138TIP3    H130905   5.951   6.719  12.834 -1.1331  1.5730  0.5106
 3138TIP3    H230906   5.840   6.627  12.787 -0.2046  0.6277  0.1430
 3139TIP3   OH230907   5.650   3.805  14.025 -0.8048  0.2428 -0.2687
 3139TIP3    H130908   5.568   3.846  13.998 -0.8523 -0.3831 -1.1037
 3139TIP3    H230909   5.672   3.747  13.953 -0.3433 -0.6245  0.5634
 3140TIP3   OH230910   2.252   6.012  11.991 -0.3682  0.2356  0.4306
 3140TIP3    H130911   2.259   5.917  11.996  1.1200  0.3156 -0.0328
 3140TIP3    H230912   2.308   6.036  11.917 -1.1469  1.4291  0.2143
 3141TIP3   OH230913   4.688   5.119   1.455  0.3415 -0.1081  0.0064
 3141TIP3    H130914   4.645   5.166   1.527  0.6416 -0.8796  0.6917
 3141TIP3    H230915   4.678   5.027   1.477  0.6083 -0.3421 -0.8487
 3142TIP3   OH230916   0.809   6.695  17.176 -0.4567  0.4663  0.1627
 3142TIP3    H130917   0.887   6.727  17.130 -1.3573  0.9382 -1.0589
 3142TIP3    H230918   0.796   6.759  17.246  0.5799  0.0685  0.7425
 3143TIP3   OH230919   6.383   1.455  16.129  0.0811 -0.2696  0.9482
 3143TIP3    H130920   6.459   1.401  16.109  0.7821  0.2955  2.0663
 3143TIP3    H230921   6.348   1.417  16.210 -0.3153  0.0210  0.9148
 3144TIP3   OH230922   4.745   0.862  16.006  0.0197 -0.4643  0.1124
 3144TIP3    H130923   4.659   0.825  15.984  0.2274 -0.3196 -0.9447
 3144TIP3    H230924   4.803   0.831  15.937  0.6509  0.1058  0.3835
 3145TIP3   OH230925   2.304   0.259  11.637  0.3455  0.0622 -0.3159
 3145TIP3    H130926   2.256   0.276  11.556 -1.0895  0.7585  0.6494
 3145TIP3    H230927   2.248   0.296  11.706  2.5890  1.5201  0.7836
 3146TIP3   OH230928   3.942   4.035  12.549 -0.5778 -0.0049  0.0738
 3146TIP3    H130929   4.014   3.981  12.581 -1.0728 -0.3534  0.6164
 3146TIP3    H230930   3.900   4.068  12.629 -1.3555 -0.2559 -0.2299
 3147TIP3   OH230931   2.336   5.254  14.335 -0.0394  0.2328 -0.3488
 3147TIP3    H130932   2.392   5.293  14.403  0.2013 -0.0854 -0.3636
 3147TIP3    H230933   2.359   5.161  14.335 -1.5756 -0.1454  0.5942
 3148TIP3   OH230934   0.701   2.019   0.794 -0.3695  0.3849  0.4265
 3148TIP3    H130935   0.782   2.068   0.783 -0.3872 -0.0757 -1.9849
 3148TIP3    H230936   0.730   1.932   0.823 -0.0313  0.3959  0.1272
 3149TIP3   OH230937   1.265   4.831   0.995 -0.5881  0.4290  0.0733
 3149TIP3    H130938   1.357   4.808   1.004 -1.2368 -1.6339  1.8051
 3149TIP3    H230939   1.253   4.906   1.054 -0.4438 -0.5879  1.4267
 3150TIP3   OH230940   4.994   0.596  11.778  0.2388 -0.0251  0.0070
 3150TIP3    H130941   5.076   0.563  11.814 -0.6091 -0.8323  1.2360
 3150TIP3    H230942   4.984   0.547  11.696  1.1568  0.3371 -0.3290
 3151TIP3   OH230943   0.037   3.961  11.634 -0.3062  0.0247  0.0750
 3151TIP3    H130944   0.062   3.993  11.721 -1.5855 -0.4414  0.6276
 3151TIP3    H230945  -0.027   4.025  11.602  1.3039  1.0379 -1.1861
 3152TIP3   OH230946   5.402   0.395   3.005  0.5244 -0.2274 -0.0737
 3152TIP3    H130947   5.314   0.428   2.988  0.5016 -0.3945 -0.2807
 3152TIP3    H230948   5.390   0.302   3.022  0.8459 -0.5789 -1.7010
 3153TIP3   OH230949   1.923   5.907  15.245  0.0098  0.5171 -0.5617
 3153TIP3    H130950   1.868   5.889  15.321 -1.1305  1.4218 -1.1675
 3153TIP3    H230951   2.001   5.948  15.281 -0.5929  1.0874  0.1051
 3154TIP3   OH230952   3.332   3.713   6.122  0.3240  0.7170 -0.1834
 3154TIP3    H130953   3.350   3.641   6.182  0.0831  0.5211 -0.3495
 3154TIP3    H230954   3.339   3.792   6.177  3.0483  0.7645 -0.5009
 3155TIP3   OH230955   0.974   2.375   5.675  0.2367 -0.3117 -0.1659
 3155TIP3    H130956   0.963   2.450   5.733  2.0924  0.9130 -1.3377
 3155TIP3    H230957   0.898   2.379   5.616  0.8676  1.2990 -0.8971
 3156TIP3   OH230958   5.015   5.688   2.028 -0.2404 -0.3467  0.1801
 3156TIP3    H130959   4.940   5.748   2.027 -0.8904 -1.1508 -0.6908
 3156TIP3    H230960   5.081   5.732   2.082 -1.6314  0.0201  1.6216
 3157TIP3   OH230961   0.588   1.701   0.481 -0.1834  0.4049  0.0651
 3157TIP3    H130962   0.621   1.646   0.553 -2.1899 -0.2157  0.5261
 3157TIP3    H230963   0.620   1.789   0.503  0.6256 -0.0613  0.8302
 3158TIP3   OH230964   4.696   5.346   5.639  0.4272 -0.8051  0.4394
 3158TIP3    H130965   4.648   5.307   5.712 -0.6241  1.1664  0.8356
 3158TIP3    H230966   4.781   5.302   5.639  0.3127 -1.0579  2.6634
 3159TIP3   OH230967   1.976   2.667  11.678  0.0980  0.7153  0.5124
 3159TIP3    H130968   1.917   2.730  11.636 -0.2969 -0.1352 -0.2119
 3159TIP3    H230969   2.057   2.672  11.627 -0.5030 -0.5766 -0.5727
 3160TIP3   OH230970   1.886   6.538   0.830  0.2868 -0.1880  0.1218
 3160TIP3    H130971   1.800   6.565   0.799  0.2338 -1.5359 -0.9670
 3160TIP3    H230972   1.871   6.508   0.919 -0.2274  0.2814  0.1994
 3161TIP3   OH230973   0.126   5.933   3.050  0.1761 -0.0326  0.5181
 3161TIP3    H130974   0.035   5.963   3.039  0.1945 -0.1417  0.0277
 3161TIP3    H230975   0.178   6.013   3.050  0.2211 -0.0463 -0.7433
 3162TIP3   OH230976   3.493   1.582  15.294 -0.3772  0.1996 -0.4195
 3162TIP3    H130977   3.542   1.658  15.261  0.0831  0.6905  1.3204
 3162TIP3    H230978   3.401   1.608  15.286 -0.3079  0.0203 -1.9549
 3163TIP3   OH230979   4.796   1.552  11.313 -0.5335  0.0360 -0.8669
 3163TIP3    H130980   4.840   1.468  11.321 -0.1992  0.1484 -1.4802
 3163TIP3    H230981   4.754   1.565  11.398  0.9070  0.1005 -0.1507
 3164TIP3   OH230982   6.160   5.498  13.771  0.4082 -0.3312 -0.0913
 3164TIP3    H130983   6.246   5.461  13.788  0.9100  0.7508 -0.2540
 3164TIP3    H230984   6.146   5.484  13.678 -0.4470 -2.2653  0.2928
 3165TIP3   OH230985   4.564   4.707   4.141  0.1652 -0.1120 -0.0256
 3165TIP3    H130986   4.623   4.732   4.212 -0.0889 -1.3374  0.6363
 3165TIP3    H230987   4.600   4.751   4.064  1.5292 -0.2722  0.4952
 3166TIP3   OH230988   5.294   6.461   4.485 -0.1374  0.6993  0.0596
 3166TIP3    H130989   5.216   6.468   4.540 -1.0821 -0.3361 -1.1419
 3166TIP3    H230990   5.349   6.534   4.513 -1.0751  0.8266  1.6333
 3167TIP3   OH230991   6.235   3.498   2.417 -0.0389  0.0900 -0.1758
 3167TIP3    H130992   6.293   3.506   2.341  0.7393  0.4310  0.4475
 3167TIP3    H230993   6.288   3.527   2.491 -0.1051 -2.2793  0.8209
 3168TIP3   OH230994   2.919   6.123  11.621 -0.1371  0.1533 -0.0747
 3168TIP3    H130995   3.003   6.138  11.579  0.7143 -1.2094  1.1007
 3168TIP3    H230996   2.873   6.207  11.615  0.7934  0.5573 -1.8324
 3169TIP3   OH230997   2.110   6.523  17.169 -0.1645  0.4988  0.2744
 3169TIP3    H130998   2.070   6.437  17.172  0.0001  0.4505  1.0424
 3169TIP3    H230999   2.200   6.509  17.200 -0.3063  1.0431  0.9330
 3170TIP3   OH231000   6.581   2.337  17.187  0.1834  0.0214 -0.5515
 3170TIP3    H131001   6.524   2.260  17.188  0.6460 -0.3346 -1.4328
 3170TIP3    H231002   6.529   2.405  17.229 -1.7553  0.2950 -3.2772
 3171TIP3   OH231003   2.919   2.722  13.568  0.0711  0.0493 -0.6935
 3171TIP3    H131004   2.918   2.812  13.534 -2.3122 -0.0825 -1.0776
 3171TIP3    H231005   2.960   2.729  13.654 -0.2288  1.5233 -0.6550
 3172TIP3   OH231006   1.177   2.704  17.159 -0.2613  0.2571 -0.4303
 3172TIP3    H131007   1.138   2.740  17.080  0.0385  2.1039  0.2425
 3172TIP3    H231008   1.103   2.678  17.213 -0.5278  1.5479 -0.1630
 3173TIP3   OH231009   5.593   1.611   5.056  0.2465  0.1804  0.0415
 3173TIP3    H131010   5.500   1.590   5.045  0.5608 -0.3512 -1.7022
 3173TIP3    H231011   5.614   1.583   5.145 -0.5743 -2.3067 -0.5063
 3174TIP3   OH231012   4.500   5.976   4.493 -0.3252  0.2625  0.2689
 3174TIP3    H131013   4.587   6.010   4.475  0.1893 -0.3052  1.5952
 3174TIP3    H231014   4.455   5.977   4.408  0.6297  1.5038 -0.2215
 3175TIP3   OH231015   3.549   1.979  14.905  0.2456 -0.0962  1.0160
 3175TIP3    H131016   3.547   1.987  14.810 -0.1564  2.7088  1.2077
 3175TIP3    H231017   3.641   1.991  14.928  0.0891  1.0180  1.0872
 3176TIP3   OH231018   4.333   5.857  12.833  0.0056 -0.7491 -0.1491
 3176TIP3    H131019   4.281   5.853  12.913  0.9392  1.3745  0.6047
 3176TIP3    H231020   4.374   5.771  12.827 -0.7926 -1.2428  1.1641
 3177TIP3   OH231021   5.022   2.725  14.901 -0.2540  0.4653  0.5576
 3177TIP3    H131022   4.970   2.660  14.853 -1.2351  1.3375  0.4173
 3177TIP3    H231023   5.082   2.674  14.955 -2.2262 -0.5802  1.7906
 3178TIP3   OH231024   5.774   3.147   5.003  0.3722 -0.1686 -0.3677
 3178TIP3    H131025   5.679   3.153   4.995  0.2165 -0.7174  0.9086
 3178TIP3    H231026   5.806   3.235   4.981 -0.6564  0.8842  2.0757
 3179TIP3   OH231027   0.477   5.296   6.077 -1.2906 -0.6332  0.1599
 3179TIP3    H131028   0.540   5.351   6.124 -2.0889 -2.4244  3.4321
 3179TIP3    H231029   0.518   5.209   6.076 -2.9027 -1.4067  0.7418
 3180TIP3   OH231030   1.223   2.287  13.608  0.7809 -0.5151  0.1913
 3180TIP3    H131031   1.314   2.259  13.624  2.1318  2.8190 -1.2167
 3180TIP3    H231032   1.228   2.342  13.529 -2.6977 -1.3124 -0.6701
 3181TIP3   OH231033   3.659   0.050  13.061 -0.1063 -0.6067  0.4850
 3181TIP3    H131034   3.604   0.053  12.983 -1.7565 -2.9910  1.5077
 3181TIP3    H231035   3.645   0.134  13.104 -0.4873  0.0551 -0.8889
 3182TIP3   OH231036   0.279   3.104   1.181  0.0140 -0.1144 -0.0843
 3182TIP3    H131037   0.272   3.014   1.213 -0.5393  0.0452  0.2561
 3182TIP3    H231038   0.277   3.096   1.086  1.6727 -0.5901 -0.0960
 3183TIP3   OH231039   4.201   6.384  11.181 -0.8594  0.0533  0.1219
 3183TIP3    H131040   4.146   6.307  11.197  0.1557 -0.3555  1.8648
 3183TIP3    H231041   4.201   6.395  11.086 -3.1008 -0.5403  0.0376
 3184TIP3   OH231042   6.697   0.257   3.924  0.3170 -0.2711  0.0960
 3184TIP3    H131043   6.728   0.180   3.877 -0.7721 -1.7510  1.7465
 3184TIP3    H231044   6.709   0.329   3.862 -0.2503 -2.0138 -2.1310
 3185TIP3   OH231045   5.632   1.763  15.238  0.3152  0.3184  0.1924
 3185TIP3    H131046   5.694   1.836  15.243  2.6874 -1.6709  1.0117
 3185TIP3    H231047   5.657   1.707  15.311 -0.8292 -1.8065 -1.0186
 3186TIP3   OH231048   0.662   4.158  12.390  0.2955  0.0528 -0.5693
 3186TIP3    H131049   0.742   4.118  12.355  0.6485  0.2398  0.0206
 3186TIP3    H231050   0.614   4.188  12.313  0.6634 -0.3066 -0.9391
 3187TIP3   OH231051   2.251   1.315   0.069 -0.3933 -0.2126  0.4567
 3187TIP3    H131052   2.267   1.317   0.163 -1.8079  0.9014  0.6939
 3187TIP3    H231053   2.164   1.276   0.060 -1.0918  1.4395 -0.2419
 3188TIP3   OH231054   1.388   6.448   0.984  0.0381  0.4906  0.3481
 3188TIP3    H131055   1.327   6.417   1.051  1.3396  1.6499  2.1108
 3188TIP3    H231056   1.376   6.543   0.982 -0.1561  0.4365 -1.2363
 3189TIP3   OH231057   1.388   4.463   1.821  0.1639 -0.1444  0.0166
 3189TIP3    H131058   1.413   4.416   1.741 -1.4884 -1.2269  0.1142
 3189TIP3    H231059   1.308   4.509   1.797  1.1509  1.7385  0.2643
 3190TIP3   OH231060   6.415   4.116   6.055  0.0574 -0.1460  0.5564
 3190TIP3    H131061   6.449   4.206   6.065 -0.8070  0.1573  0.7613
 3190TIP3    H231062   6.439   4.073   6.137  1.5112 -0.4523 -0.0089
 3191TIP3   OH231063   2.601   5.230   2.419  0.5789 -0.1944 -0.3951
 3191TIP3    H131064   2.568   5.175   2.490  0.3517  0.6547  0.1695
 3191TIP3    H231065   2.630   5.168   2.352 -1.4326 -0.9469 -0.5802
 3192TIP3   OH231066   2.615   6.745  15.205  0.0652  0.5228  0.1039
 3192TIP3    H131067   2.644   6.696  15.281 -2.1931 -0.4591  0.3738
 3192TIP3    H231068   2.522   6.723  15.196  0.8455 -1.6159 -4.5567
 3193TIP3   OH231069   2.968   1.568   3.883  0.4706 -0.4130 -0.2728
 3193TIP3    H131070   2.923   1.652   3.896  1.2943  0.0286 -0.2774
 3193TIP3    H231071   3.060   1.591   3.873  0.6713 -1.3021 -0.5149
 3194TIP3   OH231072   6.606   3.263   4.766 -0.4763 -0.0659  0.1506
 3194TIP3    H131073   6.585   3.225   4.851  0.9839 -0.6298  0.2688
 3194TIP3    H231074   6.589   3.357   4.777  2.4140  0.3088  1.9604
 3195TIP3   OH231075   2.788   5.629   0.588  0.1667 -0.1202  0.2009
 3195TIP3    H131076   2.845   5.552   0.592  0.3744 -0.0548 -1.2725
 3195TIP3    H231077   2.832   5.694   0.643  2.8371  0.7682 -2.8270
 3196TIP3   OH231078   0.709   6.390  12.868 -0.4121 -0.1982 -0.4306
 3196TIP3    H131079   0.759   6.331  12.811 -0.8525 -1.7400  0.7139
 3196TIP3    H231080   0.692   6.337  12.947 -0.5195  1.6002  0.7717
 3197TIP3   OH231081   4.479   1.543   3.853 -0.3223 -0.1386  0.8046
 3197TIP3    H131082   4.402   1.571   3.902 -0.3984 -0.7941  1.0603
 3197TIP3    H231083   4.450   1.465   3.806 -0.0601  0.1065  0.2227
 3198TIP3   OH231084   2.211   2.362   1.251 -0.2024 -0.3983 -0.1085
 3198TIP3    H131085   2.116   2.367   1.263  0.0165  1.3908  0.9682
 3198TIP3    H231086   2.239   2.291   1.309 -0.8290 -0.7064 -0.1804
 3199TIP3   OH231087   2.049   5.427  11.328 -0.8884  0.4978 -0.2205
 3199TIP3    H131088   2.112   5.441  11.258 -0.3916 -1.5010 -0.1919
 3199TIP3    H231089   2.039   5.514  11.368  0.8330  1.1167 -1.0584
 3200TIP3   OH231090   5.406   6.036  12.492 -0.3706  0.3486 -0.0361
 3200TIP3    H131091   5.330   6.073  12.536  0.5688  1.1125  0.9655
 3200TIP3    H231092   5.411   5.945  12.523  0.7235  1.0993  2.0271
 3201TIP3   OH231093   6.125   5.811  13.559  0.0333 -0.2136  0.0123
 3201TIP3    H131094   6.060   5.785  13.624 -1.5562  1.4312 -0.8958
 3201TIP3    H231095   6.184   5.870  13.606  0.8567 -1.6182  0.8025
 3202TIP3   OH231096   6.675   5.178  16.390  0.0114 -0.7025 -0.0644
 3202TIP3    H131097   6.718   5.260  16.366  1.2546 -1.8851 -2.0582
 3202TIP3    H231098   6.623   5.155  16.313 -0.2475 -1.8243  0.4330
 3203TIP3   OH231099   4.892   1.869   3.669  0.0996  0.3912  0.3613
 3203TIP3    H131100   4.906   1.955   3.708 -0.2359 -0.3459  2.1562
 3203TIP3    H231101   4.877   1.811   3.743  2.2732 -1.6080 -0.6682
 3204TIP3   OH231102   4.395   5.195  16.025 -0.7379  0.5845 -0.0071
 3204TIP3    H131103   4.473   5.146  16.001  0.8805  2.6708  0.8372
 3204TIP3    H231104   4.322   5.135  16.008  0.9065 -0.8323 -2.3092
 3205TIP3   OH231105   2.552   3.881  12.261  0.2450 -0.0463  0.1050
 3205TIP3    H131106   2.474   3.863  12.208  0.3945  0.1317 -0.1756
 3205TIP3    H231107   2.625   3.875  12.200  0.3874  0.5311  0.2086
 3206TIP3   OH231108   6.340   5.882   3.170  0.1662  0.5771 -0.0511
 3206TIP3    H131109   6.355   5.869   3.264  0.1528 -0.0678 -0.1375
 3206TIP3    H231110   6.250   5.853   3.156  0.4053  0.0110 -0.3945
 3207TIP3   OH231111   2.205   1.883  10.939  0.0087  0.1760  0.1231
 3207TIP3    H131112   2.240   1.834  10.865  1.2340  0.1339  0.7134
 3207TIP3    H231113   2.215   1.823  11.014 -2.6179 -0.3897  0.0953
 3208TIP3   OH231114   6.608   3.205  11.206  0.1090  0.2109  0.2198
 3208TIP3    H131115   6.677   3.155  11.163  0.5260  1.1705 -0.2306
 3208TIP3    H231116   6.640   3.218  11.295  1.1600  1.8971 -0.3983
 3209TIP3   OH231117   0.784   4.906  16.525 -0.0681  0.1097  0.4317
 3209TIP3    H131118   0.777   4.831  16.466  0.4234  0.4571 -0.0608
 3209TIP3    H231119   0.875   4.907  16.552  0.3335  1.5621 -0.9122
 3210TIP3   OH231120   5.693   2.184  16.537 -0.0394 -0.4290 -0.3276
 3210TIP3    H131121   5.605   2.150  16.557 -0.2676 -0.2706 -1.0509
 3210TIP3    H231122   5.732   2.118  16.480  0.2591 -0.4292 -0.1240
 3211TIP3   OH231123   3.039   2.179  10.624 -0.1241 -0.5082  0.1717
 3211TIP3    H131124   3.111   2.229  10.663 -0.5099  0.6190 -0.5028
 3211TIP3    H231125   3.081   2.102  10.587  1.0881  1.1231 -2.0015
 3212TIP3   OH231126   5.278   3.110   3.003  0.2669  0.0176 -0.2443
 3212TIP3    H131127   5.341   3.073   2.940  0.9418  0.4025  0.1938
 3212TIP3    H231128   5.320   3.191   3.032 -0.1052 -0.1005  0.6149
 3213TIP3   OH231129   0.005   3.169   4.368  0.3349 -0.0710 -0.0986
 3213TIP3    H131130  -0.083   3.193   4.337  0.7142 -0.3495 -1.4087
 3213TIP3    H231131  -0.003   3.171   4.464 -0.6543  1.5438 -0.1831
 3214TIP3   OH231132   0.226   6.812  15.788  0.0339  0.0281 -0.2108
 3214TIP3    H131133   0.307   6.859  15.773  0.2449 -0.1091  0.4814
 3214TIP3    H231134   0.223   6.798  15.883 -0.6560 -0.2127 -0.2614
 3215TIP3   OH231135   3.759   6.801  15.325 -0.7535 -0.0209 -0.1327
 3215TIP3    H131136   3.772   6.805  15.230  0.5038 -0.3943  0.0069
 3215TIP3    H231137   3.744   6.891  15.351 -4.8374 -0.3174 -1.1540
 3216TIP3   OH231138   4.929   3.296  13.300  0.1864  1.0834  0.5298
 3216TIP3    H131139   4.853   3.349  13.325 -2.2631 -0.3177 -3.5767
 3216TIP3    H231140   4.974   3.348  13.233  0.3748  0.0182 -0.1856
 3217TIP3   OH231141   2.944   3.775   1.280 -0.2256 -0.2818  0.5147
 3217TIP3    H131142   2.856   3.811   1.285 -0.2861 -0.2532 -0.6194
 3217TIP3    H231143   2.937   3.703   1.217  0.2494 -1.2300  1.5102
 3218TIP3   OH231144   3.322   1.180  16.366  0.3960 -1.2406 -0.4833
 3218TIP3    H131145   3.251   1.216  16.419  0.5642  1.2794 -1.9216
 3218TIP3    H231146   3.402   1.198  16.416  0.4556  0.2146 -1.0830
 3219TIP3   OH231147   2.535   2.581  15.703 -0.1195 -0.5802  0.0884
 3219TIP3    H131148   2.554   2.495  15.665  2.0116 -0.4638  0.8222
 3219TIP3    H231149   2.621   2.617  15.724 -0.9843  1.7614 -0.2421
 3220TIP3   OH231150   5.248   0.658   3.151  0.2264  0.3695  0.2265
 3220TIP3    H131151   5.180   0.592   3.159  2.3493 -1.9039  0.2251
 3220TIP3    H231152   5.252   0.677   3.057  0.8240 -0.8764 -0.0124
 3221TIP3   OH231153   3.500   1.597  13.940  0.3892  0.1068 -0.4458
 3221TIP3    H131154   3.573   1.655  13.962  1.4557 -0.0866 -3.2434
 3221TIP3    H231155   3.539   1.510  13.939 -1.1477 -0.7332  3.4784
 3222TIP3   OH231156   2.481   5.770  15.669  0.0321  0.2928 -0.1821
 3222TIP3    H131157   2.560   5.824  15.663  1.3856 -1.6403 -0.3176
 3222TIP3    H231158   2.411   5.825  15.635  0.7610  3.1130  2.6220
 3223TIP3   OH231159   3.048   4.752  13.107  0.0480  0.4644  0.2242
 3223TIP3    H131160   3.088   4.823  13.056 -0.7912  0.4863 -0.4219
 3223TIP3    H231161   3.062   4.674  13.054  0.9838  0.1422  0.9422
 3224TIP3   OH231162   5.661   6.678  14.746 -0.5112  0.2877  0.2789
 3224TIP3    H131163   5.583   6.699  14.695 -0.3260 -0.3754 -0.2870
 3224TIP3    H231164   5.659   6.582  14.754 -0.2971  0.3444  1.1311
 3225TIP3   OH231165   0.381   1.087   1.902  0.4976  0.3730  0.0215
 3225TIP3    H131166   0.326   1.020   1.942  1.7597 -0.6975  0.0201
 3225TIP3    H231167   0.339   1.169   1.924 -0.4900 -0.3722  0.9616
 3226TIP3   OH231168   6.301   5.584   1.678 -0.0470 -0.6244  0.1641
 3226TIP3    H131169   6.301   5.510   1.616 -0.0591 -1.8929  1.6487
 3226TIP3    H231170   6.371   5.563   1.740 -0.8009  0.0429  1.2626
 3227TIP3   OH231171   4.261   0.042   0.428 -0.4525  0.2106  0.6574
 3227TIP3    H131172   4.291   0.067   0.341  0.3909  1.5510  1.3189
 3227TIP3    H231173   4.167   0.058   0.427 -0.3281  0.9205  0.2299
 3228TIP3   OH231174   0.950   5.052  12.006 -0.2220 -0.3673  0.0502
 3228TIP3    H131175   0.936   5.055  12.101  0.1453  3.0861  0.0574
 3228TIP3    H231176   0.864   5.066  11.969 -0.0334  0.5347 -0.0715
 3229TIP3   OH231177   0.453   2.656   4.064 -0.1753 -1.5086 -0.0407
 3229TIP3    H131178   0.399   2.614   4.131  0.2742  0.3205  1.5466
 3229TIP3    H231179   0.541   2.620   4.079  0.1500 -0.2868  1.1234
 3230TIP3   OH231180   5.035   6.796   2.737  0.8526 -0.7770  0.2554
 3230TIP3    H131181   5.077   6.715   2.767  2.8788  0.2486  0.3028
 3230TIP3    H231182   5.076   6.814   2.652 -0.1306 -0.2070 -0.0971
 3231TIP3   OH231183   1.062   2.657  12.480  0.4825 -0.1699  0.5245
 3231TIP3    H131184   1.076   2.617  12.566 -0.2498  1.2228  1.3089
 3231TIP3    H231185   0.968   2.652  12.465  0.7191 -1.2745 -0.6365
 3232TIP3   OH231186   2.661   4.895   1.758  0.2411  0.0879  0.1799
 3232TIP3    H131187   2.668   4.802   1.736  0.7105  0.5268 -1.6405
 3232TIP3    H231188   2.575   4.921   1.724  0.9132  0.7505 -1.0371
 3233TIP3   OH231189   3.883   6.240  12.590  0.3651  0.1209 -0.5857
 3233TIP3    H131190   3.845   6.328  12.591  0.1696  0.0310 -0.2761
 3233TIP3    H231191   3.966   6.251  12.542  0.6121  0.5878 -0.0585
 3234TIP3   OH231192   0.055   6.402  15.463 -0.1669 -0.6332 -0.2273
 3234TIP3    H131193  -0.039   6.409  15.448 -0.0559 -0.0994 -0.7036
 3234TIP3    H231194   0.089   6.489  15.441  0.2454 -0.3730  1.3925
 3235TIP3   OH231195   6.365   1.101  16.760  0.5349  0.0730  0.1625
 3235TIP3    H131196   6.410   1.176  16.799  0.7445 -0.5820  1.2031
 3235TIP3    H231197   6.337   1.049  16.835 -1.8659  0.4061 -0.4732
 3236TIP3   OH231198   2.966   4.584   5.896  0.1881  0.6267  0.0994
 3236TIP3    H131199   2.904   4.511   5.890  1.7481 -0.6964 -0.3392
 3236TIP3    H231200   3.033   4.563   5.830  2.4276  0.7309  2.2539
 3237TIP3   OH231201   0.298   3.636  15.578  0.4862 -0.2869 -0.4570
 3237TIP3    H131202   0.325   3.555  15.535  1.0942 -0.8841  1.0254
 3237TIP3    H231203   0.378   3.669  15.620  0.1055  0.7573 -0.5269
 3238TIP3   OH231204   5.437   5.361   0.205 -0.2509 -0.1085 -0.3575
 3238TIP3    H131205   5.352   5.324   0.229  0.9544 -2.7374  0.0204
 3238TIP3    H231206   5.443   5.348   0.110 -1.5384  2.8748 -0.8951
 3239TIP3   OH231207   1.215   3.934   5.954 -0.2526  0.2184 -0.0768
 3239TIP3    H131208   1.223   3.929   5.859 -1.1630  0.2496 -0.1567
 3239TIP3    H231209   1.297   3.896   5.986  0.5341  1.2134 -0.8770
 3240TIP3   OH231210   6.000   4.831   4.546 -0.2992 -0.0711 -0.0454
 3240TIP3    H131211   5.973   4.921   4.565  0.1061  0.2856 -1.1491
 3240TIP3    H231212   6.029   4.833   4.455 -1.8539 -1.6803 -0.6082
 3241TIP3   OH231213   5.697   2.581   5.897 -0.0002 -0.0531  0.7407
 3241TIP3    H131214   5.658   2.668   5.899 -0.7708 -0.3980  1.1546
 3241TIP3    H231215   5.690   2.549   5.987 -3.5180 -2.1563 -0.1795
 3242TIP3   OH231216   2.612   4.188   2.778 -0.3331 -0.3084  0.2624
 3242TIP3    H131217   2.685   4.225   2.826 -2.0186 -0.3927  3.0202
 3242TIP3    H231218   2.630   4.094   2.777  0.4308 -0.1534 -0.5347
 3243TIP3   OH231219   3.455   3.643  15.338  0.8475 -0.8385 -0.3049
 3243TIP3    H131220   3.376   3.696  15.327 -0.0294 -1.3134  3.0063
 3243TIP3    H231221   3.452   3.580  15.266 -1.6967 -0.7060 -0.3785
 3244TIP3   OH231222   0.855   2.986   2.319  0.4590 -0.9186  0.7039
 3244TIP3    H131223   0.795   2.913   2.328 -0.9515 -0.4709 -3.7024
 3244TIP3    H231224   0.828   3.048   2.387 -1.7839 -2.2310  1.0558
 3245TIP3   OH231225   5.289   1.912  13.509  0.0121 -0.2813  0.0107
 3245TIP3    H131226   5.291   1.989  13.566 -0.5820  0.5692 -1.1088
 3245TIP3    H231227   5.364   1.859  13.538  0.3445  0.6440  0.8744
 3246TIP3   OH231228   0.351   6.353  11.236  0.1224  0.3197 -0.8498
 3246TIP3    H131229   0.427   6.298  11.218 -0.2345 -0.6610  0.5112
 3246TIP3    H231230   0.369   6.390  11.323 -1.2500 -0.4799 -0.2104
 3247TIP3   OH231231   3.134   0.104  16.168  0.3551 -0.9093 -0.0924
 3247TIP3    H131232   3.069   0.142  16.227  0.2267 -2.5953  0.8660
 3247TIP3    H231233   3.172   0.180  16.123  0.7478  0.4362  2.4469
 3248TIP3   OH231234   5.464   1.764   0.526  0.0835 -0.2128 -0.1479
 3248TIP3    H131235   5.531   1.827   0.497  0.8125 -1.2488 -0.7626
 3248TIP3    H231236   5.437   1.720   0.445 -0.5384 -0.5682  0.2576
 3249TIP3   OH231237   0.996   1.900   4.613  0.5356 -0.0862  0.9372
 3249TIP3    H131238   1.070   1.944   4.571  0.7153  0.7017  2.0410
 3249TIP3    H231239   1.023   1.889   4.704 -1.2720  1.5494  1.7217
 3250TIP3   OH231240   4.182   0.343   4.990 -0.2912 -0.3955  0.0334
 3250TIP3    H131241   4.108   0.403   5.005  0.7655  0.6607  1.1119
 3250TIP3    H231242   4.212   0.320   5.078  1.4693  0.1951 -0.3986
 3251TIP3   OH231243   3.553   0.510   2.174 -0.5866  0.1981 -0.8375
 3251TIP3    H131244   3.473   0.507   2.122  0.0042 -1.3629 -1.6830
 3251TIP3    H231245   3.617   0.460   2.123  1.0376  1.7407 -0.3485
 3252TIP3   OH231246   0.074   6.720   4.180  0.4727  0.2716 -0.1476
 3252TIP3    H131247   0.097   6.813   4.174 -0.1708  0.3810 -0.9225
 3252TIP3    H231248  -0.017   6.719   4.211  0.1737 -0.0795 -1.0264
 3253TIP3   OH231249   0.266   3.105   0.288 -0.1130  0.2411 -0.7356
 3253TIP3    H131250   0.185   3.095   0.339  0.5554 -0.9387  0.1153
 3253TIP3    H231251   0.300   3.190   0.314 -0.4070  0.1741 -0.1037
 3254TIP3   OH231252   2.740   6.201   3.712 -0.1407 -0.5791  0.1754
 3254TIP3    H131253   2.725   6.284   3.666  0.9277 -0.2569  0.3982
 3254TIP3    H231254   2.681   6.139   3.668 -2.1388  0.6371  1.0390
 3255TIP3   OH231255   3.002   3.052  16.397  0.4021  0.7419  0.0244
 3255TIP3    H131256   3.051   2.970  16.406 -1.4654 -0.8537 -3.3881
 3255TIP3    H231257   3.000   3.089  16.485  4.1742 -1.1771  0.9791
 3256TIP3   OH231258   1.424   1.948  13.642 -0.0377  0.2588  0.0018
 3256TIP3    H131259   1.332   1.969  13.658 -0.2673  0.4069 -1.4467
 3256TIP3    H231260   1.422   1.859  13.606  0.3692  0.4027 -0.3715
 3257TIP3   OH231261   0.175   6.342  10.191  0.2752 -0.2167  0.1884
 3257TIP3    H131262   0.139   6.429  10.174  0.5029 -0.5896 -2.4221
 3257TIP3    H231263   0.254   6.338  10.137  0.7441 -1.7438  0.9505
 3258TIP3   OH231264   4.926   1.118   0.354 -0.3297 -0.1139  0.4505
 3258TIP3    H131265   5.000   1.121   0.293  0.5345  2.3945  1.5671
 3258TIP3    H231266   4.964   1.138   0.439 -2.1710  0.5909  1.1320
 3259TIP3   OH231267   5.230   1.852   3.385  0.2154 -0.4598  0.5112
 3259TIP3    H131268   5.266   1.821   3.302 -0.2051 -1.2815  0.6357
 3259TIP3    H231269   5.184   1.776   3.421 -0.7134  0.2662  0.8734
 3260TIP3   OH231270   5.947   0.556  12.006  0.4237 -0.2284 -0.1685
 3260TIP3    H131271   5.876   0.496  11.984  2.2807 -2.0229 -1.4737
 3260TIP3    H231272   6.007   0.503  12.058  1.8000  0.6626 -0.8375
 3261TIP3   OH231273   3.871   1.911  16.717  0.2050 -0.3297  0.6653
 3261TIP3    H131274   3.930   1.888  16.788 -0.2798  3.0699  2.2740
 3261TIP3    H231275   3.922   1.971  16.662 -1.1114  1.1921  1.0679
 3262TIP3   OH231276   0.521   0.773   0.219 -0.0236  0.1381  0.5689
 3262TIP3    H131277   0.493   0.692   0.177  0.0929  1.1415 -1.5136
 3262TIP3    H231278   0.439   0.822   0.232  0.2529  1.1300 -1.3265
 3263TIP3   OH231279   5.002   6.510  14.068  0.3109 -0.1605  0.7252
 3263TIP3    H131280   5.079   6.544  14.114  0.8757  0.3469 -0.5648
 3263TIP3    H231281   4.943   6.586  14.063  0.8638  0.1880 -0.6640
 3264TIP3   OH231282   1.339   5.400  12.437  0.3862 -0.4413 -0.5819
 3264TIP3    H131283   1.376   5.356  12.360 -0.2661 -0.9678 -0.6013
 3264TIP3    H231284   1.370   5.490  12.430  0.6043 -0.5639 -1.2845
 3265TIP3   OH231285   5.816   3.512   3.331  0.3956 -0.5548 -0.1219
 3265TIP3    H131286   5.834   3.582   3.394 -0.8660 -0.9012  0.6309
 3265TIP3    H231287   5.849   3.433   3.373 -1.6865 -1.0024  0.7309
 3266TIP3   OH231288   4.910   4.751   5.494  0.0119 -0.2279  0.2179
 3266TIP3    H131289   4.998   4.782   5.474 -0.0439 -0.3868 -0.2635
 3266TIP3    H231290   4.907   4.748   5.590  1.1384 -1.9618  0.2258
 3267TIP3   OH231291   0.786   0.163   3.822 -0.0148  0.0211 -0.5050
 3267TIP3    H131292   0.782   0.245   3.872  0.5295  0.3790 -1.0314
 3267TIP3    H231293   0.745   0.098   3.878  0.8374  0.3612  0.5216
 3268TIP3   OH231294   1.167   1.504   0.407 -0.4888  0.5893 -0.7243
 3268TIP3    H131295   1.130   1.448   0.474 -0.4793  3.6540  1.9586
 3268TIP3    H231296   1.224   1.446   0.356  0.2199 -1.6516  2.4503
 3269TIP3   OH231297   1.331   0.241  16.152  0.1109 -0.1378  0.0070
 3269TIP3    H131298   1.423   0.225  16.133  0.0610 -3.6650  2.1908
 3269TIP3    H231299   1.286   0.221  16.069  1.1069 -0.9015 -0.3647
 3270TIP3   OH231300   3.247   5.447   0.947  0.3614  0.2094  0.4267
 3270TIP3    H131301   3.279   5.537   0.938  0.3324  0.1753 -0.0164
 3270TIP3    H231302   3.261   5.408   0.861  0.8422 -0.3631  0.7639
 3271TIP3   OH231303   1.646   4.783  15.958 -0.1801 -0.4234 -0.7619
 3271TIP3    H131304   1.655   4.836  15.878  1.3396  0.5576  0.0506
 3271TIP3    H231305   1.551   4.773  15.968 -0.5048  1.9244 -1.0948
 3272TIP3   OH231306   3.195   0.737   4.255 -0.0429 -0.3890  0.4726
 3272TIP3    H131307   3.166   0.816   4.300 -0.5208 -0.6030  0.5496
 3272TIP3    H231308   3.157   0.744   4.168  0.6177 -0.1278  0.2095
 3273TIP3   OH231309   0.252   3.589   2.111  0.4766 -0.1193 -0.5994
 3273TIP3    H131310   0.218   3.524   2.049  0.5282 -0.1534 -0.5918
 3273TIP3    H231311   0.286   3.658   2.055  1.4879 -0.6342 -0.6358
 3274TIP3   OH231312   1.389   5.361  15.873  1.0837  0.2331 -0.3645
 3274TIP3    H131313   1.481   5.339  15.879  0.7756 -1.2954 -0.9735
 3274TIP3    H231314   1.378   5.394  15.784  0.4818 -2.4595 -1.3340
 3275TIP3   OH231315   1.938   3.425  17.052  0.6713  0.2151 -0.0735
 3275TIP3    H131316   1.971   3.409  16.964 -0.7389 -1.9179 -0.2448
 3275TIP3    H231317   1.956   3.344  17.100 -1.3049  0.2174  0.7331
 3276TIP3   OH231318   2.309   0.929   5.705 -0.0918 -0.0145  0.2517
 3276TIP3    H131319   2.338   0.849   5.661 -1.1747 -0.3214  0.0870
 3276TIP3    H231320   2.258   0.898   5.780 -1.5500  0.5137 -0.5081
 3277TIP3   OH231321   5.914   3.043   1.889 -0.6407 -0.2845  0.4682
 3277TIP3    H131322   5.913   2.953   1.858  0.2216 -0.3493  0.6149
 3277TIP3    H231323   5.977   3.088   1.833  0.8734 -0.3837  2.0290
 3278TIP3   OH231324   3.138   1.616   2.726 -0.2724  0.1628  0.3637
 3278TIP3    H131325   3.043   1.616   2.739 -0.2606 -0.9504  0.4808
 3278TIP3    H231326   3.164   1.524   2.735  0.7759  0.4166  0.0185
 3279TIP3   OH231327   5.245   5.617   1.691 -0.9991  0.7863  0.2867
 3279TIP3    H131328   5.288   5.572   1.618 -1.0308  0.0645  0.7059
 3279TIP3    H231329   5.168   5.564   1.710 -0.6394  0.5887  1.2682
 3280TIP3   OH231330   0.839   5.902   2.102 -0.4783  0.6549 -0.2041
 3280TIP3    H131331   0.744   5.891   2.095 -0.3597 -0.2928 -0.4817
 3280TIP3    H231332   0.873   5.871   2.017  0.2536 -1.3748  0.8026
 3281TIP3   OH231333   3.616   1.552   3.701 -0.5944  0.3768  0.6244
 3281TIP3    H131334   3.550   1.515   3.643 -0.0353  0.5257 -0.1083
 3281TIP3    H231335   3.671   1.478   3.725 -1.7474  0.0075  2.2317
 3282TIP3   OH231336   4.145   6.767   1.506  0.6179  0.8080 -0.4725
 3282TIP3    H131337   4.059   6.792   1.475  0.2676  0.5784  0.3033
 3282TIP3    H231338   4.183   6.847   1.541 -0.3594  0.3938  1.6715
 3283TIP3   OH231339   0.729   1.681  12.306 -0.6663 -0.7541  0.2340
 3283TIP3    H131340   0.824   1.691  12.308 -0.6578 -0.2020 -1.5967
 3283TIP3    H231341   0.698   1.739  12.376  0.2657  0.1690 -0.0961
 3284TIP3   OH231342   3.407   1.251  14.814 -0.4228  0.0590  0.1482
 3284TIP3    H131343   3.372   1.338  14.836 -0.8463 -0.4634  1.6096
 3284TIP3    H231344   3.370   1.193  14.881  1.4348 -0.9093  0.3521
 3285TIP3   OH231345   0.106   4.609   0.528  0.0168 -0.3926  0.1276
 3285TIP3    H131346   0.014   4.595   0.549  0.3374 -2.3096  0.3499
 3285TIP3    H231347   0.154   4.551   0.587  1.2648 -0.8919 -1.3351
 3286TIP3   OH231348   6.646   2.898  10.497 -0.3415  0.4533  0.5121
 3286TIP3    H131349   6.550   2.893  10.498 -0.3813  0.8456 -0.3955
 3286TIP3    H231350   6.673   2.828  10.437 -0.0011 -0.3829  1.6377
 3287TIP3   OH231351   4.217   2.654  17.125  0.4273  0.2033  0.4694
 3287TIP3    H131352   4.302   2.667  17.083  0.6548 -0.5434  0.7089
 3287TIP3    H231353   4.162   2.617  17.056  0.4551  0.1324  0.4862
 3288TIP3   OH231354   4.226   6.503   1.473  0.8782  0.7296  0.6387
 3288TIP3    H131355   4.225   6.599   1.473  1.2408  0.7339 -0.3817
 3288TIP3    H231356   4.271   6.479   1.392 -2.5438 -0.3638 -0.9982
 3289TIP3   OH231357   4.712   0.577  12.017  0.0481 -0.0857 -0.4075
 3289TIP3    H131358   4.797   0.562  11.975  0.4904  2.3180 -0.4825
 3289TIP3    H231359   4.720   0.538  12.104  1.0604 -0.3019 -0.5950
 3290TIP3   OH231360   5.315   3.348  11.829 -0.4154 -0.1924 -0.1227
 3290TIP3    H131361   5.316   3.442  11.810 -0.4945 -0.3454 -0.8970
 3290TIP3    H231362   5.401   3.317  11.799 -0.0989 -0.2418  0.8051
 3291TIP3   OH231363   0.015   6.374  15.758  0.2062 -0.2893  0.3560
 3291TIP3    H131364  -0.078   6.386  15.777  0.3132  0.7951  0.2410
 3291TIP3    H231365   0.025   6.402  15.667  0.8106  0.5464  0.6702
 3292TIP3   OH231366   2.426   2.781   2.445  0.0854 -0.0928  0.3083
 3292TIP3    H131367   2.490   2.720   2.408 -0.3364  0.6455 -1.7612
 3292TIP3    H231368   2.366   2.799   2.372 -1.0343  1.1246  1.5037
 3293TIP3   OH231369   0.876   3.571   5.361 -0.8117  0.2569  0.5342
 3293TIP3    H131370   0.932   3.646   5.380 -1.2220  0.4487  0.9792
 3293TIP3    H231371   0.807   3.574   5.428 -1.4421  0.1054 -0.1032
 3294TIP3   OH231372   4.201   0.202  14.364 -0.0925 -0.5011 -0.0711
 3294TIP3    H131373   4.249   0.133  14.320  0.6983 -0.8186  1.2648
 3294TIP3    H231374   4.149   0.243  14.295 -1.0384 -2.7958 -0.7700
 3295TIP3   OH231375   5.811   5.926  16.779  0.2377  0.4076  0.2555
 3295TIP3    H131376   5.731   5.912  16.728  0.5614 -0.4536 -0.0424
 3295TIP3    H231377   5.833   6.018  16.765  0.1648  0.2591 -0.9528
 3296TIP3   OH231378   3.292   2.481   1.611 -0.3503 -0.6653 -0.1664
 3296TIP3    H131379   3.339   2.442   1.685  0.5203  4.9386  2.5126
 3296TIP3    H231380   3.359   2.494   1.545  0.3207  0.4315  0.7117
 3297TIP3   OH231381   2.604   1.964  16.055 -0.2133  0.0442 -0.1662
 3297TIP3    H131382   2.541   2.027  16.091  1.4325  1.4427  0.3705
 3297TIP3    H231383   2.602   1.891  16.117 -2.0074 -0.3848 -0.6931
 3298TIP3   OH231384   1.928   1.561   5.725 -0.5455  0.1459 -0.4351
 3298TIP3    H131385   1.963   1.474   5.742  1.2935  1.0952  0.6949
 3298TIP3    H231386   1.879   1.584   5.804  0.2036  0.7218 -0.1266
 3299TIP3   OH231387   5.007   2.368   3.098  0.2351 -0.1886 -0.1047
 3299TIP3    H131388   5.019   2.332   3.186 -1.7491  1.3302  0.8438
 3299TIP3    H231389   5.008   2.463   3.112  0.4485  0.0687 -1.8126
 3300TIP3   OH231390   3.144   6.012   2.972 -0.4982  0.2477  0.6140
 3300TIP3    H131391   3.100   6.075   2.915  1.6884  0.4180 -0.9409
 3300TIP3    H231392   3.103   5.928   2.953  0.0471  0.3513 -1.0585
 3301TIP3   OH231393   0.228   3.481  15.851 -0.0511  0.3260 -0.3103
 3301TIP3    H131394   0.257   3.496  15.761 -0.7175  0.9518 -0.4210
 3301TIP3    H231395   0.140   3.518  15.855  0.1018  0.5982  0.6872
 3302TIP3   OH231396   4.646   1.573  16.834 -0.3608  0.2233 -0.8057
 3302TIP3    H131397   4.560   1.605  16.859 -0.6536 -1.0043 -0.1955
 3302TIP3    H231398   4.630   1.483  16.804  0.3571  0.7977 -2.9856
 3303TIP3   OH231399   1.947   1.140   5.047  0.2732  0.1768 -0.0311
 3303TIP3    H131400   1.956   1.131   5.141 -2.4971  2.2769  0.4965
 3303TIP3    H231401   1.995   1.220   5.026  0.8381 -0.2571 -0.4199
 3304TIP3   OH231402   1.444   1.035   4.106  0.3271  0.2332 -0.2268
 3304TIP3    H131403   1.450   0.971   4.035 -1.0873 -0.9022  0.6392
 3304TIP3    H231404   1.374   1.095   4.079  0.0777  0.0494  0.0041
 3305TIP3   OH231405   3.329   6.403   1.847  0.0125 -0.5484  0.3554
 3305TIP3    H131406   3.331   6.308   1.834  0.9183 -0.4918  0.0314
 3305TIP3    H231407   3.282   6.416   1.929  2.0473 -1.4275  1.6964
 3306TIP3   OH231408   6.615   4.776   2.962 -0.0006  0.3162  0.3758
 3306TIP3    H131409   6.634   4.708   3.026 -3.8574  1.1774  2.6120
 3306TIP3    H231410   6.585   4.730   2.884  0.3684 -0.6221  0.7908
 3307TIP3   OH231411   3.810   2.455  10.223 -0.0008  0.8110  0.8215
 3307TIP3    H131412   3.854   2.503  10.153  1.7346  0.7984  1.8643
 3307TIP3    H231413   3.717   2.464  10.204  0.4565  0.4244 -1.7334
 3308TIP3   OH231414   4.889   3.561  14.143  0.3052  0.0280 -0.0908
 3308TIP3    H131415   4.877   3.563  14.048 -0.2816 -0.9066 -0.0436
 3308TIP3    H231416   4.984   3.554  14.155  0.1882 -3.0135 -0.6680
 3309TIP3   OH231417   4.713   6.447   3.252  0.2346 -0.2891 -0.3551
 3309TIP3    H131418   4.705   6.542   3.252 -1.2259 -0.4041  0.1135
 3309TIP3    H231419   4.746   6.427   3.340  1.0646 -0.1793 -0.6385
 3310TIP3   OH231420   5.092   6.048  11.899 -0.0051  0.3302  0.4100
 3310TIP3    H131421   5.056   5.977  11.954 -0.6190 -0.4516 -0.9848
 3310TIP3    H231422   5.015   6.101  11.877  0.0856  0.0920 -0.4875
 3311TIP3   OH231423   6.742   0.690  11.683  0.3395  0.0390 -0.4080
 3311TIP3    H131424   6.822   0.698  11.735 -0.8763 -0.1599  1.5226
 3311TIP3    H231425   6.750   0.758  11.616  0.8079  1.9142  1.5255
 3312TIP3   OH231426   1.013   0.544  15.871  0.2356  0.1057 -0.3132
 3312TIP3    H131427   0.926   0.534  15.911  0.4950  2.1154  0.8074
 3312TIP3    H231428   1.018   0.636  15.847  2.7282  0.4504  1.3020
 3313TIP3   OH231429   6.072   3.465   4.032 -0.5116  0.2237 -0.0035
 3313TIP3    H131430   6.127   3.492   4.105 -2.6245  1.0887  1.3035
 3313TIP3    H231431   6.130   3.411   3.978  1.4656  0.6781  1.5758
 3314TIP3   OH231432   0.176   5.839  13.101  0.0313 -0.2552  0.2173
 3314TIP3    H131433   0.147   5.778  13.033  1.1666 -1.8524  1.1085
 3314TIP3    H231434   0.141   5.924  13.075  1.1475 -0.6595 -2.8147
 3315TIP3   OH231435   0.164   4.400   3.682  0.5265  0.1620  0.0858
 3315TIP3    H131436   0.243   4.449   3.707 -0.3058  0.6805  1.8112
 3315TIP3    H231437   0.092   4.455   3.713 -0.4631 -1.3728  0.5325
 3316TIP3   OH231438   3.962   6.557   3.632 -0.4005 -0.2549  0.4450
 3316TIP3    H131439   4.019   6.584   3.704 -1.2394 -0.2722  1.1201
 3316TIP3    H231440   3.892   6.621   3.631  0.2207  0.4412 -1.1287
 3317TIP3   OH231441   4.543   3.092   3.432  0.4362 -0.2485  0.0957
 3317TIP3    H131442   4.535   3.079   3.338 -1.4454  1.0946  0.0385
 3317TIP3    H231443   4.613   3.157   3.442  1.8926 -1.7365 -0.2446
 3318TIP3   OH231444   2.038   6.310   5.523  0.3097 -0.0325 -0.2441
 3318TIP3    H131445   1.975   6.363   5.475  1.2991  0.1067 -1.4016
 3318TIP3    H231446   2.013   6.321   5.615 -1.1272  0.3010 -0.6628
 3319TIP3   OH231447   5.732   4.001  16.666  0.2828  0.1119 -0.0606
 3319TIP3    H131448   5.788   4.074  16.694 -2.3564  2.2501 -0.1907
 3319TIP3    H231449   5.682   3.978  16.744 -0.6221  0.0433 -0.6591
 3320TIP3   OH231450   1.725   2.822   4.375  0.1122 -0.5015 -0.1265
 3320TIP3    H131451   1.766   2.780   4.450 -0.9426  0.9464  1.2866
 3320TIP3    H231452   1.640   2.780   4.367  0.7762 -1.6293 -1.3942
 3321TIP3   OH231453   0.099   2.518   3.146 -0.4759 -0.1142  0.2201
 3321TIP3    H131454   0.116   2.561   3.062  0.5738 -1.9266 -0.5083
 3321TIP3    H231455   0.046   2.581   3.194 -2.9586  0.0500 -2.6206
 3322TIP3   OH231456   2.261   5.154   6.001  0.5720 -0.3699 -0.1321
 3322TIP3    H131457   2.238   5.063   5.985  1.9526 -0.8459  0.4475
 3322TIP3    H231458   2.332   5.173   5.940 -1.2170  1.0499 -1.8623
 3323TIP3   OH231459   2.209   2.470  13.598  0.3415  0.4732 -0.4505
 3323TIP3    H131460   2.200   2.382  13.634 -0.7442  1.0173  0.6332
 3323TIP3    H231461   2.182   2.462  13.507  1.3690 -0.5417 -0.6835
 3324TIP3   OH231462   0.724   3.933   5.112 -0.1628  0.3943  0.4043
 3324TIP3    H131463   0.736   3.895   5.025 -0.9422 -1.1420  0.9443
 3324TIP3    H231464   0.727   3.858   5.171 -0.4008  1.3412  1.6313
 3325TIP3   OH231465   0.359   2.734   0.965 -0.3382  0.1095  0.1154
 3325TIP3    H131466   0.354   2.771   0.877 -0.7553 -0.4883 -0.1184
 3325TIP3    H231467   0.421   2.790   1.011  1.1180 -0.5451 -1.0329
 3326TIP3   OH231468   3.056   1.205  11.525  0.0157  0.3870 -0.1515
 3326TIP3    H131469   3.151   1.190  11.515  0.1040 -0.2773  1.5034
 3326TIP3    H231470   3.027   1.233  11.438  1.7180  0.5065 -0.7047
 3327TIP3   OH231471   1.223   6.501   5.156  0.4901 -0.0524  0.1302
 3327TIP3    H131472   1.226   6.451   5.074 -0.3623 -1.0888  0.7194
 3327TIP3    H231473   1.169   6.448   5.215  0.9293  0.7753  1.3034
 3328TIP3   OH231474   2.936   6.608   6.734 -0.2173 -0.3237  0.3817
 3328TIP3    H131475   2.860   6.616   6.793 -0.1302 -0.5189  0.5203
 3328TIP3    H231476   3.011   6.626   6.790 -0.0347 -1.7723  0.6328
 3329TIP3   OH231477   3.461   1.440   0.364 -0.4345  0.8889 -0.3866
 3329TIP3    H131478   3.464   1.487   0.447 -2.9941  2.7088 -1.2474
 3329TIP3    H231479   3.480   1.507   0.298  1.3670 -0.4872 -1.3051
 3330TIP3   OH231480   4.848   2.778  17.268  0.0305  0.0825  1.2240
 3330TIP3    H131481   4.860   2.696  17.220 -0.6047  0.0402  1.1267
 3330TIP3    H231482   4.759   2.773  17.303 -0.4699  1.2629  0.1792
 3331TIP3   OH231483   2.224   3.875   0.353 -0.8446  0.1806  0.6358
 3331TIP3    H131484   2.154   3.820   0.389 -2.0162 -0.8470 -3.0174
 3331TIP3    H231485   2.298   3.860   0.412 -2.9905 -0.4394  3.2986
 3332TIP3   OH231486   5.208   2.257   3.292  0.1552 -0.0693 -0.2213
 3332TIP3    H131487   5.176   2.238   3.380  1.8182  0.2738  0.4766
 3332TIP3    H231488   5.277   2.192   3.277  0.2144  0.1837 -1.0823
 3333TIP3   OH231489   4.697   4.201  16.589  0.2609 -0.4332 -0.2226
 3333TIP3    H131490   4.764   4.156  16.538 -0.3579 -0.9512 -0.5764
 3333TIP3    H231491   4.627   4.219  16.527  0.4782  0.9902 -0.0767
 3334TIP3   OH231492   5.618   1.441  13.922 -0.2622  0.5972 -0.0829
 3334TIP3    H131493   5.649   1.531  13.911 -2.3723  0.9151 -4.5401
 3334TIP3    H231494   5.538   1.450  13.974 -2.0845  1.6934 -2.9789
 3335TIP3   OH231495   6.025   1.918   2.185 -0.3760  0.2150 -0.0435
 3335TIP3    H131496   6.099   1.858   2.183  0.6617  1.4558  0.5193
 3335TIP3    H231497   6.058   1.999   2.146 -2.2650 -0.1120 -2.4473
 3336TIP3   OH231498   0.754   3.318  13.379 -0.6450 -0.9266  0.4488
 3336TIP3    H131499   0.758   3.405  13.338  0.8347 -1.5767 -0.8291
 3336TIP3    H231500   0.668   3.315  13.421 -1.6984  0.2468 -1.5484
 3337TIP3   OH231501   3.136   4.055   4.919  0.3114 -0.3964  0.3424
 3337TIP3    H131502   3.221   4.091   4.892  0.1079 -0.8622 -0.9435
 3337TIP3    H231503   3.142   3.962   4.896 -1.0902 -0.1451 -1.1098
 3338TIP3   OH231504   4.531   3.266  13.494  0.1109  1.1509  0.1722
 3338TIP3    H131505   4.593   3.318  13.442 -1.7091  2.6068 -0.5603
 3338TIP3    H231506   4.486   3.211  13.430  0.4021  0.3098  0.6759
 3339TIP3   OH231507   0.795   2.783   3.452  0.1393  0.7931  0.3188
 3339TIP3    H131508   0.832   2.695   3.463  0.5849  0.9525  0.0673
 3339TIP3    H231509   0.715   2.781   3.504  0.3207  0.3424  0.5835
 3340TIP3   OH231510   1.745   2.444   2.531  0.4865 -0.3316  0.4963
 3340TIP3    H131511   1.789   2.463   2.448  1.2436 -1.1230  0.7101
 3340TIP3    H231512   1.742   2.529   2.577  1.0623 -0.1147  0.1328
 3341TIP3   OH231513   6.745   5.149   1.534  0.0218 -0.0272 -0.5914
 3341TIP3    H131514   6.751   5.150   1.629  0.2066 -0.7389 -0.5942
 3341TIP3    H231515   6.671   5.092   1.515  0.4689 -0.5041 -0.8994
 3342TIP3   OH231516   0.475   2.501  13.231 -0.0364 -0.2017  0.0302
 3342TIP3    H131517   0.534   2.426  13.229  1.2914  0.8445 -1.4944
 3342TIP3    H231518   0.519   2.565  13.287 -1.1109 -0.4923  1.2313
 3343TIP3   OH231519   4.227   5.158   0.323  0.4211  0.0302 -0.1602
 3343TIP3    H131520   4.164   5.127   0.257 -0.2240  3.0912 -1.0566
 3343TIP3    H231521   4.178   5.223   0.374  2.3921  1.3082  0.1450
 3344TIP3   OH231522   4.715   3.803  16.499 -0.0936  0.0884 -0.1526
 3344TIP3    H131523   4.672   3.752  16.431  1.1211 -1.9772  0.5815
 3344TIP3    H231524   4.668   3.780  16.579  0.1056  0.5782  0.1070
 3345TIP3   OH231525   1.532   3.032  15.896 -0.5617 -0.1947  0.0764
 3345TIP3    H131526   1.444   3.059  15.869 -0.3876  1.1621  0.8505
 3345TIP3    H231527   1.581   3.027  15.814 -0.7681  1.2542 -0.1496
 3346TIP3   OH231528   6.429   4.248   1.019 -0.1238  0.2993  0.2344
 3346TIP3    H131529   6.369   4.178   0.995 -0.3024 -0.2492  2.2133
 3346TIP3    H231530   6.427   4.250   1.115  2.0714  1.0986  0.2971
 3347TIP3   OH231531   6.815   5.310   2.066 -0.0140  0.4068 -0.7127
 3347TIP3    H131532   6.723   5.333   2.085 -0.5185 -0.9239 -1.4745
 3347TIP3    H231533   6.866   5.362   2.128 -1.3117  0.9179 -0.0551
 3348TIP3   OH231534   6.459   4.116  15.596 -0.4783 -0.2339 -0.1238
 3348TIP3    H131535   6.459   4.066  15.515 -1.0605 -1.0372  0.3594
 3348TIP3    H231536   6.475   4.051  15.664  0.4862  0.5047  0.3718
 3349TIP3   OH231537   3.281   1.760   4.470 -0.6166  0.1868 -0.2782
 3349TIP3    H131538   3.370   1.793   4.456  0.0907 -1.8904 -0.9561
 3349TIP3    H231539   3.248   1.742   4.382 -0.5861 -1.7894  0.0815
 3350TIP3   OH231540   6.105   2.148  10.737 -0.3266 -0.0552 -0.0383
 3350TIP3    H131541   6.065   2.226  10.700 -0.6039 -0.4815 -0.6442
 3350TIP3    H231542   6.068   2.076  10.687  1.5458 -0.4282 -0.9216
 3351TIP3   OH231543   0.172   4.149  14.281 -0.1482  0.0116  0.5374
 3351TIP3    H131544   0.180   4.122  14.373 -0.7961  0.0999  0.6263
 3351TIP3    H231545   0.213   4.235  14.277 -3.9333  2.0034  1.7212
 3352TIP3   OH231546   2.528   0.353   4.115  0.8186 -0.4311 -0.3234
 3352TIP3    H131547   2.563   0.269   4.084  0.0157 -0.3001 -1.6569
 3352TIP3    H231548   2.513   0.340   4.208  3.0915 -0.9348 -0.0011
 3353TIP3   OH231549   0.546   4.209  12.628 -0.1034  0.1820  0.2626
 3353TIP3    H131550   0.586   4.175  12.708  0.2643  0.2864  0.1269
 3353TIP3    H231551   0.586   4.158  12.558 -1.8878 -1.2776  0.2766
 3354TIP3   OH231552   3.273   1.431   0.818 -0.0919  0.0098 -0.1269
 3354TIP3    H131553   3.251   1.465   0.731 -1.4803  0.1831  0.2816
 3354TIP3    H231554   3.200   1.458   0.873  1.1320  0.5439  1.2698
 3355TIP3   OH231555   2.355   6.031  12.814 -0.1818  0.1165 -0.4169
 3355TIP3    H131556   2.368   6.117  12.775 -1.7829  0.9106  0.7357
 3355TIP3    H231557   2.271   6.001  12.779 -0.5795 -0.1068  0.7000
 3356TIP3   OH231558   1.959   3.697  15.927 -1.0189 -0.3498  0.2774
 3356TIP3    H131559   2.045   3.737  15.936 -0.3544 -1.9197  1.1623
 3356TIP3    H231560   1.906   3.738  15.994 -0.7496  0.0904  0.2222
 3357TIP3   OH231561   1.336   0.025  14.446  0.3904  0.2103  0.2125
 3357TIP3    H131562   1.318   0.112  14.412  0.4765 -0.7533 -2.4452
 3357TIP3    H231563   1.423   0.003  14.412 -0.4633 -1.6911 -0.8387
 3358TIP3   OH231564   3.637   4.838   2.411  0.4199 -0.1437  0.4386
 3358TIP3    H131565   3.594   4.864   2.330 -1.1284 -1.3830  0.8485
 3358TIP3    H231566   3.716   4.792   2.383  0.3399  0.1983 -0.3425
 3359TIP3   OH231567   2.216   5.718   4.145 -0.6746 -0.6761 -0.1186
 3359TIP3    H131568   2.310   5.729   4.131 -0.8599 -1.0058 -1.7063
 3359TIP3    H231569   2.189   5.652   4.081 -2.0182 -0.4548  0.1933
 3360TIP3   OH231570   2.220   3.649   3.169 -0.1607 -0.2879 -0.4206
 3360TIP3    H131571   2.315   3.657   3.172 -0.2481  1.3530 -1.3929
 3360TIP3    H231572   2.204   3.562   3.132  0.9958  0.3596 -2.5433
 3361TIP3   OH231573   6.416   2.551  14.693 -0.2787  0.3949 -0.0366
 3361TIP3    H131574   6.430   2.608  14.769  1.0501  0.3700 -0.2468
 3361TIP3    H231575   6.504   2.521  14.669 -0.5898  0.9846 -2.0382
 3362TIP3   OH231576   3.889   5.555  15.191 -0.1283 -0.6206  0.2723
 3362TIP3    H131577   3.883   5.529  15.283 -1.6633 -0.5268  0.2209
 3362TIP3    H231578   3.953   5.626  15.189  0.6050 -1.2580  1.1247
 3363TIP3   OH231579   2.993   6.425   3.285 -0.6821  0.0471  0.1875
 3363TIP3    H131580   2.917   6.451   3.336 -0.3390  0.1168  0.6655
 3363TIP3    H231581   2.963   6.352   3.232 -1.2400  0.4431 -0.0481
 3364TIP3   OH231582   2.750   3.856  12.039 -0.1252 -0.4845 -0.8154
 3364TIP3    H131583   2.738   3.772  11.994  0.7739 -0.2168 -1.5620
 3364TIP3    H231584   2.844   3.867  12.044 -0.2434  0.3025 -0.3626
 3365TIP3   OH231585   0.137   5.272   3.729 -0.1792 -0.3228 -0.1651
 3365TIP3    H131586   0.124   5.301   3.638  0.0279  1.1827  0.2687
 3365TIP3    H231587   0.133   5.177   3.724  0.6573 -0.2984 -1.8843
 3366TIP3   OH231588   1.645   4.495  14.212  0.3647 -0.2080  0.0535
 3366TIP3    H131589   1.574   4.447  14.171  0.3819 -0.3726  0.2164
 3366TIP3    H231590   1.635   4.585  14.181 -0.1193 -0.1601  0.3534
 3367TIP3   OH231591   2.121   2.537   5.170 -0.1020 -0.4588  0.3933
 3367TIP3    H131592   2.159   2.615   5.211  0.1904 -1.0460  1.2673
 3367TIP3    H231593   2.170   2.526   5.089 -0.8624  0.8773 -0.2661
 3368TIP3   OH231594   5.999   6.637  12.141  0.0923 -0.2216 -0.1106
 3368TIP3    H131595   5.934   6.569  12.161  0.9439 -1.1233 -0.3714
 3368TIP3    H231596   6.021   6.623  12.049  1.5800 -0.7211  0.3102
 3369TIP3   OH231597   5.979   2.588   4.884 -0.4606  0.5889  0.1884
 3369TIP3    H131598   5.945   2.598   4.795  0.2858 -0.0057 -0.1666
 3369TIP3    H231599   5.901   2.591   4.940 -0.9289  0.9632 -0.4821
 3370TIP3   OH231600   0.083   5.028  16.153  0.1065 -0.4520  0.5557
 3370TIP3    H131601   0.008   5.010  16.210  0.9381 -1.5476  1.3182
 3370TIP3    H231602   0.142   5.080  16.206  0.7653 -1.2511  0.6226
 3371TIP3   OH231603   3.999   5.560   0.425 -0.1997 -0.0010  0.3305
 3371TIP3    H131604   3.962   5.647   0.411 -0.2459 -0.2704 -1.3349
 3371TIP3    H231605   3.989   5.516   0.341 -0.0141 -1.5613  1.1094
 3372TIP3   OH231606   3.927   2.513  15.220 -0.2963 -0.7308 -0.5728
 3372TIP3    H131607   3.972   2.584  15.267  1.0693 -2.4041  0.7336
 3372TIP3    H231608   3.997   2.470  15.170 -1.2834 -0.5914 -2.1080
 3373TIP3   OH231609   3.879   0.977  16.844 -0.1358 -0.2282 -0.4559
 3373TIP3    H131610   3.845   0.978  16.933  0.7752 -0.0124 -0.1157
 3373TIP3    H231611   3.943   1.048  16.841 -0.8882  0.4286 -1.5657
 3374TIP3   OH231612   1.842   1.817   0.607  0.5385 -0.1200 -0.0173
 3374TIP3    H131613   1.792   1.751   0.559 -0.1568  1.1856 -1.1476
 3374TIP3    H231614   1.914   1.839   0.548  0.2561  0.7665 -0.0402
 3375TIP3   OH231615   5.031   4.542  15.669 -0.2906 -0.2530  0.5558
 3375TIP3    H131616   5.097   4.595  15.623 -0.0513 -1.9874 -1.1505
 3375TIP3    H231617   5.072   4.523  15.754  0.5780  0.3539  0.2905
 3376TIP3   OH231618   4.037   1.351   5.185  0.8329 -0.4746 -0.2635
 3376TIP3    H131619   4.112   1.333   5.242  0.3922 -0.8794  0.1901
 3376TIP3    H231620   3.991   1.422   5.228  0.7082 -0.5249 -0.3136
 3377TIP3   OH231621   2.335   3.714   5.256  1.0580 -0.0348  0.0849
 3377TIP3    H131622   2.289   3.778   5.202  1.4284 -0.9249 -1.2940
 3377TIP3    H231623   2.394   3.669   5.196 -0.0852 -2.5485  0.7579
 3378TIP3   OH231624   2.838   0.498   1.130  0.3264  0.6961 -0.0562
 3378TIP3    H131625   2.904   0.531   1.190  1.3099 -0.1576 -0.6504
 3378TIP3    H231626   2.765   0.473   1.186  0.8993  0.7123  0.7043
 3379TIP3   OH231627   3.950   6.419   3.400 -0.0427  0.1046  0.2073
 3379TIP3    H131628   3.968   6.441   3.492  0.9750 -1.4948  0.3989
 3379TIP3    H231629   3.862   6.381   3.402  1.1775 -2.7721  1.0023
 3380TIP3   OH231630   3.647   2.551   2.536 -0.3370  0.3630 -0.2462
 3380TIP3    H131631   3.605   2.469   2.561  1.9324 -0.4495  1.0227
 3380TIP3    H231632   3.628   2.611   2.608 -0.9106  0.5578 -0.5616
 3381TIP3   OH231633   2.544   0.682   0.468 -0.1291 -0.1740  0.2608
 3381TIP3    H131634   2.566   0.634   0.548 -0.9045 -0.5325  0.2636
 3381TIP3    H231635   2.533   0.773   0.497  0.9499 -0.0576  0.3227
 3382TIP3   OH231636   3.226   1.671  15.378 -0.1296  0.3635 -0.1222
 3382TIP3    H131637   3.239   1.752  15.427 -0.0227 -0.6489  1.5503
 3382TIP3    H231638   3.142   1.683  15.334  1.0869  2.4019 -1.9566
 3383TIP3   OH231639   6.435   2.714  11.044  0.8541 -0.1756 -0.2181
 3383TIP3    H131640   6.352   2.762  11.033  0.8619 -0.2003 -0.3831
 3383TIP3    H231641   6.476   2.718  10.958  1.2838  0.3157  0.0129
 3384TIP3   OH231642   6.745   4.833  15.728 -0.3838  0.6691 -0.3018
 3384TIP3    H131643   6.734   4.918  15.685 -1.4238  0.3650 -0.6389
 3384TIP3    H231644   6.824   4.844  15.782 -1.2719  2.2687  0.7016
 3385TIP3   OH231645   0.573   0.083  12.045 -0.5302 -0.1204 -0.4114
 3385TIP3    H131646   0.604   0.139  11.975 -1.3487  0.7735 -0.0824
 3385TIP3    H231647   0.477   0.085  12.037 -0.6467  0.1653  0.8371
 3386TIP3   OH231648   3.118   4.596  11.411  0.6124 -0.5046  0.6361
 3386TIP3    H131649   3.122   4.622  11.503 -0.8542 -0.0537  0.5776
 3386TIP3    H231650   3.073   4.512  11.411 -0.9211  0.3046  0.1841
 3387TIP3   OH231651   0.519   0.059  12.312 -0.1778  0.6095 -0.7622
 3387TIP3    H131652   0.552   0.058  12.222 -0.9278 -0.3898 -1.0269
 3387TIP3    H231653   0.580   0.003  12.361  1.4076  2.7295 -0.2048
 3388TIP3   OH231654   4.756   3.450  16.426  0.7230  0.5543  0.4193
 3388TIP3    H131655   4.668   3.465  16.461  0.6998  0.3176  0.4601
 3388TIP3    H231656   4.784   3.368  16.465  1.5696  1.3938  1.6043
 3389TIP3   OH231657   0.557   4.159   3.156 -0.3559 -0.6276 -0.1284
 3389TIP3    H131658   0.627   4.134   3.216 -1.5295  1.5440  2.2467
 3389TIP3    H231659   0.601   4.175   3.073  1.9817  0.4953  1.2777
 3390TIP3   OH231660   3.585   6.780   0.308  0.8185  0.3472  0.1577
 3390TIP3    H131661   3.566   6.873   0.316 -2.4480 -0.2532  0.4703
 3390TIP3    H231662   3.561   6.743   0.393 -0.2817 -1.0947 -0.7388
 3391TIP3   OH231663   3.748   1.480  14.526  0.0849 -0.1691  0.4899
 3391TIP3    H131664   3.705   1.471  14.441 -1.6849  0.1107  1.3250
 3391TIP3    H231665   3.680   1.516  14.583  1.4891  0.3981  1.8235
 3392TIP3   OH231666   6.304   0.412  11.410  0.2939 -0.6296 -0.1022
 3392TIP3    H131667   6.387   0.459  11.416 -0.5934  0.8638  0.7267
 3392TIP3    H231668   6.317   0.349  11.339  1.4202  1.0034 -1.3596
 3393TIP3   OH231669   4.896   4.124   2.454  0.5114  0.0878 -0.2920
 3393TIP3    H131670   4.925   4.160   2.371  0.2451  1.3365  0.1504
 3393TIP3    H231671   4.814   4.169   2.473 -0.5630 -1.7572 -0.4141
 3394TIP3   OH231672   0.653   4.307   1.073 -0.6188  0.5250  0.1080
 3394TIP3    H131673   0.598   4.381   1.096 -1.9891 -0.7790  1.1717
 3394TIP3    H231674   0.739   4.344   1.054 -0.9585  2.2276  1.8292
 3395TIP3   OH231675   6.061   2.251   1.327  0.5906 -0.1370  0.0248
 3395TIP3    H131676   5.987   2.198   1.296  2.2810 -1.8246 -1.3210
 3395TIP3    H231677   6.066   2.324   1.265 -0.8811  0.8642  1.0503
 3396TIP3   OH231678   6.361   1.269  15.712  0.0545  0.0077 -0.8630
 3396TIP3    H131679   6.423   1.340  15.724  0.6559 -0.8763  1.4322
 3396TIP3    H231680   6.397   1.217  15.640 -1.0437  2.6641 -3.4208
 3397TIP3   OH231681   2.567   1.993   4.496 -0.7468 -0.2278  0.6055
 3397TIP3    H131682   2.632   1.975   4.428  0.4785  0.5706  1.5426
 3397TIP3    H231683   2.610   1.967   4.577 -1.4421  0.6919  1.2739
 3398TIP3   OH231684   1.901   5.149   0.448 -0.1112  0.1856 -0.0497
 3398TIP3    H131685   1.827   5.088   0.451 -0.0611  0.1656  0.8476
 3398TIP3    H231686   1.968   5.102   0.398 -0.2451 -0.3058  0.2214
 3399TIP3   OH231687   3.823   4.829   1.240  0.2124  0.3222  0.3034
 3399TIP3    H131688   3.832   4.738   1.213  0.9732  0.8828 -1.4705
 3399TIP3    H231689   3.730   4.849   1.228 -0.3350 -0.7695  2.6123
 3400TIP3   OH231690   4.039   1.988  13.433 -0.8752 -0.1759 -0.4202
 3400TIP3    H131691   3.998   2.069  13.464 -1.3953  0.1917 -2.0225
 3400TIP3    H231692   4.028   1.991  13.338  2.2603 -0.4049 -0.8265
 3401TIP3   OH231693   2.850   2.137  15.086  0.9728 -0.2894  0.4635
 3401TIP3    H131694   2.781   2.127  15.020 -1.6084  0.8453  2.8836
 3401TIP3    H231695   2.892   2.051  15.090  0.5127 -0.6626 -1.8875
 3402TIP3   OH231696   4.377   2.449   1.908  0.3561 -0.5385  0.2555
 3402TIP3    H131697   4.293   2.442   1.954  1.1268 -2.9826  1.4018
 3402TIP3    H231698   4.427   2.374   1.940  1.9885 -0.6363 -2.4471
 3403TIP3   OH231699   3.563   0.555  12.209  0.3388  0.2927  0.6462
 3403TIP3    H131700   3.607   0.518  12.133 -0.7215  5.4402 -2.7195
 3403TIP3    H231701   3.476   0.515  12.208  0.8138 -0.7399  0.0448
 3404TIP3   OH231702   2.303   5.626  14.471  0.1960 -0.5169  0.3767
 3404TIP3    H131703   2.214   5.658  14.459 -0.0575 -1.2031  0.4369
 3404TIP3    H231704   2.294   5.547  14.523  0.8287 -0.6740  0.2555
 3405TIP3   OH231705   6.732   4.146  14.154 -0.4170 -0.3854 -0.1225
 3405TIP3    H131706   6.688   4.068  14.187  2.6856 -1.4886  1.6580
 3405TIP3    H231707   6.822   4.138  14.187  0.9335  2.1009 -2.9592
 3406TIP3   OH231708   1.354   4.175  16.225 -0.6312  0.3734 -0.1082
 3406TIP3    H131709   1.375   4.235  16.154  0.9477 -1.1121 -0.9389
 3406TIP3    H231710   1.370   4.225  16.305  0.6500  1.0479 -0.7835
 3407TIP3   OH231711   3.412   3.573   1.144  0.4015 -0.0280 -0.2844
 3407TIP3    H131712   3.352   3.563   1.218 -0.7117 -0.9161 -1.2831
 3407TIP3    H231713   3.390   3.659   1.107  0.7030  0.2516  0.1762
 3408TIP3   OH231714   1.992   5.279  13.728 -0.0772  0.0086  0.0613
 3408TIP3    H131715   1.983   5.366  13.767  3.0185  0.9965 -1.3136
 3408TIP3    H231716   1.935   5.281  13.651 -0.0980  0.7638  0.0978
 3409TIP3   OH231717   6.295   2.222  16.988 -0.5438 -0.1356 -0.1628
 3409TIP3    H131718   6.215   2.170  16.989  0.2701 -1.4157 -0.2456
 3409TIP3    H231719   6.349   2.183  17.058 -1.0673  2.4364  1.7551
 3410TIP3   OH231720   0.957   0.080   5.594 -0.1491  0.0396 -0.2976
 3410TIP3    H131721   0.932   0.031   5.672  1.3567 -0.0337  0.1551
 3410TIP3    H231722   1.052   0.092   5.602 -0.1684  1.1302 -1.4872
 3411TIP3   OH231723   4.775   2.368   4.858 -0.1205  0.2902 -0.0235
 3411TIP3    H131724   4.784   2.273   4.870 -0.6064  0.3330  0.6993
 3411TIP3    H231725   4.681   2.385   4.867  0.0704  0.9594  0.7624
 3412TIP3   OH231726   1.638   5.312  13.226  0.2689 -0.1750 -0.5102
 3412TIP3    H131727   1.604   5.339  13.312 -0.2916 -1.2007 -0.3939
 3412TIP3    H231728   1.575   5.346  13.163  0.1798 -0.2241 -0.4476
 3413TIP3   OH231729   1.593   5.788   1.778 -0.4324 -0.3344  0.0278
 3413TIP3    H131730   1.560   5.732   1.849  2.8081 -0.8141  1.2184
 3413TIP3    H231731   1.660   5.736   1.735  3.0119  2.6873  1.4504
 3414TIP3   OH231732   3.339   4.123  14.035 -0.2877 -0.8849  0.7069
 3414TIP3    H131733   3.253   4.101  13.998 -0.6114  3.0321 -1.0179
 3414TIP3    H231734   3.319   4.156  14.122 -0.8314  1.9957 -0.4455
 3415TIP3   OH231735   3.073   2.459  10.732  0.3236  0.3064  0.5941
 3415TIP3    H131736   3.169   2.462  10.732  0.3160  1.1142  1.9452
 3415TIP3    H231737   3.047   2.541  10.690  0.2187 -0.4137 -0.7688
 3416TIP3   OH231738   2.141   1.531  14.415 -0.1296  0.0416 -0.0561
 3416TIP3    H131739   2.137   1.601  14.350  1.1899 -0.0281 -0.2347
 3416TIP3    H231740   2.209   1.559  14.476 -1.1916 -0.0096  1.1662
 3417TIP3   OH231741   2.925   3.867   5.118 -0.3210  0.3125 -0.5952
 3417TIP3    H131742   2.831   3.854   5.105 -0.4668  1.7687 -1.0109
 3417TIP3    H231743   2.936   3.961   5.127  0.5493 -0.1069  4.0184
 3418TIP3   OH231744   2.200   3.732  14.333  0.1049  0.5493 -0.3526
 3418TIP3    H131745   2.262   3.805  14.320 -1.3622  2.1341  1.3863
 3418TIP3    H231746   2.254   3.653  14.324  2.2422  1.8857  0.3861
 3419TIP3   OH231747   3.797   1.474   4.220  0.0909  0.0163  0.1762
 3419TIP3    H131748   3.825   1.539   4.156  0.6540  0.4599  0.8701
 3419TIP3    H231749   3.876   1.455   4.271 -0.4657  0.0194  1.0483
 3420TIP3   OH231750   2.825   1.378  16.858  0.3645  0.3731 -0.5139
 3420TIP3    H131751   2.870   1.412  16.780 -0.5425 -1.3027 -1.8013
 3420TIP3    H231752   2.844   1.442  16.926  1.9194  1.4177 -1.8860
 3421TIP3   OH231753   6.154   3.541  16.516 -0.0511  0.0217 -0.5846
 3421TIP3    H131754   6.234   3.556  16.567 -0.4508  0.6882 -0.1454
 3421TIP3    H231755   6.151   3.446  16.504  0.0317 -0.1558  0.6820
 3422TIP3   OH231756   4.359   3.578  13.533 -0.3815  0.1686  0.1124
 3422TIP3    H131757   4.361   3.580  13.438 -0.6085 -1.0892  0.0771
 3422TIP3    H231758   4.442   3.538  13.558  0.4559  2.0901  0.5109
 3423TIP3   OH231759   0.545   6.038  13.909 -0.0369 -0.1852 -0.6172
 3423TIP3    H131760   0.640   6.027  13.903 -0.0728 -0.7850 -0.1645
 3423TIP3    H231761   0.519   5.980  13.981 -0.4982  1.4951  0.5781
 3424TIP3   OH231762   6.493   1.858   0.997  0.7747 -0.0678 -0.6464
 3424TIP3    H131763   6.419   1.914   0.976 -0.0400 -0.5517  0.8060
 3424TIP3    H231764   6.471   1.823   1.084  1.5055 -2.1948 -1.3014
 3425TIP3   OH231765   1.584   4.919  11.118  0.2095  0.5423  0.4495
 3425TIP3    H131766   1.612   4.833  11.085  0.7288  0.3566  1.3513
 3425TIP3    H231767   1.499   4.903  11.157  0.3310  0.4189  0.6670
 3426TIP3   OH231768   2.875   5.621   1.596  0.1372  0.3801 -0.0106
 3426TIP3    H131769   2.878   5.530   1.625 -0.7365  0.1661 -0.5762
 3426TIP3    H231770   2.816   5.621   1.520 -0.2058  1.4809  0.2323
 3427TIP3   OH231771   1.643   1.324  13.817  0.0538  0.2443 -0.0207
 3427TIP3    H131772   1.735   1.346  13.835  0.3253 -0.5991 -0.3654
 3427TIP3    H231773   1.604   1.406  13.789  0.6772  0.6351  0.2428
 3428TIP3   OH231774   4.665   6.144   3.837  0.4956 -0.2678 -0.0381
 3428TIP3    H131775   4.639   6.236   3.846  1.7161  0.0427  0.3089
 3428TIP3    H231776   4.639   6.104   3.920 -0.1419 -0.2708 -0.2344
 3429TIP3   OH231777   4.581   2.204   0.758  1.6289  0.3321 -0.3018
 3429TIP3    H131778   4.548   2.175   0.843 -1.6017  0.3184 -1.4919
 3429TIP3    H231779   4.639   2.134   0.730 -0.2502 -1.4953  0.2354
 3430TIP3   OH231780   6.189   4.953   2.219 -0.4030 -0.2150  0.1003
 3430TIP3    H131781   6.191   4.905   2.137 -0.9491  0.4195 -0.2832
 3430TIP3    H231782   6.281   4.958   2.246 -0.2336 -0.4896 -0.4264
 3431TIP3   OH231783   4.512   6.250   1.025 -0.5508  0.8054 -0.0417
 3431TIP3    H131784   4.455   6.180   1.058  0.2877 -0.0491 -0.3513
 3431TIP3    H231785   4.568   6.206   0.961 -1.4362  2.2156 -1.8320
 3432TIP3   OH231786   5.193   0.369   4.731 -0.1317  0.2648 -0.5634
 3432TIP3    H131787   5.195   0.439   4.797 -0.3536  0.2201 -0.5062
 3432TIP3    H231788   5.123   0.395   4.671 -0.9076 -0.4166  0.0355
 3433TIP3   OH231789   5.206   0.938  14.416  0.2374  0.4202  0.2696
 3433TIP3    H131790   5.197   0.855  14.462 -0.3689  1.1848  1.5521
 3433TIP3    H231791   5.300   0.955  14.415  0.4249 -0.5834 -0.5674
 3434TIP3   OH231792   6.615   3.740  16.703 -0.1272 -0.1101  0.2082
 3434TIP3    H131793   6.643   3.688  16.778 -0.7577  1.0654  1.2776
 3434TIP3    H231794   6.606   3.829  16.737  1.3175  0.7983 -1.6681
 3435TIP3   OH231795   0.519   2.688   4.634 -0.0736  0.2993  0.4856
 3435TIP3    H131796   0.539   2.595   4.624  0.7149  0.6597 -1.4628
 3435TIP3    H231797   0.543   2.709   4.725  0.9528 -1.0833  0.5404
 3436TIP3   OH231798   0.730   0.427  13.939 -0.3854 -0.2838 -0.1538
 3436TIP3    H131799   0.792   0.375  13.887 -0.1598 -0.7407  0.5558
 3436TIP3    H231800   0.693   0.364  14.001 -2.1954 -0.1979 -1.1213
 3437TIP3   OH231801   1.356   6.633  12.147 -0.5272 -0.2647 -0.1365
 3437TIP3    H131802   1.357   6.644  12.051 -0.0322 -0.2720 -0.1348
 3437TIP3    H231803   1.272   6.592  12.165 -1.0955  0.7246 -0.4567
 3438TIP3   OH231804   5.364   2.446   0.812 -0.2694  0.0921  0.5271
 3438TIP3    H131805   5.301   2.394   0.762  0.7486 -0.6003 -0.0379
 3438TIP3    H231806   5.313   2.519   0.845 -0.4537  1.8963 -3.5177
 3439TIP3   OH231807   6.444   2.327  14.873 -0.2819  0.1892 -0.3158
 3439TIP3    H131808   6.368   2.273  14.851 -0.3108  0.2477 -0.3563
 3439TIP3    H231809   6.427   2.412  14.833 -0.8208  0.6258  0.8175
 3440TIP3   OH231810   1.338   3.802   4.876 -0.5068  0.2790  0.4886
 3440TIP3    H131811   1.283   3.833   4.804  0.6310 -0.1431 -0.5806
 3440TIP3    H231812   1.410   3.864   4.881  0.5664 -0.8893 -0.1647
 3441TIP3   OH231813   4.194   2.338   3.109  0.4073 -0.2523 -0.3660
 3441TIP3    H131814   4.169   2.414   3.057 -1.4677 -1.3317 -1.0917
 3441TIP3    H231815   4.148   2.265   3.068  1.1281 -1.5707  1.1282
 3442TIP3   OH231816   5.172   5.939  10.485  0.1487 -0.2440 -0.7843
 3442TIP3    H131817   5.127   5.871  10.435  0.6590  0.9193 -2.8497
 3442TIP3    H231818   5.105   6.005  10.502  0.3831  0.1738 -1.4524
 3443TIP3   OH231819   6.445   3.234   0.581 -0.3312 -0.2801  0.3385
 3443TIP3    H131820   6.507   3.307   0.587  1.0075 -1.3782  0.1223
 3443TIP3    H231821   6.366   3.265   0.625 -0.2440  1.7848 -0.8834
 3444TIP3   OH231822   3.196   1.843   2.954  0.3854 -0.4895  0.1633
 3444TIP3    H131823   3.119   1.899   2.965  0.3728  0.1071 -2.5393
 3444TIP3    H231824   3.178   1.791   2.876  1.3349 -2.7566  1.4016
 3445TIP3   OH231825   2.466   0.401   1.908 -0.2862  0.3772  0.7148
 3445TIP3    H131826   2.380   0.404   1.866  0.1980 -0.4437 -0.3569
 3445TIP3    H231827   2.504   0.487   1.891 -0.7879  0.6588  0.9858
 3446TIP3   OH231828   5.229   6.811  16.350  0.5286  0.0006  0.5601
 3446TIP3    H131829   5.304   6.757  16.325 -0.5009  0.3132 -3.4147
 3446TIP3    H231830   5.161   6.748  16.374  1.1220 -0.3405  1.3598
 3447TIP3   OH231831   5.631   3.115  13.779 -0.4437 -0.4275 -0.3604
 3447TIP3    H131832   5.673   3.070  13.853 -2.1117 -1.4003  0.0048
 3447TIP3    H231833   5.673   3.201  13.778 -0.8768 -0.1241  2.1803
 3448TIP3   OH231834   2.837   1.561  12.548 -0.3194  0.6842  0.2517
 3448TIP3    H131835   2.817   1.631  12.485 -0.2771  1.4444  1.0660
 3448TIP3    H231836   2.913   1.594  12.597  0.4249 -0.4383 -0.1261
 3449TIP3   OH231837   4.737   5.439  17.068  0.2386  0.6653  0.2051
 3449TIP3    H131838   4.724   5.427  17.162 -0.1442  0.3717  0.1215
 3449TIP3    H231839   4.807   5.504  17.061  1.7350 -0.8463  0.7023
 3450TIP3   OH231840   4.628   1.110  16.021  1.1055  0.0128 -0.4576
 3450TIP3    H131841   4.661   1.025  16.052  1.1478 -0.3209 -1.3969
 3450TIP3    H231842   4.623   1.100  15.926 -1.1403  0.2740 -0.3764
 3451TIP3   OH231843   6.529   1.079   1.936 -0.4080  0.4552 -0.1598
 3451TIP3    H131844   6.484   1.104   1.856 -1.9136 -0.9615  0.2252
 3451TIP3    H231845   6.536   1.160   1.986 -5.3890  0.2533  1.1565
 3452TIP3   OH231846   1.614   0.450   0.255  0.5865 -0.4329  0.6665
 3452TIP3    H131847   1.588   0.372   0.206  1.9756 -1.1167  0.9972
 3452TIP3    H231848   1.702   0.471   0.222  0.6504  0.3656  1.3325
 3453TIP3   OH231849   6.143   6.266  17.053 -0.0836 -0.0614 -0.2627
 3453TIP3    H131850   6.205   6.338  17.056 -0.0489 -0.0820 -0.4937
 3453TIP3    H231851   6.057   6.308  17.043 -0.3436  0.0806  2.1325
 3454TIP3   OH231852   1.793   1.434  15.938 -0.5948  0.1325  0.2332
 3454TIP3    H131853   1.810   1.363  16.000  0.0559 -0.0853 -0.1935
 3454TIP3    H231854   1.856   1.502  15.960  0.9277 -0.7013 -1.3830
 3455TIP3   OH231855   1.951   5.258   4.094 -0.6151 -0.3330  0.3213
 3455TIP3    H131856   1.902   5.195   4.041  0.8553 -0.7787 -0.5328
 3455TIP3    H231857   2.004   5.205   4.152 -0.0240  0.1254  0.2096
 3456TIP3   OH231858   6.070   6.581   1.539 -0.1232  0.1962 -0.6600
 3456TIP3    H131859   6.101   6.513   1.480  0.8671 -0.2735  0.3801
 3456TIP3    H231860   5.976   6.589   1.521  0.1480 -0.0308 -2.1824
 3457TIP3   OH231861   2.532   6.432  11.753  0.0692 -0.2733 -0.1747
 3457TIP3    H131862   2.470   6.469  11.815  1.9369  0.4766  1.3046
 3457TIP3    H231863   2.481   6.416  11.674 -2.1187 -0.2549  1.2056
 3458TIP3   OH231864   1.871   6.157  16.504  0.2060 -0.5132 -0.7305
 3458TIP3    H131865   1.788   6.167  16.457 -1.2462 -1.9246  1.4414
 3458TIP3    H231866   1.879   6.238  16.555 -0.7191 -1.1261  0.3937
 3459TIP3   OH231867   4.701   4.136   0.599  0.3836  0.3374 -0.0320
 3459TIP3    H131868   4.652   4.102   0.674  1.6939 -1.7535 -0.0822
 3459TIP3    H231869   4.775   4.076   0.589  1.7143  2.1269 -1.3561
 3460TIP3   OH231870   0.460   2.076  15.228  0.0907 -0.5561 -0.1717
 3460TIP3    H131871   0.409   2.145  15.184  4.5109  0.3799 -4.2079
 3460TIP3    H231872   0.515   2.123  15.290 -1.1605 -1.1709  1.4407
 3461TIP3   OH231873   4.171   6.300   2.181  0.0650 -0.2109 -0.0044
 3461TIP3    H131874   4.164   6.246   2.259  4.9215 -1.7550 -0.5344
 3461TIP3    H231875   4.225   6.375   2.207  1.3694 -0.5126 -1.7458
 3462TIP3   OH231876   6.024   0.076  15.242  0.8789 -1.1764 -0.2226
 3462TIP3    H131877   5.986   0.122  15.316  1.5181 -1.7230  0.4533
 3462TIP3    H231878   5.959   0.085  15.172  1.3132  1.3762 -0.3489
 3463TIP3   OH231879   5.643   4.233  13.745  0.2406  0.3711 -0.4089
 3463TIP3    H131880   5.628   4.325  13.768  0.5803  1.0153 -2.6640
 3463TIP3    H231881   5.734   4.216  13.771  0.8509  1.2959 -1.9043
 3464TIP3   OH231882   3.151   2.868   4.511  0.2450 -0.0564 -0.4655
 3464TIP3    H131883   3.075   2.826   4.469  1.3079 -0.6967 -1.7904
 3464TIP3    H231884   3.213   2.881   4.439  1.6171 -0.0445  0.7120
 3465TIP3   OH231885   5.214   5.826   4.948  0.7364 -0.0205  0.0843
 3465TIP3    H131886   5.242   5.743   4.986  0.2289 -0.2922 -0.1367
 3465TIP3    H231887   5.131   5.846   4.992  2.1048  1.6451  1.9862
 3466TIP3   OH231888   3.892   3.260   1.524  0.0078  0.0838  0.3452
 3466TIP3    H131889   3.858   3.263   1.613 -0.4362 -1.4312  0.2364
 3466TIP3    H231890   3.873   3.172   1.494 -0.1271  0.6883 -1.3736
 3467TIP3   OH231891   4.142   1.898  15.194  1.0711  0.0297  0.1153
 3467TIP3    H131892   4.169   1.853  15.273 -0.1299  0.5111  0.8071
 3467TIP3    H231893   4.050   1.919  15.207  1.1555  1.1671 -0.8993
 3468TIP3   OH231894   3.888   5.661  13.214 -0.2495  0.6037 -0.5478
 3468TIP3    H131895   3.811   5.606  13.197 -0.2775  0.9804 -1.7093
 3468TIP3    H231896   3.902   5.708  13.131 -0.7946  3.0535  0.7102
 3469TIP3   OH231897   6.015   5.937  11.565  0.5876 -0.5336  0.1452
 3469TIP3    H131898   5.947   5.982  11.515 -0.9177 -1.6350  1.1942
 3469TIP3    H231899   6.011   5.975  11.652  2.2368  0.3441 -0.1339
 3470TIP3   OH231900   6.463   1.662  11.246  0.4172 -0.0885  0.0772
 3470TIP3    H131901   6.470   1.567  11.238 -0.4853 -0.0623 -1.2389
 3470TIP3    H231902   6.425   1.676  11.333  0.1796 -0.9459  0.1133
 3471TIP3   OH231903   4.377   3.304   5.207 -0.0000 -0.6439 -0.1399
 3471TIP3    H131904   4.433   3.376   5.238 -1.6051  1.5918 -2.1773
 3471TIP3    H231905   4.435   3.250   5.153  1.1453 -0.6749  1.1033
 3472TIP3   OH231906   2.991   5.894   3.604 -0.0106 -0.2669  0.3117
 3472TIP3    H131907   2.958   5.945   3.679 -1.4989  0.1592 -0.6015
 3472TIP3    H231908   2.956   5.806   3.618  0.4113 -0.4012  0.5429
 3473TIP3   OH231909   2.675   4.757   2.849 -0.3363 -0.3512  0.0663
 3473TIP3    H131910   2.729   4.681   2.827 -1.4173 -0.6958 -1.4846
 3473TIP3    H231911   2.688   4.818   2.777 -2.6892 -0.8301 -0.8342
 3474TIP3   OH231912   1.636   1.332  13.278 -0.1894  0.5058 -0.4820
 3474TIP3    H131913   1.579   1.262  13.249 -1.5840  1.3578  0.1351
 3474TIP3    H231914   1.591   1.412  13.252  1.0981  1.1751 -0.6679
 3475TIP3   OH231915   5.344   1.555   3.370 -0.7513 -0.2789 -0.1085
 3475TIP3    H131916   5.388   1.471   3.387 -2.1570 -1.7790 -3.4195
 3475TIP3    H231917   5.273   1.558   3.434 -1.4883 -2.2812 -0.7810
 3476TIP3   OH231918   0.541   6.201  10.965  0.3174  0.2292 -0.3052
 3476TIP3    H131919   0.465   6.147  10.983  1.2307 -0.9091  0.1737
 3476TIP3    H231920   0.609   6.139  10.939  2.1160  0.8628  2.6590
 3477TIP3   OH231921   6.143   4.244   4.004 -0.5241  0.7219 -0.8511
 3477TIP3    H131922   6.049   4.261   4.010 -0.4831  0.7878 -0.3248
 3477TIP3    H231923   6.150   4.153   3.975 -0.7466  0.9589 -1.6560
 3478TIP3   OH231924   0.223   4.860  14.915 -0.2910  0.2658 -0.0282
 3478TIP3    H131925   0.238   4.766  14.910 -0.7728  0.1243  0.9769
 3478TIP3    H231926   0.147   4.869  14.973 -0.3911  1.2608 -0.3025
 3479TIP3   OH231927   1.150   2.317  15.363 -0.1706  0.5642  0.1379
 3479TIP3    H131928   1.097   2.362  15.298 -0.4112 -0.1112 -0.1389
 3479TIP3    H231929   1.196   2.387  15.409 -1.7890  1.2030  0.8092
 3480TIP3   OH231930   1.847   6.578  11.369 -0.3203  0.6396  0.2743
 3480TIP3    H131931   1.864   6.496  11.323  2.2058  1.2560  0.0414
 3480TIP3    H231932   1.876   6.646  11.309  0.1672  1.5875  1.5482
 3481TIP3   OH231933   5.134   3.666   5.100  0.2416  0.1170 -0.2491
 3481TIP3    H131934   5.115   3.679   5.193  1.5567 -1.7945  0.3093
 3481TIP3    H231935   5.062   3.611   5.068  0.3988 -0.1867 -0.0835
 3482TIP3   OH231936   5.674   2.062  13.734  0.4506 -0.1997  0.1991
 3482TIP3    H131937   5.669   2.135  13.672 -0.1412 -0.4641 -0.0699
 3482TIP3    H231938   5.639   2.098  13.816 -0.4079 -0.3455 -0.0919
 3483TIP3   OH231939   4.471   6.207   5.448  0.0964 -0.6857 -0.7279
 3483TIP3    H131940   4.451   6.182   5.358 -1.4424 -0.1475 -0.5604
 3483TIP3    H231941   4.426   6.141   5.501  1.2999 -1.2159 -0.3471
 3484TIP3   OH231942   1.171   0.573   4.499  0.3752 -0.4743 -0.0972
 3484TIP3    H131943   1.176   0.490   4.546 -0.1923 -0.5661 -0.1905
 3484TIP3    H231944   1.246   0.623   4.531 -0.8415  0.0499  2.0129
 3485TIP3   OH231945   3.753   5.021  15.300 -0.1716 -0.5952 -0.6267
 3485TIP3    H131946   3.728   5.063  15.382  1.5259 -0.6559 -0.0487
 3485TIP3    H231947   3.847   5.003  15.310 -0.8460 -4.7056 -0.7778
 3486TIP3   OH231948   2.083   1.884   0.924 -0.1846  0.7814  0.1682
 3486TIP3    H131949   2.071   1.955   0.987 -0.4518  2.0810 -1.3265
 3486TIP3    H231950   2.122   1.813   0.975  2.9194  3.0192  1.0320
 3487TIP3   OH231951   0.271   5.429   1.526  0.0881  0.0017  0.1801
 3487TIP3    H131952   0.269   5.353   1.468  1.6935  0.0391  0.0333
 3487TIP3    H231953   0.179   5.454   1.538 -0.4697 -2.1658  0.5300
 3488TIP3   OH231954   0.682   2.528   6.296 -0.3670 -0.3755 -0.1874
 3488TIP3    H131955   0.659   2.612   6.256 -0.8993 -0.9699 -1.1637
 3488TIP3    H231956   0.775   2.517   6.278 -0.5406 -0.5075 -1.0606
 3489TIP3   OH231957   5.033   0.316   2.410  0.4417 -0.4676  0.4198
 3489TIP3    H131958   5.087   0.376   2.359 -1.9130  1.5882  0.2773
 3489TIP3    H231959   5.074   0.316   2.497  0.8438  0.8328  0.2444
 3490TIP3   OH231960   4.768   4.440  12.480  0.2280 -0.2104  0.5740
 3490TIP3    H131961   4.752   4.399  12.564 -0.6193 -0.5848  0.2404
 3490TIP3    H231962   4.705   4.399  12.421  1.2975 -0.4686 -0.4046
 3491TIP3   OH231963   0.937   6.029   1.093 -0.4473  0.0340  0.0567
 3491TIP3    H131964   0.872   6.099   1.103 -1.3185 -1.0725  2.3639
 3491TIP3    H231965   0.992   6.037   1.170 -0.9754 -2.2523  0.6953
 3492TIP3   OH231966   4.463   5.122  14.601  0.0573  0.3812 -0.2110
 3492TIP3    H131967   4.528   5.122  14.530 -0.0826  2.2838 -0.3755
 3492TIP3    H231968   4.473   5.208  14.642  0.1052 -0.6819  2.0721
 3493TIP3   OH231969   1.311   2.837  11.789 -0.3746  0.2246  0.2595
 3493TIP3    H131970   1.230   2.887  11.773  0.4793  2.0188  1.3898
 3493TIP3    H231971   1.319   2.835  11.884  1.5849  1.1646  0.1202
 3494TIP3   OH231972   2.699   5.464  13.664  0.6058  0.1454  0.5032
 3494TIP3    H131973   2.656   5.497  13.584  3.3467  0.5362 -0.8673
 3494TIP3    H231974   2.633   5.408  13.705 -1.1636  0.6103 -1.6070
 3495TIP3   OH231975   0.760   3.098   5.685 -0.7126 -0.0551 -0.3917
 3495TIP3    H131976   0.749   3.177   5.631  0.1050  1.1605  1.1823
 3495TIP3    H231977   0.790   3.031   5.624  1.9258  1.7638 -1.1631
 3496TIP3   OH231978   0.334   4.493   2.772  0.1174 -0.0372 -0.0684
 3496TIP3    H131979   0.341   4.420   2.710  1.0069  0.0734 -0.1059
 3496TIP3    H231980   0.307   4.451   2.854 -2.9490  0.0487 -0.9667
 3497TIP3   OH231981   1.424   0.379   1.149 -0.1292 -0.7715 -0.3298
 3497TIP3    H131982   1.502   0.349   1.195  0.8299 -0.5389 -1.7576
 3497TIP3    H231983   1.357   0.314   1.169 -0.0678 -0.0527  2.3139
 3498TIP3   OH231984   2.804   1.948   5.527 -0.4934 -0.4007  0.3908
 3498TIP3    H131985   2.724   2.001   5.531 -0.9604 -1.1001  0.3017
 3498TIP3    H231986   2.789   1.876   5.588  0.3436 -0.1648  0.8799
 3499TIP3   OH231987   2.778   5.737  11.937 -0.3258  0.3281  0.0494
 3499TIP3    H131988   2.831   5.697  11.868 -0.3495 -0.0892  0.2677
 3499TIP3    H231989   2.770   5.829  11.912 -0.6482  0.1047 -0.7037
 3500TIP3   OH231990   3.923   1.483   0.799 -0.5769 -0.3340  0.7613
 3500TIP3    H131991   3.952   1.420   0.734  1.8294  0.8849  0.5784
 3500TIP3    H231992   3.886   1.430   0.869  1.1454 -1.9669  0.4981
 3501TIP3   OH231993   4.281   4.823  14.869 -0.0406  0.0452 -0.2609
 3501TIP3    H131994   4.263   4.905  14.822  0.7410  1.4602  1.8285
 3501TIP3    H231995   4.201   4.807  14.918  0.0551 -0.0722 -0.1452
 3502TIP3   OH231996   6.408   0.971  13.348  0.3875 -0.4016  0.5576
 3502TIP3    H131997   6.397   1.009  13.435  2.1410 -0.8119  0.9746
 3502TIP3    H231998   6.321   0.939  13.324 -0.2786  0.4564  1.8024
 3503TIP3   OH231999   3.952   4.829  16.517  0.3498  0.3171  0.0536
 3503TIP3    H132000   3.858   4.815  16.521  0.2788  1.0456  1.1891
 3503TIP3    H232001   3.964   4.906  16.462  0.3208 -0.0333 -0.4512
 3504TIP3   OH232002   2.654   2.472  10.190 -0.2557 -0.0028 -0.2599
 3504TIP3    H132003   2.635   2.503  10.278  2.2695  0.3885  0.1731
 3504TIP3    H232004   2.641   2.378  10.194 -0.2107  0.0209  0.5175
 3505TIP3   OH232005   1.023   2.865  14.122 -0.3303  0.1258  0.1532
 3505TIP3    H132006   1.039   2.880  14.029  0.2016 -1.4954 -0.0408
 3505TIP3    H232007   1.083   2.924  14.166  0.8821 -0.5461 -0.5576
 3506TIP3   OH232008   1.533   0.500   5.182  0.1891 -0.0610  0.3786
 3506TIP3    H132009   1.532   0.404   5.186 -0.7128 -0.1164 -0.9143
 3506TIP3    H232010   1.442   0.526   5.202 -0.0101  0.4354 -1.1603
 3507TIP3   OH232011   5.356   1.391  16.447  0.3501 -0.5179  0.5116
 3507TIP3    H132012   5.428   1.441  16.409 -0.9142  0.3727 -0.7529
 3507TIP3    H232013   5.289   1.390  16.379 -2.1652  1.4714  2.8594
 3508TIP3   OH232014   1.596   2.022  12.018  0.3227 -0.5719 -0.2454
 3508TIP3    H132015   1.685   2.003  12.048  0.8249  0.9372 -0.7016
 3508TIP3    H232016   1.573   2.103  12.063  0.8445  1.3724 -3.3229
 3509TIP3   OH232017   6.818   2.598   5.641  0.0906 -0.1670 -0.4253
 3509TIP3    H132018   6.867   2.679   5.628 -0.0053 -0.0444 -0.0054
 3509TIP3    H232019   6.761   2.592   5.564  2.0033 -1.1973 -1.8216
 3510TIP3   OH232020   2.954   2.539  17.258 -0.7238 -0.3014  0.2043
 3510TIP3    H132021   2.971   2.449  17.230 -1.0357  0.1341 -1.4640
 3510TIP3    H232022   3.035   2.586  17.239 -0.9880  0.0353 -0.0862
 3511TIP3   OH232023   4.632   3.857   2.008  0.2025  0.1369 -0.3901
 3511TIP3    H132024   4.712   3.911   2.006  0.3383 -0.0920 -1.4438
 3511TIP3    H232025   4.658   3.776   1.964 -0.8884  0.4601 -1.6708
 3512TIP3   OH232026   5.601   6.545  15.984  0.3771 -0.6804 -0.5411
 3512TIP3    H132027   5.585   6.611  15.917 -0.0594 -0.3921 -0.1486
 3512TIP3    H232028   5.536   6.561  16.051  1.1232 -0.6643  0.1873
 3513TIP3   OH232029   2.528   5.581   0.185  0.3327  0.1623 -0.0001
 3513TIP3    H132030   2.480   5.625   0.114 -1.1701 -0.2601  0.7355
 3513TIP3    H232031   2.484   5.610   0.265  1.0901 -0.5292  0.6680
 3514TIP3   OH232032   0.376   2.970  11.045  0.2238  0.6884 -0.1702
 3514TIP3    H132033   0.467   2.970  11.073  0.8476  0.1354 -2.0891
 3514TIP3    H232034   0.364   2.885  11.001 -0.5827  1.6244 -1.8226
 3515TIP3   OH232035   2.210   2.101  16.031  0.4530  0.0940  0.1026
 3515TIP3    H132036   2.138   2.040  16.017  0.4677 -0.0724  0.7461
 3515TIP3    H232037   2.247   2.075  16.116  0.6081  0.8429  0.2634
 3516TIP3   OH232038   3.387   1.960   1.673  0.2213  0.1150 -0.4125
 3516TIP3    H132039   3.430   1.947   1.758  1.8426  2.0405 -0.8886
 3516TIP3    H232040   3.449   1.922   1.609 -1.4476 -2.2392 -0.6906
 3517TIP3   OH232041   5.818   6.190  11.602  0.4401  0.4728  0.0102
 3517TIP3    H132042   5.852   6.125  11.663 -2.2345  0.0216  1.0971
 3517TIP3    H232043   5.796   6.141  11.523 -1.5218  0.0297  0.8096
 3518TIP3   OH232044   4.925   1.864   4.983 -0.1112 -1.0958 -0.4291
 3518TIP3    H132045   4.853   1.862   5.046 -1.6444  0.0571 -2.0932
 3518TIP3    H232046   4.939   1.957   4.966  2.6917 -1.2471  0.8624
 3519TIP3   OH232047   1.493   4.739   5.849 -0.2851 -0.0700 -0.1774
 3519TIP3    H132048   1.401   4.726   5.826 -0.6748 -0.5983  1.6104
 3519TIP3    H232049   1.528   4.791   5.777 -1.6077 -1.1289 -1.6265
 3520TIP3   OH232050   6.392   5.479  14.829 -0.9082 -0.5667  0.1420
 3520TIP3    H132051   6.309   5.443  14.861 -0.0125 -1.6348  1.2955
 3520TIP3    H232052   6.459   5.419  14.863  0.3642  0.4713 -0.5044
 3521TIP3   OH232053   5.768   5.630  14.967  0.3046 -0.0262 -0.0091
 3521TIP3    H132054   5.723   5.699  15.016  1.2912  0.0375  0.8259
 3521TIP3    H232055   5.855   5.625  15.007  0.1666 -1.9321  0.1046
 3522TIP3   OH232056   0.561   4.877  15.504 -0.5044  0.2148 -0.4931
 3522TIP3    H132057   0.485   4.919  15.464  0.1375  1.0890 -0.8072
 3522TIP3    H232058   0.586   4.809  15.442 -2.0329 -1.2102  0.3872
 3523TIP3   OH232059   6.764   4.137   4.201 -1.0003 -0.2006 -0.3322
 3523TIP3    H132060   6.767   4.071   4.132  0.1077 -0.9347  0.3887
 3523TIP3    H232061   6.674   4.169   4.201 -1.6195 -1.8861 -0.5496
 3524TIP3   OH232062   1.286   2.102  14.223  0.0638  0.2078  0.1150
 3524TIP3    H132063   1.209   2.101  14.167  0.0806  0.2885  0.0905
 3524TIP3    H232064   1.335   2.180  14.196  0.5819 -0.3069 -0.4363
 3525TIP3   OH232065   4.207   2.895  14.115  0.4665 -0.0337 -0.0637
 3525TIP3    H132066   4.204   2.980  14.159 -1.7286 -0.9833  1.7339
 3525TIP3    H232067   4.126   2.851  14.143  1.6808 -2.8026 -0.7543
 3526TIP3   OH232068   4.552   6.798   4.256 -0.7973  0.1674 -0.4416
 3526TIP3    H132069   4.499   6.785   4.177 -2.2778 -2.2697  0.9221
 3526TIP3    H232070   4.604   6.718   4.263 -0.9498  0.2205  1.2845
 3527TIP3   OH232071   3.278   4.496   1.505 -0.4170 -0.3855 -0.0267
 3527TIP3    H132072   3.325   4.481   1.587 -1.2544 -2.8605  0.0508
 3527TIP3    H232073   3.186   4.483   1.528 -0.7603  0.1964 -1.0792
 3528TIP3   OH232074   5.484   4.261  13.490 -0.2576  0.2639  0.4422
 3528TIP3    H132075   5.565   4.299  13.455 -1.1323  0.7405 -1.1211
 3528TIP3    H232076   5.513   4.200  13.557  1.5580 -1.2213 -1.6161
 3529TIP3   OH232077   0.400   6.430  15.616 -0.1112  0.0963 -0.3056
 3529TIP3    H132078   0.386   6.353  15.562 -1.1787  1.7369 -2.4625
 3529TIP3    H232079   0.493   6.427  15.638  0.5919 -0.1518 -3.0723
 3530TIP3   OH232080   0.298   4.095  16.738  0.2565 -0.3573  0.1248
 3530TIP3    H132081   0.205   4.100  16.717  0.1395  0.7364  0.8725
 3530TIP3    H232082   0.342   4.101  16.653 -0.2749  2.0099 -0.0033
 3531TIP3   OH232083   5.682   1.931  12.972 -0.5680 -0.2088 -0.0579
 3531TIP3    H132084   5.613   1.985  12.933 -0.6066  1.3994  2.0829
 3531TIP3    H232085   5.639   1.847  12.990 -1.8103  0.5481  0.6439
 3532TIP3   OH232086   2.543   5.720   4.869 -0.2056  0.2475  0.5457
 3532TIP3    H132087   2.550   5.814   4.852 -0.8842  0.1504 -0.2496
 3532TIP3    H232088   2.518   5.715   4.962 -0.8724  0.8659  0.4029
 3533TIP3   OH232089   6.433   6.814   1.452 -0.4067 -0.0382 -0.3578
 3533TIP3    H132090   6.448   6.724   1.480  0.3793 -0.1913 -1.2431
 3533TIP3    H232091   6.347   6.837   1.489  0.3527 -0.4035  1.6983
 3534TIP3   OH232092   1.971   6.615   5.957 -0.1742 -0.1869 -0.4048
 3534TIP3    H132093   2.002   6.636   6.046  0.6294  2.1071 -1.1755
 3534TIP3    H232094   2.044   6.571   5.916  0.0383  0.1772 -0.4221
 3535TIP3   OH232095   2.479   4.569  13.530 -0.1852 -0.4386  0.3863
 3535TIP3    H132096   2.487   4.658  13.497  0.7389 -0.5527  0.3012
 3535TIP3    H232097   2.429   4.523  13.463  1.6160 -0.6520 -0.8495
 3536TIP3   OH232098   6.452   5.798   4.863  0.2410 -0.3196 -0.2881
 3536TIP3    H132099   6.379   5.833   4.812 -1.2865 -1.9141  0.7433
 3536TIP3    H232100   6.488   5.728   4.810  0.4254 -0.1452 -0.3924
 3537TIP3   OH232101   5.831   5.769  16.117 -0.0644 -0.3513  0.4187
 3537TIP3    H132102   5.817   5.682  16.153  3.7731 -0.7337  1.2243
 3537TIP3    H232103   5.865   5.820  16.191  0.7804  0.9114 -0.8123
 3538TIP3   OH232104   3.092   2.270   4.680 -0.3896  0.1019  0.0443
 3538TIP3    H132105   3.159   2.336   4.663 -1.8431  1.8216  0.8871
 3538TIP3    H232106   3.114   2.198   4.620  1.5618  1.0695 -0.4527
 3539TIP3   OH232107   0.384   2.828  13.370  0.5591  0.7104 -0.3038
 3539TIP3    H132108   0.412   2.742  13.403  0.3988  1.1440  0.9629
 3539TIP3    H232109   0.294   2.814  13.342 -0.2619  1.0295  2.0875
 3540TIP3   OH232110   3.803   0.077   0.062 -0.6496  0.3155  0.6195
 3540TIP3    H132111   3.844   0.046   0.142  1.8093  0.1945 -0.6465
 3540TIP3    H232112   3.783  -0.003   0.013 -1.0994  0.4349  0.6066
 3541TIP3   OH232113   3.315   6.373  13.814  0.0819 -0.1956 -0.4962
 3541TIP3    H132114   3.222   6.383  13.793 -0.1265 -0.3877  0.3087
 3541TIP3    H232115   3.326   6.280  13.832  0.9069 -0.5694 -2.7700
 3542TIP3   OH232116   0.097   1.303  12.151  0.1182  0.1667  0.2155
 3542TIP3    H132117   0.134   1.262  12.229  1.9754  1.3172 -0.0250
 3542TIP3    H232118   0.109   1.238  12.081 -0.0261 -0.2000  0.5308
 3543TIP3   OH232119   0.206   5.343   4.405 -0.0485 -0.1625 -0.1689
 3543TIP3    H132120   0.284   5.355   4.350  0.0164  2.1008  0.3449
 3543TIP3    H232121   0.133   5.342   4.343  0.1163  1.3016 -0.4163
 3544TIP3   OH232122   1.334   4.365   2.288 -0.1940 -0.3833 -0.1076
 3544TIP3    H132123   1.423   4.399   2.284  0.1758 -1.4257 -1.2159
 3544TIP3    H232124   1.299   4.377   2.200 -0.9889 -0.4249  0.1904
 3545TIP3   OH232125   1.616   0.127  13.165 -0.1272  0.1389  0.0965
 3545TIP3    H132126   1.611   0.122  13.260  0.9983 -0.2753  0.1405
 3545TIP3    H232127   1.533   0.089  13.135 -1.3597  2.1127  0.9260
 3546TIP3   OH232128   4.352   1.073  14.931 -0.2067  0.0126  0.4324
 3546TIP3    H132129   4.326   1.097  15.020 -0.4218 -2.6326  1.1008
 3546TIP3    H232130   4.433   1.023  14.942 -0.2914 -0.4256 -0.8531
 3547TIP3   OH232131   1.168   4.123  13.292  0.0315 -0.3280 -0.8581
 3547TIP3    H132132   1.114   4.051  13.259  0.8012 -1.5751  0.5303
 3547TIP3    H232133   1.239   4.080  13.340 -0.6008  1.3709  1.7355
 3548TIP3   OH232134   6.004   2.219   3.182  0.1495 -0.2987  0.4713
 3548TIP3    H132135   6.040   2.307   3.169  0.0127 -0.4881 -1.3437
 3548TIP3    H232136   5.909   2.233   3.182  0.1279 -0.4318  0.1962
 3549TIP3   OH232137   3.925   2.824  15.127 -0.0918  0.0358  0.2696
 3549TIP3    H132138   3.859   2.876  15.080  0.2976  2.1913  2.0340
 3549TIP3    H232139   3.896   2.734  15.116 -0.6391  0.5540 -3.1314
 3550TIP3   OH232140   0.816   5.382   2.327 -0.1304 -0.0441 -0.0819
 3550TIP3    H132141   0.802   5.476   2.329  0.2480  0.0437 -1.0147
 3550TIP3    H232142   0.729   5.344   2.321 -0.2474  0.2891 -0.5754
 3551TIP3   OH232143   4.342   1.537  12.158 -0.4901 -0.4471 -0.4211
 3551TIP3    H132144   4.416   1.547  12.218  0.4082 -1.7656 -1.2745
 3551TIP3    H232145   4.377   1.484  12.086 -1.7369  0.5104 -1.7725
 3552TIP3   OH232146   6.797   6.797  11.475 -0.3914  0.3306  0.0388
 3552TIP3    H132147   6.777   6.724  11.533  1.0812  1.1814  1.6526
 3552TIP3    H232148   6.892   6.806  11.479 -0.2250  0.3095 -2.6513
 3553TIP3   OH232149   0.749   4.450  14.621  0.0468  0.2242 -0.1031
 3553TIP3    H132150   0.816   4.403  14.671 -1.0432  0.0981  1.2972
 3553TIP3    H232151   0.667   4.407  14.645 -0.6161  0.8218 -1.2550
 3554TIP3   OH232152   4.002   3.209  16.657  0.5369  0.1390  0.3290
 3554TIP3    H132153   4.004   3.259  16.738  1.4325  0.3386  0.1895
 3554TIP3    H232154   4.091   3.177  16.646  0.2799 -0.3862 -0.2704
 3555TIP3   OH232155   0.337   0.539  15.459  0.9634  0.0074  0.3528
 3555TIP3    H132156   0.315   0.615  15.513  1.5240 -0.7850  1.7296
 3555TIP3    H232157   0.375   0.476  15.520 -0.9817 -2.0409 -0.4365
 3556TIP3   OH232158   5.257   6.189   2.677  0.2563 -0.3418  0.2598
 3556TIP3    H132159   5.247   6.123   2.745 -1.5037  0.3766  0.7158
 3556TIP3    H232160   5.184   6.173   2.617  1.5205 -0.6725 -1.2348
 3557TIP3   OH232161   0.819   0.572   5.064  0.1503  1.2554 -0.3954
 3557TIP3    H132162   0.816   0.488   5.110 -0.4657  0.3630 -2.0158
 3557TIP3    H232163   0.854   0.550   4.977 -0.9416  2.5131 -1.1650
 3558TIP3   OH232164   3.868   5.927  11.716  0.3985 -0.1697  0.4425
 3558TIP3    H132165   3.817   5.939  11.796  2.3000 -1.1941  1.8583
 3558TIP3    H232166   3.946   5.981  11.730  1.1197 -0.9858 -0.3654
 3559TIP3   OH232167   2.947   3.438  11.108 -0.2074  0.1531  0.3391
 3559TIP3    H132168   2.886   3.510  11.092  0.0069  0.1516 -0.5508
 3559TIP3    H232169   2.943   3.385  11.028  1.6388  0.6550 -0.1026
 3560TIP3   OH232170   0.743   1.839   0.260  0.2397 -0.0203  0.4798
 3560TIP3    H132171   0.693   1.765   0.293  1.1120 -0.3030  1.1936
 3560TIP3    H232172   0.828   1.832   0.304  0.8291  0.5702 -0.5535
 3561TIP3   OH232173   4.258   4.077   4.165 -0.1125 -0.3976 -0.0905
 3561TIP3    H132174   4.246   3.982   4.161  1.5850 -0.6330 -0.1825
 3561TIP3    H232175   4.347   4.091   4.132 -0.4250  1.2445 -0.2676
 3562TIP3   OH232176   5.103   6.023   1.548  0.2756  0.2702  0.7497
 3562TIP3    H132177   5.052   5.983   1.478  1.7317  0.3217 -0.3747
 3562TIP3    H232178   5.147   5.949   1.591  1.4460  0.4732 -0.0853
 3563TIP3   OH232179   2.494   5.000   1.148 -0.4765  0.0292 -0.0706
 3563TIP3    H132180   2.547   4.982   1.070 -1.0713  1.6227 -0.8584
 3563TIP3    H232181   2.409   5.027   1.113 -1.1007 -0.3285  1.1551
 3564TIP3   OH232182   6.728   5.774   2.924 -0.4055 -0.2406  0.4615
 3564TIP3    H132183   6.812   5.809   2.892 -2.5706  3.0645 -1.9052
 3564TIP3    H232184   6.718   5.812   3.011 -0.4437  1.1453 -0.1380
 3565TIP3   OH232185   6.391   0.127  16.048 -0.3854 -0.0691  0.5726
 3565TIP3    H132186   6.337   0.207  16.049  1.1022  0.9411  1.4698
 3565TIP3    H232187   6.444   0.135  15.969 -0.6651 -0.4714  0.3412
 3566TIP3   OH232188   4.512   3.622  12.615  0.6383 -0.0898  0.3532
 3566TIP3    H132189   4.545   3.538  12.649  2.0151  0.0514 -0.5585
 3566TIP3    H232190   4.591   3.676  12.607 -0.1885  1.1490  0.5288
 3567TIP3   OH232191   4.024   4.871  13.595  0.2070  0.2607  0.4449
 3567TIP3    H132192   3.973   4.821  13.532  0.4428 -0.1785  0.5949
 3567TIP3    H232193   4.112   4.875  13.557  0.0946  0.9188  0.2388
 3568TIP3   OH232194   5.836   4.272   0.824  0.6026 -0.5970  0.3417
 3568TIP3    H132195   5.795   4.188   0.801 -0.1156 -0.1789  0.0674
 3568TIP3    H232196   5.791   4.300   0.903  0.6140 -0.3178  0.2507
 3569TIP3   OH232197   5.303   4.059  15.395  0.8179  0.3361  0.3065
 3569TIP3    H132198   5.298   3.964  15.397 -2.8167  0.4284  0.1018
 3569TIP3    H232199   5.307   4.081  15.302  0.4191  0.3895  0.2993
 3570TIP3   OH232200   6.477   1.241  16.549  0.3263  0.3776 -0.1831
 3570TIP3    H132201   6.444   1.183  16.618  1.9437 -2.7228 -1.8951
 3570TIP3    H232202   6.529   1.307  16.596  0.3455 -0.8971  1.6643
 3571TIP3   OH232203   1.897   4.537   1.091 -0.3934  0.6633 -0.5995
 3571TIP3    H132204   1.951   4.458   1.087 -0.7406  0.4327 -0.7258
 3571TIP3    H232205   1.944   4.601   1.036  0.2476  0.7672  0.0668
 3572TIP3   OH232206   6.402   2.152   4.772  0.8789  0.2586 -0.3388
 3572TIP3    H132207   6.404   2.057   4.781  0.2327  0.2575 -0.1967
 3572TIP3    H232208   6.459   2.183   4.842 -2.2684  0.1448  2.4159
 3573TIP3   OH232209   1.121   2.567  15.103 -0.3003 -0.2478  0.1415
 3573TIP3    H132210   1.117   2.609  15.189 -0.1919 -0.9806  0.5137
 3573TIP3    H232211   1.113   2.473  15.122  1.1211 -0.5083 -0.5353
 3574TIP3   OH232212   1.581   3.213   0.257  0.4003  0.2173  0.0136
 3574TIP3    H132213   1.596   3.308   0.255 -1.6613  0.5560 -1.5840
 3574TIP3    H232214   1.517   3.200   0.327  1.3671 -0.1262  0.8468
 3575TIP3   OH232215   4.548   0.886  14.812  0.2390 -0.2826 -0.4958
 3575TIP3    H132216   4.469   0.844  14.846  0.3618 -0.0471  0.0732
 3575TIP3    H232217   4.545   0.869  14.718 -0.6368 -0.0300 -0.5137
 3576TIP3   OH232218   2.195   4.362  13.791 -0.6147 -0.0358 -0.2252
 3576TIP3    H132219   2.270   4.306  13.808 -0.6102  0.0898  0.1673
 3576TIP3    H232220   2.187   4.417  13.869 -0.5150  0.6275 -0.6739
 3577TIP3   OH232221   4.634   3.503  15.215  0.3549  0.1475 -0.3083
 3577TIP3    H132222   4.568   3.434  15.208 -0.2838  0.9306 -2.2466
 3577TIP3    H232223   4.693   3.473  15.285 -1.4679 -1.0350  0.7556
 3578TIP3   OH232224   6.813   1.507   2.303 -0.0020  0.0629  0.0166
 3578TIP3    H132225   6.867   1.434   2.272 -0.3368 -0.5174  0.7699
 3578TIP3    H232226   6.829   1.510   2.398 -1.3042 -0.1526  0.2606
 3579TIP3   OH232227   6.337   2.673  15.705 -0.2146  0.4944 -0.4856
 3579TIP3    H132228   6.389   2.603  15.745  1.5677  1.0553 -1.7312
 3579TIP3    H232229   6.400   2.720  15.649 -1.6621  2.3343 -0.6025
 3580TIP3   OH232230   0.962   5.205   2.830  0.5851 -0.0111  0.3945
 3580TIP3    H132231   0.881   5.162   2.858  1.3668 -0.7626  1.5540
 3580TIP3    H232232   0.948   5.226   2.738 -1.1942  0.4919  0.7669
 3581TIP3   OH232233   4.683   2.497   1.797 -0.5443  0.0449 -0.3113
 3581TIP3    H132234   4.678   2.407   1.831 -1.3055  0.2467  0.1150
 3581TIP3    H232235   4.737   2.543   1.860  2.0164 -0.7229 -1.8715
 3582TIP3   OH232236   4.914   5.815   4.798  0.1856 -0.4291 -0.2441
 3582TIP3    H132237   4.909   5.850   4.887 -0.2444  1.0559 -0.8396
 3582TIP3    H232238   4.939   5.723   4.810  0.5315 -0.1401  1.3808
 3583TIP3   OH232239   2.517   5.593   0.561 -0.1369  0.4713 -0.0619
 3583TIP3    H132240   2.612   5.579   0.567 -0.4000 -1.0014  0.8379
 3583TIP3    H232241   2.496   5.652   0.634 -0.0047  0.3846  0.0444
 3584TIP3   OH232242   3.088   2.899  14.704  0.5269 -0.4013  0.1547
 3584TIP3    H132243   3.074   2.961  14.632  0.3024 -0.5371  0.0820
 3584TIP3    H232244   3.014   2.914  14.764  0.2631 -0.8645 -0.0521
 3585TIP3   OH232245   2.285   4.684   5.724  0.2109 -0.5698 -0.3853
 3585TIP3    H132246   2.379   4.680   5.736  0.4998  0.6193 -2.1048
 3585TIP3    H232247   2.268   4.772   5.692 -1.5519 -0.5809  0.4333
 3586TIP3   OH232248   1.376   2.588  16.779  0.5373 -0.1547 -0.3566
 3586TIP3    H132249   1.392   2.504  16.821  1.4778  1.0732  1.8168
 3586TIP3    H232250   1.283   2.604  16.791  0.7752  0.1327  1.2308
 3587TIP3   OH232251   4.266   4.591  13.577 -0.5715 -0.1148  0.2220
 3587TIP3    H132252   4.197   4.608  13.513  0.7216 -1.8454 -1.6953
 3587TIP3    H232253   4.347   4.621  13.534  0.0809  0.5519  1.8590
 3588TIP3   OH232254   0.569   1.952   5.802  0.3714  0.0479  0.4581
 3588TIP3    H132255   0.591   2.017   5.736 -0.3802  0.3764  0.5271
 3588TIP3    H232256   0.547   2.003   5.880 -1.0709 -0.2488  0.2598
 3589TIP3   OH232257   5.437   4.498  16.661  0.1841  0.5362 -0.1547
 3589TIP3    H132258   5.513   4.466  16.612  0.7037  1.0429  0.3164
 3589TIP3    H232259   5.444   4.455  16.746 -0.5503 -0.1023 -0.4082
 3590TIP3   OH232260   0.515   3.145   0.892 -0.4148  0.0291  0.4614
 3590TIP3    H132261   0.534   3.070   0.950  0.5876 -0.3176 -0.3098
 3590TIP3    H232262   0.580   3.138   0.822  0.4659  2.3293  1.0202
 3591TIP3   OH232263   1.933   6.150  15.547  0.7013 -0.2624 -0.2809
 3591TIP3    H132264   1.970   6.194  15.470 -0.0349  0.2922 -0.3309
 3591TIP3    H232265   1.941   6.214  15.618  0.6317 -0.4615 -0.0936
 3592TIP3   OH232266   2.094   0.585   6.556 -0.2747  0.2793 -0.0773
 3592TIP3    H132267   2.054   0.668   6.531  1.1433  0.8447 -0.5252
 3592TIP3    H232268   2.180   0.586   6.513  0.1886 -0.9339  0.7999
 3593TIP3   OH232269   5.390   0.326  16.085  0.7052  0.3507 -0.0193
 3593TIP3    H132270   5.334   0.361  16.016 -0.0056  0.4795  0.6149
 3593TIP3    H232271   5.413   0.403  16.138  0.4548  0.1059  0.4436
 3594TIP3   OH232272   4.676   0.752  15.206 -0.3345 -0.5405  0.0934
 3594TIP3    H132273   4.702   0.661  15.193  2.3800 -0.0700  1.7701
 3594TIP3    H232274   4.712   0.798  15.130 -0.1349 -0.6044  0.1485
 3595TIP3   OH232275   3.233   3.521  16.949 -0.3706  0.0834 -0.2196
 3595TIP3    H132276   3.316   3.500  16.905  1.7916  1.4498  2.9793
 3595TIP3    H232277   3.206   3.604  16.912  1.3308  1.1276  0.8106
 3596TIP3   OH232278   3.243   1.056   5.488 -0.4959  0.3759 -0.0163
 3596TIP3    H132279   3.182   1.059   5.561 -0.4191  1.8508  0.0169
 3596TIP3    H232280   3.207   0.991   5.428 -0.5425 -0.8586  1.3484
 3597TIP3   OH232281   0.324   5.287  12.044  0.4649 -0.5849 -0.1663
 3597TIP3    H132282   0.243   5.263  12.089 -0.3221 -0.3050 -1.4161
 3597TIP3    H232283   0.300   5.362  11.990  1.4407 -0.7872 -0.8856
 3598TIP3   OH232284   4.191   1.201   2.882 -0.3277  0.1456 -0.2117
 3598TIP3    H132285   4.191   1.128   2.820 -2.3915 -0.6127  0.6448
 3598TIP3    H232286   4.132   1.173   2.952 -1.2842  2.7004  0.0497
 3599TIP3   OH232287   5.377   0.581   3.887  0.9080 -0.3768 -0.5077
 3599TIP3    H132288   5.288   0.578   3.851  2.3644 -1.1743 -4.2839
 3599TIP3    H232289   5.429   0.624   3.819  2.9853  2.4328  2.7313
 3600TIP3   OH232290   2.892   4.742  16.212  0.0258 -0.5875  0.2352
 3600TIP3    H132291   2.839   4.669  16.242 -1.1461 -0.1724 -0.7751
 3600TIP3    H232292   2.833   4.817  16.216  0.2587 -0.2818 -1.7791
 3601TIP3   OH232293   6.405   6.710   0.372  0.0434 -0.3053 -0.5043
 3601TIP3    H132294   6.346   6.709   0.447  0.5053  0.4654 -0.1175
 3601TIP3    H232295   6.375   6.784   0.319 -1.0775 -1.6264 -1.7430
 3602TIP3   OH232296   6.744   2.649   6.438  0.5556 -0.4229 -0.2021
 3602TIP3    H132297   6.650   2.656   6.422  0.4980 -3.0895 -1.3648
 3602TIP3    H232298   6.758   2.695   6.520 -1.8878 -0.6286  0.3681
 3603TIP3   OH232299   5.461   1.976  12.622 -0.4760  0.1203 -0.1324
 3603TIP3    H132300   5.414   1.959  12.540  2.6892 -0.8019 -1.8501
 3603TIP3    H232301   5.546   1.934  12.609  0.7545  1.5543  2.9422
 3604TIP3   OH232302   1.118   4.719   4.253  0.4488 -0.0450 -0.0461
 3604TIP3    H132303   1.183   4.720   4.183  1.0069  0.3405  0.4741
 3604TIP3    H232304   1.114   4.627   4.281 -0.5065 -0.3892 -1.2497
 3605TIP3   OH232305   4.127   3.520   0.903  0.3143 -1.1575  0.4684
 3605TIP3    H132306   4.051   3.468   0.927 -1.3090  0.0700 -1.7994
 3605TIP3    H232307   4.120   3.600   0.955 -1.2473 -0.0437 -1.4055
 3606TIP3   OH232308   0.284   4.612  12.249 -0.0695  0.0375  0.5204
 3606TIP3    H132309   0.323   4.689  12.290 -0.5222 -0.2372  1.4676
 3606TIP3    H232310   0.202   4.598  12.296 -2.3880  1.8372 -2.7565
 3607TIP3   OH232311   4.704   3.662   4.251  0.2687  0.2018 -0.0510
 3607TIP3    H132312   4.770   3.593   4.261 -1.5752 -1.6355 -0.1202
 3607TIP3    H232313   4.665   3.671   4.337 -0.8683 -0.2826 -0.5055
 3608TIP3   OH232314   4.391   4.106   5.945 -0.5608 -0.0404 -0.2194
 3608TIP3    H132315   4.469   4.094   5.999 -0.7369 -0.0705  0.0275
 3608TIP3    H232316   4.341   4.026   5.958 -0.9121  0.2282  0.0773
 3609TIP3   OH232317   6.234   5.536   6.498 -0.4048 -0.3579 -0.5445
 3609TIP3    H132318   6.321   5.577   6.495 -0.3186 -0.5612 -0.9038
 3609TIP3    H232319   6.246   5.452   6.454 -0.6209 -0.6992  0.0510
 3610TIP3   OH232320   4.547   5.659  12.898  0.0484  0.2201 -0.0108
 3610TIP3    H132321   4.479   5.591  12.897 -2.1598  2.3187 -1.6282
 3610TIP3    H232322   4.621   5.620  12.853 -1.8912 -0.5265 -2.6866
 3611TIP3   OH232323   5.043   2.801  10.418 -0.1054 -0.5243  0.5966
 3611TIP3    H132324   4.966   2.744  10.423 -0.2396 -0.3510  0.5315
 3611TIP3    H232325   5.006   2.889  10.410  0.0957 -0.5382 -0.5616
 3612TIP3   OH232326   0.852   2.027   5.648 -0.4207 -0.6917 -0.0260
 3612TIP3    H132327   0.923   1.966   5.667 -0.4881 -0.2992  1.5954
 3612TIP3    H232328   0.886   2.083   5.579  0.1130 -1.7448 -0.6328
 3613TIP3   OH232329   5.088   6.235   1.072 -0.3125  0.4242 -0.1397
 3613TIP3    H132330   5.043   6.313   1.103  0.0566  0.7196 -0.3532
 3613TIP3    H232331   5.084   6.241   0.977 -1.6797 -0.6169 -0.1732
 3614TIP3   OH232332   6.374   2.899   4.182 -0.0620 -0.6607 -0.2912
 3614TIP3    H132333   6.373   2.843   4.260  0.8171 -0.8171 -0.3892
 3614TIP3    H232334   6.284   2.895   4.149 -0.5452 -0.2466  0.9528
 3615TIP3   OH232335   6.637   2.193  11.062 -0.0584 -0.6941 -0.0589
 3615TIP3    H132336   6.660   2.144  11.141 -0.1229  1.0766  1.0883
 3615TIP3    H232337   6.554   2.235  11.084  1.2214  1.8986 -0.1199
 3616TIP3   OH232338   6.420   4.456  13.016  0.3842  0.4508 -0.2330
 3616TIP3    H132339   6.501   4.413  12.989 -0.0927 -1.4712  1.2812
 3616TIP3    H232340   6.435   4.477  13.109  0.1073  2.3870 -0.6081
 3617TIP3   OH232341   1.469   6.006  16.571  0.7638 -0.2173 -0.2505
 3617TIP3    H132342   1.553   5.976  16.605 -0.0406 -0.9249  1.1626
 3617TIP3    H232343   1.407   5.991  16.643 -0.5703  0.3018 -1.2660
 3618TIP3   OH232344   1.510   1.216   2.935  0.0702 -0.1150  0.6325
 3618TIP3    H132345   1.430   1.244   2.980 -0.9994  0.2055 -1.3831
 3618TIP3    H232346   1.533   1.132   2.976 -0.9204  0.1237  1.6931
 3619TIP3   OH232347   2.867   2.872  11.488 -0.1463  0.2448 -0.4848
 3619TIP3    H132348   2.953   2.880  11.446  0.1067  0.8136  0.1334
 3619TIP3    H232349   2.804   2.889  11.418  0.2027 -1.6677 -1.2931
 3620TIP3   OH232350   5.606   6.609  12.490  0.0428  0.3721 -0.3068
 3620TIP3    H132351   5.586   6.527  12.534  1.8953 -0.3485 -0.7631
 3620TIP3    H232352   5.701   6.614  12.490 -0.0145  1.9478 -1.3344
 3621TIP3   OH232353   5.512   1.903   2.754  0.1817 -0.2447 -0.4626
 3621TIP3    H132354   5.559   1.984   2.773 -2.7350  1.1015  1.5381
 3621TIP3    H232355   5.476   1.916   2.667 -0.7459  0.8906  0.0787
 3622TIP3   OH232356   1.353   6.614   2.581 -0.1987  0.2654 -0.1441
 3622TIP3    H132357   1.277   6.670   2.592 -0.4119  0.0027 -0.2797
 3622TIP3    H232358   1.415   6.667   2.531  1.5653  2.1950  3.8796
 3623TIP3   OH232359   1.107   6.581   6.159 -0.1575  0.4886 -0.3813
 3623TIP3    H132360   1.125   6.637   6.083 -0.5296  0.1565 -0.7150
 3623TIP3    H232361   1.192   6.568   6.200 -0.1518  1.8696  0.0923
 3624TIP3   OH232362   6.036   1.328  14.781 -0.1985  0.6400 -0.4067
 3624TIP3    H132363   5.988   1.407  14.754 -2.1014  0.4963  2.3787
 3624TIP3    H232364   6.118   1.362  14.818 -1.2019  1.4055  1.1998
 3625TIP3   OH232365   3.125   5.003   1.241  0.0732 -0.1587 -1.2514
 3625TIP3    H132366   3.070   5.063   1.190  1.9744  0.8607 -2.1477
 3625TIP3    H232367   3.214   5.023   1.214  0.9158 -1.7143  0.2660
 3626TIP3   OH232368   4.785   1.374   2.456 -0.2031 -0.1659 -0.7341
 3626TIP3    H132369   4.743   1.289   2.456 -0.0848 -0.2260 -0.0274
 3626TIP3    H232370   4.771   1.408   2.368 -0.8843 -0.5975 -0.7908
 3627TIP3   OH232371   5.872   3.650   1.551 -0.0596 -0.6527 -0.0949
 3627TIP3    H132372   5.954   3.626   1.595  0.7475  0.7963 -0.7810
 3627TIP3    H232373   5.897   3.662   1.460 -1.2884 -1.3938 -0.5370
 3628TIP3   OH232374   0.106   2.014  11.256  0.2268 -0.0137 -0.1213
 3628TIP3    H132375   0.128   1.992  11.346 -0.6838  3.0846  0.9208
 3628TIP3    H232376   0.026   1.964  11.238  1.4735 -2.1184  0.1070
 3629TIP3   OH232377   0.269   4.197   5.460 -0.2250 -0.1602  0.0900
 3629TIP3    H132378   0.282   4.103   5.466  1.8880  0.0632 -0.3967
 3629TIP3    H232379   0.315   4.222   5.380  0.2365  1.4257  0.8268
 3630TIP3   OH232380   1.993   5.362  14.615 -0.1408 -0.2302  0.2580
 3630TIP3    H132381   2.034   5.359  14.701  0.8159  3.8237  0.0501
 3630TIP3    H232382   1.906   5.399  14.630 -0.2363 -0.1743 -0.4003
 3631TIP3   OH232383   4.808   4.661   0.146 -0.3254  0.2621 -0.4439
 3631TIP3    H132384   4.855   4.744   0.141 -0.3169  0.3149  0.3727
 3631TIP3    H232385   4.745   4.674   0.218  0.3147 -0.7545  0.3095
 3632TIP3   OH232386   0.682   3.315   5.498 -0.4133  0.2039 -0.6080
 3632TIP3    H132387   0.656   3.237   5.450 -1.8363  0.3446 -0.0748
 3632TIP3    H232388   0.604   3.371   5.497 -0.4294  0.2543  1.7669
 3633TIP3   OH232389   2.511   3.973   3.704  0.0504  0.5246  0.1546
 3633TIP3    H132390   2.578   3.967   3.771 -1.1263 -0.4993  1.2671
 3633TIP3    H232391   2.488   4.065   3.701 -0.7347  0.4171  2.0383
 3634TIP3   OH232392   0.670   1.939  15.860  0.5368 -0.0621 -0.6213
 3634TIP3    H132393   0.678   2.034  15.849 -0.4501  0.1221  0.1613
 3634TIP3    H232394   0.578   1.925  15.885  0.9337 -1.1236  0.2883
 3635TIP3   OH232395   2.796   6.051   4.439 -0.9574 -0.0739  0.1102
 3635TIP3    H132396   2.747   6.108   4.498 -0.4716  0.3225  0.1346
 3635TIP3    H232397   2.730   5.993   4.401 -1.2651 -0.3985  1.1107
 3636TIP3   OH232398   5.151   2.489  11.570 -0.1851 -0.1624 -1.1610
 3636TIP3    H132399   5.164   2.507  11.663  0.2195 -3.1073 -0.6086
 3636TIP3    H232400   5.239   2.490  11.532 -0.2908  0.4061 -1.3995
 3637TIP3   OH232401   2.005   3.188  17.177 -0.0418  0.3009  0.0424
 3637TIP3    H132402   2.096   3.212  17.196  0.3315 -0.4606 -0.7074
 3637TIP3    H232403   1.995   3.101  17.217 -0.1647  0.0050 -0.6199
 3638TIP3   OH232404   4.288   3.014  16.867 -0.6231 -0.6987  0.0134
 3638TIP3    H132405   4.322   3.062  16.792  2.3097 -1.8553  0.5409
 3638TIP3    H232406   4.265   3.082  16.930 -1.2865  0.1893 -1.1566
 3639TIP3   OH232407   0.064   6.053  10.559 -0.4327 -0.2357 -0.0565
 3639TIP3    H132408   0.044   5.963  10.533  0.8655 -0.4726 -0.2632
 3639TIP3    H232409   0.112   6.090  10.485  2.0350 -0.4579  1.3645
 3640TIP3   OH232410   1.647   6.123  12.022  0.2094 -0.3053  0.0731
 3640TIP3    H132411   1.636   6.061  11.951  0.4044 -2.3003  1.7418
 3640TIP3    H232412   1.560   6.160  12.036 -0.4024 -1.9228  0.5940
 3641TIP3   OH232413   4.451   4.584   0.116  0.0003 -0.4546  0.2273
 3641TIP3    H132414   4.421   4.536   0.193  0.0573 -0.3027  0.3445
 3641TIP3    H232415   4.407   4.542   0.042 -0.7851  0.0161  0.4369
 3642TIP3   OH232416   4.545   6.500   4.958  0.2275 -0.5070 -0.0062
 3642TIP3    H132417   4.464   6.537   4.993  0.7968  2.1632 -1.3937
 3642TIP3    H232418   4.517   6.435   4.894 -0.8473  0.8947 -0.9769
 3643TIP3   OH232419   2.433   4.482  14.028 -0.0372  0.2065  0.0877
 3643TIP3    H132420   2.455   4.508  13.939  0.4174  0.3154  0.2311
 3643TIP3    H232421   2.517   4.474  14.072 -0.3071  1.3889  0.8559
 3644TIP3   OH232422   1.161   3.344  13.728 -0.0497 -0.3487  0.9728
 3644TIP3    H132423   1.197   3.412  13.785 -0.0467  0.5495 -0.0890
 3644TIP3    H232424   1.067   3.348  13.743 -0.0713  0.0560  0.7248
 3645TIP3   OH232425   6.179   2.077   0.060  0.5380  0.2492 -0.0549
 3645TIP3    H132426   6.140   1.995   0.029  0.8031  0.2767 -0.4600
 3645TIP3    H232427   6.119   2.108   0.128  0.8906 -0.7274  0.7133
 3646TIP3   OH232428   5.506   2.124  15.029 -0.3841 -0.1209 -0.3108
 3646TIP3    H132429   5.440   2.097  14.966 -1.5184  0.9499  0.3929
 3646TIP3    H232430   5.499   2.060  15.100  0.8996 -1.3317 -1.2371
 3647TIP3   OH232431   5.807   3.520   0.757 -0.2546 -0.1829  0.2450
 3647TIP3    H132432   5.742   3.589   0.741 -0.6383 -0.8821 -1.3925
 3647TIP3    H232433   5.868   3.528   0.684  1.4815  0.4015  1.7279
 3648TIP3   OH232434   3.549   5.235  17.204 -0.3180  0.1566 -0.3728
 3648TIP3    H132435   3.505   5.158  17.239 -0.9181  1.5044  1.9191
 3648TIP3    H232436   3.480   5.287  17.164 -0.2659  0.5040 -0.0249
 3649TIP3   OH232437   0.421   0.266  17.226  0.1921  0.5278 -0.1396
 3649TIP3    H132438   0.450   0.185  17.185 -1.9593 -0.4839  0.2755
 3649TIP3    H232439   0.336   0.245  17.264  0.7859  2.2480  2.2795
 3650TIP3   OH232440   3.010   1.011  12.462 -0.7762  0.3978 -0.7115
 3650TIP3    H132441   2.991   0.917  12.464  0.3669  0.1581 -0.8361
 3650TIP3    H232442   2.938   1.051  12.511 -1.9205 -0.4265 -1.6998
 3651TIP3   OH232443   0.795   1.693  15.804  0.0453 -0.6269 -0.2382
 3651TIP3    H132444   0.741   1.770  15.822 -1.2320 -1.8567  1.2781
 3651TIP3    H232445   0.743   1.619  15.835  1.5560 -2.0608 -1.0362
 3652TIP3   OH232446   5.395   4.319  13.962  0.0093 -0.5987  0.3506
 3652TIP3    H132447   5.327   4.252  13.958 -0.7919  0.2317 -0.6078
 3652TIP3    H232448   5.352   4.398  13.927  1.0313  0.3099  1.1170
 3653TIP3   OH232449   3.562   4.547   2.470  0.0870  0.2238  0.3950
 3653TIP3    H132450   3.622   4.615   2.501  0.4080  1.0220 -1.9084
 3653TIP3    H232451   3.610   4.501   2.402 -1.3725 -0.0973 -0.4431
 3654TIP3   OH232452   2.078   6.159   1.813 -0.6482 -0.0083  0.1708
 3654TIP3    H132453   2.115   6.167   1.725 -0.5882 -0.1614  0.1831
 3654TIP3    H232454   2.092   6.246   1.852 -1.8993  0.4808 -0.4456
 3655TIP3   OH232455   3.633   2.143  11.685 -0.5877 -0.6307  0.2908
 3655TIP3    H132456   3.694   2.216  11.684 -0.5343 -0.6692  0.6584
 3655TIP3    H232457   3.686   2.067  11.661 -0.2679 -0.8330  1.6186
 3656TIP3   OH232458   2.860   6.598  12.274  0.3108 -0.2429  0.5618
 3656TIP3    H132459   2.812   6.515  12.272  0.7617 -0.4874 -0.3979
 3656TIP3    H232460   2.823   6.648  12.201  0.6419  0.0609  0.6046
 3657TIP3   OH232461   3.727   6.175   2.587 -0.1335  0.1508  0.2048
 3657TIP3    H132462   3.801   6.172   2.648 -0.2045 -0.7416  0.2494
 3657TIP3    H232463   3.754   6.236   2.519 -0.2485  1.5774  1.3823
 3658TIP3   OH232464   3.727   4.627   3.369 -0.0764  0.4059 -0.2842
 3658TIP3    H132465   3.715   4.552   3.427 -0.1506  0.3171 -0.4129
 3658TIP3    H232466   3.785   4.686   3.417  0.2142  0.1363 -0.2940
 3659TIP3   OH232467   3.398   3.390   3.682 -0.4360 -0.3416  0.0509
 3659TIP3    H132468   3.429   3.469   3.726 -0.9621  0.3267 -0.7617
 3659TIP3    H232469   3.356   3.339   3.751  1.7388 -0.8958  0.9960
 3660TIP3   OH232470   2.480   5.020   2.840 -0.4431  0.6482 -0.3631
 3660TIP3    H132471   2.564   5.016   2.886 -0.2522  0.0628 -0.7592
 3660TIP3    H232472   2.500   5.062   2.756 -0.5641  0.5836 -0.4247
 3661TIP3   OH232473   1.041   1.839  12.554  0.1469  0.9266 -0.3380
 3661TIP3    H132474   1.111   1.884  12.507 -0.7412  2.3520 -0.3166
 3661TIP3    H232475   0.976   1.907  12.571 -1.1258 -0.3314 -0.1169
 3662TIP3   OH232476   3.154   0.061   2.663  0.4079  0.2763 -0.6867
 3662TIP3    H132477   3.203   0.066   2.745  0.2283 -0.7713 -0.5165
 3662TIP3    H232478   3.078   0.008   2.684  0.1824  0.2925 -1.4532
 3663TIP3   OH232479   5.658   5.577   0.560 -0.1063 -0.2534 -0.2116
 3663TIP3    H132480   5.744   5.538   0.552 -0.7433 -1.2913 -2.2784
 3663TIP3    H232481   5.669   5.666   0.526  0.3254 -0.1032  0.3123
 3664TIP3   OH232482   2.743   4.497   4.925 -0.5269  0.0550  0.0218
 3664TIP3    H132483   2.756   4.591   4.938 -0.5522  0.0614  0.0020
 3664TIP3    H232484   2.738   4.461   5.014 -2.4280  0.3348  0.0524
 3665TIP3   OH232485   2.039   5.648  17.173  0.2566 -0.4866 -0.5966
 3665TIP3    H132486   2.109   5.684  17.117 -0.9563 -0.9809 -2.4715
 3665TIP3    H232487   1.975   5.718  17.180  0.8347 -0.0918  0.9923
 3666TIP3   OH232488   5.685   4.777   0.560  0.3058 -0.0301 -0.4144
 3666TIP3    H132489   5.701   4.787   0.466 -0.0671  0.2201 -0.4531
 3666TIP3    H232490   5.607   4.830   0.577  0.4237 -0.0008  0.0536
 3667TIP3   OH232491   1.013   4.151   5.467 -0.7747 -0.1380 -0.3658
 3667TIP3    H132492   1.014   4.104   5.384 -0.6413  0.0709 -0.4852
 3667TIP3    H232493   0.952   4.223   5.453 -1.8246 -0.9180  0.1749
 3668TIP3   OH232494   2.317   1.273   0.344 -0.7278  0.1902  0.7035
 3668TIP3    H132495   2.338   1.288   0.437 -0.1888  2.1558  0.3012
 3668TIP3    H232496   2.399   1.244   0.306 -0.4897  1.0777  0.5171
 3669TIP3   OH232497   1.462   3.105   4.231  0.3628  0.2915 -0.0039
 3669TIP3    H132498   1.554   3.081   4.243  0.3727  0.9640  1.3386
 3669TIP3    H232499   1.422   3.093   4.317 -1.0494 -0.9325 -0.7873
 3670TIP3   OH232500   0.908   5.258  16.602 -0.2572  0.3464  0.2871
 3670TIP3    H132501   0.949   5.263  16.516  1.3529 -0.4734  0.9815
 3670TIP3    H232502   0.960   5.193  16.650 -1.7270  0.0576  1.5505
 3671TIP3   OH232503   5.689   5.756   4.830 -0.1520  0.1846  0.2401
 3671TIP3    H132504   5.644   5.713   4.757 -1.1991  1.1885  0.2840
 3671TIP3    H232505   5.782   5.740   4.813 -0.4743 -1.1342 -0.3344
 3672TIP3   OH232506   4.204   3.999   0.546 -0.3879 -0.1324  0.1796
 3672TIP3    H132507   4.270   3.943   0.504 -1.8816 -0.8904 -1.2044
 3672TIP3    H232508   4.207   4.081   0.497  0.1899  0.2057  0.7562
 3673TIP3   OH232509   6.814   1.741   5.366 -0.2032 -0.1436  0.2810
 3673TIP3    H132510   6.853   1.688   5.296 -1.1057 -0.5612  0.0909
 3673TIP3    H232511   6.795   1.678   5.435 -0.9903 -0.0173  0.1786
 3674TIP3   OH232512   6.473   1.971  11.497  0.7349  0.4338  0.2354
 3674TIP3    H132513   6.415   2.012  11.433  0.5011  1.1346  0.8936
 3674TIP3    H232514   6.440   1.999  11.582  0.2359 -1.5814  0.7318
 3675TIP3   OH232515   3.375   1.581   5.336 -0.7893 -0.2904 -0.4324
 3675TIP3    H132516   3.346   1.490   5.343 -1.1178 -0.1505  0.0773
 3675TIP3    H232517   3.384   1.610   5.427  1.8229 -0.6061 -0.5306
 3676TIP3   OH232518   1.467   5.522  16.353  0.2360 -0.0642  0.0600
 3676TIP3    H132519   1.380   5.490  16.378 -0.7756  0.5002 -2.6247
 3676TIP3    H232520   1.517   5.521  16.435 -1.4847 -2.9269  1.1665
 3677TIP3   OH232521   6.688   1.108   1.586 -0.3714 -0.2119  0.3230
 3677TIP3    H132522   6.653   1.087   1.499 -0.1733  0.3129  0.1179
 3677TIP3    H232523   6.614   1.094   1.645 -0.7022  0.1050 -0.0132
 3678TIP3   OH232524   2.717   3.607  13.429 -0.1064 -0.0473 -0.2134
 3678TIP3    H132525   2.624   3.587  13.421  0.0713 -1.1833  0.4255
 3678TIP3    H232526   2.722   3.703  13.421 -1.4021  0.0925  0.4834
 3679TIP3   OH232527   0.397   2.472  12.232  0.3315 -0.2287  0.0849
 3679TIP3    H132528   0.466   2.519  12.186 -2.3208  3.4709 -0.3778
 3679TIP3    H232529   0.416   2.485  12.325 -0.8452  2.6629 -0.0294
 3680TIP3   OH232530   1.806   5.319   4.732  0.1537 -0.4170 -0.0045
 3680TIP3    H132531   1.854   5.340   4.812 -0.8501  1.4868  0.1312
 3680TIP3    H232532   1.843   5.377   4.666 -0.4566 -0.4813 -0.4113
 3681TIP3   OH232533   2.634   0.579   0.905  0.3534  0.1749 -0.5506
 3681TIP3    H132534   2.552   0.562   0.950  0.2595 -0.1485 -0.8361
 3681TIP3    H232535   2.700   0.581   0.975  0.1321  0.2318 -0.3443
 3682TIP3   OH232536   1.321   5.317  14.433  0.5611  0.4766  0.5745
 3682TIP3    H132537   1.408   5.337  14.399  0.8586 -1.4295  0.1502
 3682TIP3    H232538   1.331   5.321  14.528  1.0275  0.5988  0.5222
 3683TIP3   OH232539   3.742   6.562   2.052 -0.5740 -0.6886  0.4148
 3683TIP3    H132540   3.826   6.533   2.086 -0.3164 -0.5859 -0.1270
 3683TIP3    H232541   3.732   6.652   2.084  1.0414  0.5013 -2.1732
 3684TIP3   OH232542   0.638   1.109   1.969 -0.3390  0.8674  0.3032
 3684TIP3    H132543   0.669   1.044   2.033  1.4057 -0.4052 -1.7925
 3684TIP3    H232544   0.545   1.088   1.958 -0.7635  1.3085  2.6164
 3685TIP3   OH232545   1.002   4.738   1.358  0.9974 -0.3536  0.0338
 3685TIP3    H132546   0.969   4.685   1.431 -1.1573  0.8898  0.0027
 3685TIP3    H232547   1.064   4.799   1.398  0.0585  0.1171  0.8005
 3686TIP3   OH232548   5.825   6.524  14.274 -0.1010  0.3002 -0.0983
 3686TIP3    H132549   5.853   6.496  14.361  0.6077  0.2318 -0.3471
 3686TIP3    H232550   5.734   6.551  14.285 -0.0344  0.2083  0.6452
 3687TIP3   OH232551   3.991   0.313  14.887 -0.1493 -0.0501 -0.9273
 3687TIP3    H132552   3.909   0.295  14.841  0.1227 -1.2396 -0.9648
 3687TIP3    H232553   4.040   0.231  14.881  0.8966  0.5468 -0.6047
 3688TIP3   OH232554   2.246   6.590  12.328  0.2315  0.5697  0.2708
 3688TIP3    H132555   2.319   6.599  12.390 -0.6830  0.7477  1.3366
 3688TIP3    H232556   2.207   6.505  12.351  0.9467 -0.1818 -1.2248
 3689TIP3   OH232557   6.684   3.636  14.767  0.3937 -0.0883  0.8198
 3689TIP3    H132558   6.630   3.677  14.833  0.6418  2.9945 -0.8042
 3689TIP3    H232559   6.621   3.596  14.706  0.0833 -0.3990  1.3444
 3690TIP3   OH232560   6.774   4.004   1.070  0.0723 -0.4404  0.3124
 3690TIP3    H132561   6.709   4.055   1.022 -0.5279 -1.0300  0.5056
 3690TIP3    H232562   6.805   3.939   1.007  0.3130 -0.3111  0.2938
 3691TIP3   OH232563   0.739   2.053   3.964  0.1732  0.1237 -0.1630
 3691TIP3    H132564   0.714   2.126   3.907 -2.8754 -0.3431  0.5219
 3691TIP3    H232565   0.750   1.979   3.905  1.7627  0.7172 -0.6671
 3692TIP3   OH232566   0.442   1.353  15.799  0.3776  0.1174  0.0104
 3692TIP3    H132567   0.375   1.414  15.832  0.4373 -0.4420  1.2198
 3692TIP3    H232568   0.411   1.328  15.712  0.2416  1.6907 -0.4060
 3693TIP3   OH232569   1.069   1.486   5.467  0.2493  0.2147  0.2920
 3693TIP3    H132570   1.144   1.467   5.410  0.3906  0.8434  0.2702
 3693TIP3    H232571   1.079   1.425   5.541  2.3102  2.1879  1.6736
 3694TIP3   OH232572   2.814   5.649  12.640  0.8394  0.8169 -0.0740
 3694TIP3    H132573   2.865   5.632  12.719  1.4181 -0.2183 -0.6554
 3694TIP3    H232574   2.876   5.690  12.580  1.0243 -0.5019 -0.8036
 3695TIP3   OH232575   0.128   2.916   5.326  0.4732  0.4580  0.4184
 3695TIP3    H132576   0.078   2.875   5.396  0.3395  0.3652  0.2691
 3695TIP3    H232577   0.217   2.883   5.338  0.2798 -0.2008  0.0511
 3696TIP3   OH232578   3.995   2.860  12.852  0.3833  0.0613  0.0181
 3696TIP3    H132579   3.951   2.830  12.773 -1.2898 -0.2466  1.0457
 3696TIP3    H232580   4.086   2.830  12.842  0.1610 -0.0769 -1.7057
 3697TIP3   OH232581   0.486   6.481   6.042  0.5610  0.4720  0.7080
 3697TIP3    H132582   0.547   6.514   6.109 -0.5999 -0.9916  2.5405
 3697TIP3    H232583   0.483   6.387   6.057  1.1916 -0.0471 -2.2385
 3698TIP3   OH232584   2.853   2.955   5.251  0.5119  0.3551  0.2312
 3698TIP3    H132585   2.804   3.037   5.242  1.7949  1.0153 -0.9320
 3698TIP3    H232586   2.944   2.980   5.236  0.7943 -1.4618 -1.2484
 3699TIP3   OH232587   0.679   0.653   1.892  0.3870  0.3773 -0.0563
 3699TIP3    H132588   0.684   0.558   1.886  0.2876  0.2524  1.7421
 3699TIP3    H232589   0.770   0.683   1.895  0.3918  0.1918  1.5983
 3700TIP3   OH232590   6.395   4.297  10.870  0.1884 -0.5114  0.0648
 3700TIP3    H132591   6.375   4.301  10.964  0.2619 -0.8765  0.0994
 3700TIP3    H232592   6.432   4.383  10.850  0.6019 -0.5889  0.4741
 3701TIP3   OH232593   1.937   1.214  16.070 -0.2638 -0.0245  0.1913
 3701TIP3    H132594   1.923   1.162  16.150 -0.9510 -1.8865 -1.1046
 3701TIP3    H232595   1.963   1.150  16.004  0.0156  1.4596 -1.1696
 3702TIP3   OH232596   5.083   0.436  13.575  0.3866  0.6302  0.1388
 3702TIP3    H132597   5.129   0.359  13.542  0.3563  1.1692 -1.1906
 3702TIP3    H232598   5.140   0.509  13.554 -1.1083  1.3319 -1.6790
 3703TIP3   OH232599   5.773   5.453  13.167 -0.0900  0.5669  0.1094
 3703TIP3    H132600   5.713   5.415  13.231  0.5161  0.6834  0.7498
 3703TIP3    H232601   5.722   5.523  13.125 -0.5755  0.3102  0.2698
 3704TIP3   OH232602   0.246   2.725  13.910  0.3505 -0.3817  0.0696
 3704TIP3    H132603   0.293   2.802  13.945  2.0342 -1.4325  0.2053
 3704TIP3    H232604   0.237   2.743  13.817  1.3399 -0.3055 -0.0194
 3705TIP3   OH232605   4.631   6.185  16.753  0.2263  0.9551 -0.0696
 3705TIP3    H132606   4.543   6.152  16.773  0.4643  1.3555  1.7534
 3705TIP3    H232607   4.632   6.273  16.791  1.5268  0.8172  0.2173
 3706TIP3   OH232608   1.659   4.311  16.869 -0.1011  0.3676 -0.1840
 3706TIP3    H132609   1.668   4.406  16.864  1.0910  0.2803  0.3234
 3706TIP3    H232610   1.585   4.297  16.928 -0.3840  0.9809 -0.3926
 3707TIP3   OH232611   2.983   4.606   6.370 -0.4367  0.5089 -0.5892
 3707TIP3    H132612   2.940   4.617   6.454  2.3105  1.2222  0.7925
 3707TIP3    H232613   3.019   4.517   6.372 -0.4796  0.4780 -1.0510
 3708TIP3   OH232614   1.327   5.553  11.960 -0.0803  0.5132 -0.0778
 3708TIP3    H132615   1.317   5.644  11.987  2.1545  0.8566 -0.3686
 3708TIP3    H232616   1.270   5.544  11.884 -0.3611  1.6338 -0.0063
 3709TIP3   OH232617   2.368   6.148  11.581  0.2769 -0.3551 -0.0250
 3709TIP3    H132618   2.339   6.061  11.607  0.4665 -0.5020 -0.2906
 3709TIP3    H232619   2.462   6.138  11.564  0.5874  0.2274  1.3044
 3710TIP3   OH232620   1.690   2.680  12.490  0.2099  0.1072 -0.0176
 3710TIP3    H132621   1.726   2.599  12.525 -0.7565 -0.9906 -1.5123
 3710TIP3    H232622   1.674   2.735  12.567  2.4331 -0.4599  0.8696
 3711TIP3   OH232623   1.480   6.415  13.168 -0.0528 -0.0773  0.5609
 3711TIP3    H132624   1.535   6.430  13.091 -1.2682  0.1951 -0.2522
 3711TIP3    H232625   1.510   6.481  13.231 -0.7314  1.3355 -0.5628
 3712TIP3   OH232626   3.929   5.427  15.477 -0.2741  0.1393  0.6804
 3712TIP3    H132627   3.856   5.425  15.539 -0.3173  2.8391  0.7843
 3712TIP3    H232628   4.007   5.438  15.531  0.4372 -4.1629  0.6743
 3713TIP3   OH232629   3.827   3.010  16.056  0.1332  0.3750 -0.0312
 3713TIP3    H132630   3.825   3.007  16.152 -0.5157  1.2904 -0.0094
 3713TIP3    H232631   3.882   3.087  16.036  0.0808  0.3217 -0.3897
 3714TIP3   OH232632   3.125   0.692   2.423  0.8777  0.0089 -0.1981
 3714TIP3    H132633   3.078   0.775   2.415  0.8672 -0.0700 -1.0014
 3714TIP3    H232634   3.056   0.626   2.422  0.9926 -0.1223 -1.6259
 3715TIP3   OH232635   0.581   5.091  14.020 -0.1834 -0.0994 -0.4621
 3715TIP3    H132636   0.607   5.065  14.108 -0.5087 -0.1888 -0.3941
 3715TIP3    H232637   0.489   5.068  14.014 -0.5020  1.1356 -0.3650
 3716TIP3   OH232638   3.572   4.769   5.696 -0.9163 -0.3397  0.4746
 3716TIP3    H132639   3.588   4.804   5.784 -3.0714  0.2550  0.6749
 3716TIP3    H232640   3.597   4.677   5.701  0.9376  0.1704  1.1078
 3717TIP3   OH232641   2.845   0.622   0.386  0.3143  0.2443  0.1872
 3717TIP3    H132642   2.804   0.632   0.471 -1.5369 -2.3444 -0.3479
 3717TIP3    H232643   2.936   0.602   0.405 -0.1101 -0.4055  1.5799
 3718TIP3   OH232644   2.058   6.402   3.415  0.9030  0.8072  0.3662
 3718TIP3    H132645   2.047   6.483   3.365 -0.5935  1.0199  1.0089
 3718TIP3    H232646   2.046   6.332   3.350  1.3879  1.0926 -0.0347
 3719TIP3   OH232647   2.810   3.324   6.298  0.6715 -0.2346 -0.8615
 3719TIP3    H132648   2.721   3.311   6.330  1.2787  0.8281  1.4199
 3719TIP3    H232649   2.821   3.419   6.296  0.9356 -0.2872 -3.6031
 3720TIP3   OH232650   3.613   0.639   5.291 -0.1739 -0.0884 -0.2732
 3720TIP3    H132651   3.689   0.633   5.233 -0.1385 -1.3650 -0.1109
 3720TIP3    H232652   3.650   0.641   5.379 -0.3388 -1.3756 -0.1637
 3721TIP3   OH232653   4.113   3.162  12.190 -0.3801  0.3237 -0.1771
 3721TIP3    H132654   4.048   3.140  12.256 -0.8772 -0.9684 -1.0690
 3721TIP3    H232655   4.062   3.201  12.119  0.1374  1.6220  0.1642
 3722TIP3   OH232656   4.576   3.204   2.295 -0.3628 -0.0061 -0.0099
 3722TIP3    H132657   4.608   3.261   2.226  0.6692  1.2113  1.4320
 3722TIP3    H232658   4.621   3.121   2.281  2.6121  1.3034  1.2516
 3723TIP3   OH232659   5.368   5.868   1.452  0.1025 -0.3080 -0.4778
 3723TIP3    H132660   5.408   5.806   1.513  0.0906  0.1391 -0.0140
 3723TIP3    H232661   5.389   5.954   1.488  2.0044  0.0228 -2.3154
 3724TIP3   OH232662   1.993   1.410   4.701  0.3815 -0.3289  0.4345
 3724TIP3    H132663   2.007   1.494   4.745 -1.3163  1.0188 -1.5050
 3724TIP3    H232664   1.926   1.367   4.754  2.2698 -1.1292  2.2534
 3725TIP3   OH232665   0.045   6.115   3.315  0.0160 -0.3866 -0.1704
 3725TIP3    H132666   0.131   6.152   3.334 -0.3418  0.8622 -0.9556
 3725TIP3    H232667   0.064   6.031   3.272  0.8523  0.3078 -1.1823
 3726TIP3   OH232668   0.917   4.082  11.413  0.1530  0.1665  0.0931
 3726TIP3    H132669   0.890   4.152  11.354  0.5787  0.4135  0.1860
 3726TIP3    H232670   0.981   4.031  11.363 -2.1037 -1.7506 -0.9365
 3727TIP3   OH232671   1.961   2.321   2.028 -0.0946 -0.6054 -0.2767
 3727TIP3    H132672   1.953   2.416   2.035  0.7859 -0.5607  0.1680
 3727TIP3    H232673   1.887   2.287   2.077  0.5271 -0.1610  0.9946
 3728TIP3   OH232674   5.040   5.373   3.312  0.4367  0.3291  0.1049
 3728TIP3    H132675   5.080   5.333   3.388 -0.7845 -0.4371  0.3602
 3728TIP3    H232676   5.094   5.450   3.293  2.5471 -1.1940 -0.1335
 3729TIP3   OH232677   2.580   2.926  17.151  0.2977 -0.3483 -0.6377
 3729TIP3    H132678   2.507   2.988  17.149 -1.8614 -2.7959  0.3126
 3729TIP3    H232679   2.593   2.908  17.244  0.5384 -1.7610 -0.9398
 3730TIP3   OH232680   2.673   5.087  17.162  0.4126 -0.0706 -0.5431
 3730TIP3    H132681   2.758   5.109  17.124  0.5729 -1.1486 -0.8184
 3730TIP3    H232682   2.633   5.027  17.099  0.4556 -1.4526  0.7223
 3731TIP3   OH232683   3.172   2.465  13.926  0.3440  0.0223 -0.9529
 3731TIP3    H132684   3.078   2.452  13.937  0.4753 -1.2596 -1.3185
 3731TIP3    H232685   3.188   2.452  13.833  1.2033 -1.9420 -0.5580
 3732TIP3   OH232686   1.668   3.248   5.863  0.2409  0.0615  0.7534
 3732TIP3    H132687   1.662   3.213   5.952  0.6959  1.6681  1.4219
 3732TIP3    H232688   1.757   3.227   5.835  0.3745  0.3100  0.9936
 3733TIP3   OH232689   5.056   2.966  13.735  0.2148 -0.4070  0.0637
 3733TIP3    H132690   5.042   3.032  13.667 -2.6502  0.6276  1.5879
 3733TIP3    H232691   5.142   2.989  13.772  1.1843 -0.1614 -2.2475
 3734TIP3   OH232692   6.782   4.351   3.521 -0.7024  0.1582 -0.6606
 3734TIP3    H132693   6.778   4.279   3.457 -2.3983 -0.3439 -0.0136
 3734TIP3    H232694   6.870   4.344   3.558 -0.4357 -0.8508 -1.4426
 3735TIP3   OH232695   1.119   4.855   3.251  0.0482 -0.1570 -0.1634
 3735TIP3    H132696   1.061   4.919   3.210 -1.1067 -1.7173 -1.0518
 3735TIP3    H232697   1.073   4.771   3.239  1.9625 -1.2673  0.1187
 3736TIP3   OH232698   4.909   6.127  15.399  0.0776 -0.0928  0.0516
 3736TIP3    H132699   4.898   6.044  15.352 -0.5622 -0.0149  0.0653
 3736TIP3    H232700   4.994   6.160  15.369 -0.2271 -0.1447 -0.8886
 3737TIP3   OH232701   0.031   5.445   6.012 -0.1915  0.3032 -0.3462
 3737TIP3    H132702   0.085   5.472   6.086 -0.4376  1.3045 -0.5308
 3737TIP3    H232703   0.055   5.505   5.941 -2.7986  1.9438  0.0834
 3738TIP3   OH232704   6.643   1.336   1.091  1.0321 -0.3440  0.4257
 3738TIP3    H132705   6.574   1.305   1.032  0.0430 -1.2087  2.0016
 3738TIP3    H232706   6.724   1.300   1.054  0.3123 -1.6306  0.0789
 3739TIP3   OH232707   0.651   3.911   5.509 -0.5718 -0.5871  0.7013
 3739TIP3    H132708   0.730   3.931   5.559  0.6991 -2.1967 -0.6204
 3739TIP3    H232709   0.611   3.837   5.554 -0.9244 -0.2533  0.9382
 3740TIP3   OH232710   6.313   1.460   1.022 -0.1600 -0.5044 -0.1307
 3740TIP3    H132711   6.347   1.513   0.949  0.1206 -0.6723 -0.1246
 3740TIP3    H232712   6.336   1.510   1.100 -2.2509  0.6827 -0.2396
 3741TIP3   OH232713   6.480   5.699  15.705 -0.3431 -0.6156 -0.2354
 3741TIP3    H132714   6.514   5.681  15.792 -1.3299 -2.4205 -0.2016
 3741TIP3    H232715   6.434   5.619  15.680 -2.7256  0.9866 -1.1519
 3742TIP3   OH232716   3.723   2.877   4.516  0.0571  0.0605 -0.3007
 3742TIP3    H132717   3.793   2.838   4.464 -0.7899 -1.2105 -0.5027
 3742TIP3    H232718   3.768   2.915   4.591  1.0554  0.0023 -0.8570
 3743TIP3   OH232719   0.628   3.921  14.704  0.1071  0.0639  0.0040
 3743TIP3    H132720   0.609   3.896  14.614 -0.4870 -2.0129  0.6674
 3743TIP3    H232721   0.720   3.896  14.717  0.0797  0.0014  0.0818
 3744TIP3   OH232722   6.484   1.680  15.146  0.4879  0.3061  0.4887
 3744TIP3    H132723   6.472   1.588  15.124 -0.4076  0.2012  1.3976
 3744TIP3    H232724   6.430   1.694  15.223 -0.1398  1.8372 -0.2089
 3745TIP3   OH232725   2.264   1.984   5.015  0.1652  0.0785 -0.1839
 3745TIP3    H132726   2.260   1.943   5.102  2.0941 -0.7869 -0.4800
 3745TIP3    H232727   2.248   2.077   5.031 -0.0868 -0.1681  1.0275
 3746TIP3   OH232728   3.421   4.544   3.384  0.3636  0.2840 -0.6854
 3746TIP3    H132729   3.463   4.505   3.461  1.6601  0.4188 -1.3049
 3746TIP3    H232730   3.451   4.635   3.384 -2.1186  1.1345  0.3767
 3747TIP3   OH232731   5.554   5.881   2.434  0.4878 -0.0686 -0.1810
 3747TIP3    H132732   5.555   5.948   2.503 -1.1594 -0.5021  0.2889
 3747TIP3    H232733   5.577   5.800   2.478 -0.8972 -0.4082 -0.0383
 3748TIP3   OH232734   5.718   0.214  13.068  0.1305  0.4052 -0.8656
 3748TIP3    H132735   5.649   0.215  13.002 -2.0675  0.8883  1.3817
 3748TIP3    H232736   5.728   0.121  13.091 -2.5924  0.6530  1.6034
 3749TIP3   OH232737   5.228   5.634   5.606  0.0713  0.7119  0.7447
 3749TIP3    H132738   5.164   5.608   5.539 -2.3301  4.0718  1.5674
 3749TIP3    H232739   5.184   5.616   5.689  0.8857  1.4874  1.3427
 3750TIP3   OH232740   6.723   0.049  12.071 -0.0720  0.0718  0.0634
 3750TIP3    H132741   6.748   0.134  12.108 -0.1218  0.2054 -0.2114
 3750TIP3    H232742   6.800   0.022  12.020  1.4506 -1.8236  3.2081
 3751TIP3   OH232743   1.345   5.842   2.745  0.7057 -0.5929 -0.1815
 3751TIP3    H132744   1.408   5.778   2.714  1.3757 -0.2089  0.3797
 3751TIP3    H232745   1.261   5.813   2.709  1.1484 -1.2787 -0.6613
 3752TIP3   OH232746   1.124   6.548  15.820 -0.0083  0.0203  0.2196
 3752TIP3    H132747   1.176   6.506  15.889  0.6992  0.2116 -0.1942
 3752TIP3    H232748   1.061   6.481  15.794  0.2192 -0.3167  0.5245
 3753TIP3   OH232749   0.731   5.956   2.712 -0.3936  0.1147 -0.0368
 3753TIP3    H132750   0.806   5.980   2.658  0.0016 -1.4994 -0.2455
 3753TIP3    H232751   0.768   5.941   2.799 -0.1209 -2.6028 -0.5845
 3754TIP3   OH232752   2.498   5.933  14.602  0.0920 -0.2963 -0.1872
 3754TIP3    H132753   2.544   5.865  14.553 -0.8028 -0.2838 -1.0561
 3754TIP3    H232754   2.430   5.887  14.650  2.1722 -0.5785  2.6123
 3755TIP3   OH232755   0.452   3.351  12.384  0.2934 -0.1891  0.1019
 3755TIP3    H132756   0.524   3.299  12.349  0.2764 -1.0009  1.2529
 3755TIP3    H232757   0.413   3.394  12.307  1.7668 -0.0266 -0.5681
 3756TIP3   OH232758   5.294   4.598   5.984 -0.0323  0.0767 -0.1805
 3756TIP3    H132759   5.328   4.534   5.921 -2.1980 -1.3400  0.0357
 3756TIP3    H232760   5.204   4.568   6.002 -0.3365  1.9675  1.5667
 3757TIP3   OH232761   6.361   1.480   5.785  0.2606  0.0272 -0.3902
 3757TIP3    H132762   6.295   1.539   5.747  0.2900  1.4750  1.7356
 3757TIP3    H232763   6.317   1.439   5.859  2.0749  1.9480  1.8291
 3758TIP3   OH232764   4.650   6.411  14.148  0.2321  0.2417  0.2405
 3758TIP3    H132765   4.555   6.408  14.158  0.3792 -0.3879  1.6338
 3758TIP3    H232766   4.673   6.503  14.163  0.0478  0.0021  2.1086
 3759TIP3   OH232767   1.769   5.166   2.831  0.6188 -0.0088  0.3517
 3759TIP3    H132768   1.810   5.156   2.917  0.0839 -2.0332  0.3956
 3759TIP3    H232769   1.841   5.192   2.774  1.2239  0.1975  1.1868
 3760TIP3   OH232770   5.341   3.358   3.111  0.0062 -0.2013  0.1181
 3760TIP3    H132771   5.417   3.413   3.091 -0.8581  0.5676 -1.1341
 3760TIP3    H232772   5.277   3.418   3.148 -0.3871 -0.6502  0.1689
 3761TIP3   OH232773   2.237   4.721   3.278  0.4560 -0.6964 -0.2501
 3761TIP3    H132774   2.178   4.648   3.263  0.6309 -0.6005 -1.4117
 3761TIP3    H232775   2.199   4.794   3.229  0.4086 -0.0600  0.7062
 3762TIP3   OH232776   2.036   3.311  16.783 -0.4313  0.3414 -0.2759
 3762TIP3    H132777   2.114   3.265  16.752 -1.5745 -0.7810 -1.6168
 3762TIP3    H232778   2.056   3.403  16.769  0.7156  0.0800 -0.4500
 3763TIP3   OH232779   1.588   6.184   0.372  0.0438  0.0871 -0.2472
 3763TIP3    H132780   1.641   6.134   0.310  1.4518  2.5716 -1.1201
 3763TIP3    H232781   1.504   6.196   0.328 -0.0734 -0.9502 -0.3052
 3764TIP3   OH232782   6.686   2.881   3.724  0.4954  0.5443 -0.1346
 3764TIP3    H132783   6.708   2.789   3.738 -0.4369  0.6326  2.1036
 3764TIP3    H232784   6.595   2.888   3.751  0.1084  1.8410 -1.7059
 3765TIP3   OH232785   0.761   5.496   5.529 -0.2474 -0.3974 -0.3884
 3765TIP3    H132786   0.812   5.436   5.583 -0.7110 -1.7717 -1.4393
 3765TIP3    H232787   0.819   5.517   5.456 -0.0971  0.4171 -0.0337
 3766TIP3   OH232788   0.167   2.231  14.415  0.0556  0.0145 -0.0680
 3766TIP3    H132789   0.130   2.150  14.380 -0.2717 -0.3320  1.0569
 3766TIP3    H232790   0.091   2.286  14.434  0.2909  0.7472 -1.1728
 3767TIP3   OH232791   4.301   4.609  15.366  0.4921 -0.4856  0.3912
 3767TIP3    H132792   4.314   4.556  15.444  1.2235 -2.8766 -1.2718
 3767TIP3    H232793   4.206   4.604  15.350  0.8000 -3.2756 -0.9924
 3768TIP3   OH232794   3.615   4.312  12.331 -0.0002 -0.3361  0.6451
 3768TIP3    H132795   3.592   4.220  12.321  1.3935 -0.4675 -1.8862
 3768TIP3    H232796   3.704   4.310  12.366 -0.1114  0.0462  0.9429
 3769TIP3   OH232797   5.361   2.270   4.893  0.4357 -0.3231 -0.1088
 3769TIP3    H132798   5.304   2.346   4.902  0.3061 -0.5831  1.3514
 3769TIP3    H232799   5.436   2.290   4.950  0.2534 -1.4199  0.5184
 3770TIP3   OH232800   6.345   3.394  17.284  0.0012  0.2588 -0.4362
 3770TIP3    H132801   6.440   3.383  17.286  0.0981  0.8712 -1.4280
 3770TIP3    H232802   6.331   3.488  17.300 -0.4532  0.1250 -0.0081
 3771TIP3   OH232803   4.474   4.716  14.357  0.0043  0.4894  0.4760
 3771TIP3    H132804   4.386   4.679  14.364 -0.4761  1.6201  0.6089
 3771TIP3    H232805   4.502   4.695  14.268 -0.3691  0.0545  0.4569
 3772TIP3   OH232806   3.979   5.219   4.236  0.3877  0.5297  0.1662
 3772TIP3    H132807   3.901   5.202   4.183 -0.2378  1.7982  0.6614
 3772TIP3    H232808   3.945   5.252   4.319  1.4285  0.2916  0.6999
 3773TIP3   OH232809   0.628   6.209  17.161  0.2292  0.9019 -0.5499
 3773TIP3    H132810   0.553   6.266  17.179 -0.5514  0.0847 -1.2043
 3773TIP3    H232811   0.639   6.157  17.241 -1.2044 -0.4322 -1.1921
 3774TIP3   OH232812   0.393   5.923  15.339 -0.0858 -0.2649  0.0607
 3774TIP3    H132813   0.408   5.992  15.275  0.4855 -1.0013 -0.6044
 3774TIP3    H232814   0.472   5.868  15.335 -0.5005 -0.9158  0.6336
 3775TIP3   OH232815   1.094   5.109  16.735  0.0073  0.1918  0.1512
 3775TIP3    H132816   1.033   5.042  16.764 -0.6905  1.1599  0.9310
 3775TIP3    H232817   1.157   5.117  16.807 -0.6845  1.3130  0.6447
 3776TIP3   OH232818   3.095   2.020   1.230 -0.4315 -0.0885 -0.5992
 3776TIP3    H132819   3.099   2.016   1.326 -1.0042 -0.8189 -0.6070
 3776TIP3    H232820   3.005   2.046   1.211 -0.3995 -0.2353 -0.9524
 3777TIP3   OH232821   4.126   5.209  11.908 -0.5888 -0.9099 -0.2296
 3777TIP3    H132822   4.212   5.250  11.912 -0.9119 -0.1662 -0.9795
 3777TIP3    H232823   4.126   5.148  11.982 -0.0440  0.2922  0.7695
 3778TIP3   OH232824   2.403   1.143  11.687  0.5004 -0.3616 -0.1266
 3778TIP3    H132825   2.433   1.067  11.737  0.1689 -0.5591 -0.2285
 3778TIP3    H232826   2.309   1.150  11.708  0.3002 -0.5980 -0.9200
 3779TIP3   OH232827   0.063   5.692   3.362  0.4903 -0.0230 -0.7389
 3779TIP3    H132828   0.147   5.651   3.340  0.9489 -0.1325  1.1099
 3779TIP3    H232829   0.086   5.763   3.421 -0.5888  0.9754 -1.4949
 3780TIP3   OH232830   5.770   1.703   0.391 -0.0716 -0.1105  0.2395
 3780TIP3    H132831   5.821   1.731   0.467  0.7403 -0.3031 -0.2344
 3780TIP3    H232832   5.820   1.630   0.354 -0.4697 -0.0237 -0.4729
 3781TIP3   OH232833   3.160   2.081  11.690 -0.1515 -0.1545 -0.1481
 3781TIP3    H132834   3.092   2.093  11.757 -0.1023  0.4055 -0.1919
 3781TIP3    H232835   3.228   2.144  11.714  1.1187 -1.8623  0.8534
 3782TIP3   OH232836   0.908   3.843   1.335 -0.0724 -0.0091 -0.5866
 3782TIP3    H132837   0.960   3.854   1.415 -0.5589 -0.5188 -0.1951
 3782TIP3    H232838   0.818   3.838   1.366 -0.1219 -1.9701 -1.0161
 3783TIP3   OH232839   2.152   4.208  14.667 -1.0301  0.0231  0.5416
 3783TIP3    H132840   2.239   4.212  14.627 -0.7083  0.6530  1.2871
 3783TIP3    H232841   2.117   4.297  14.657 -1.3309 -0.0663  0.8027
 3784TIP3   OH232842   2.870   5.805  12.919  0.0903 -0.1377 -0.5130
 3784TIP3    H132843   2.928   5.851  12.980  1.1180 -0.6448 -1.1054
 3784TIP3    H232844   2.877   5.855  12.838 -1.3700  0.6084 -0.2063
 3785TIP3   OH232845   4.118   1.192   3.296  0.0032  0.4448 -0.1133
 3785TIP3    H132846   4.104   1.103   3.330 -0.8818  0.2505 -0.9695
 3785TIP3    H232847   4.082   1.190   3.207 -0.3159  1.7488 -0.0276
 3786TIP3   OH232848   0.830   5.287  12.458 -0.1225 -0.4035 -0.6047
 3786TIP3    H132849   0.848   5.248  12.544  1.0499 -1.2981 -1.2389
 3786TIP3    H232850   0.900   5.351  12.446 -0.4850 -0.0303 -0.7550
 3787TIP3   OH232851   1.108   4.215  15.049 -0.4069  0.2697  0.8316
 3787TIP3    H132852   1.160   4.243  15.124 -0.0210 -2.1956  1.5096
 3787TIP3    H232853   1.160   4.146  15.008 -0.9766  1.0378 -1.2702
 3788TIP3   OH232854   5.057   1.416   4.426 -0.3099  0.5310  0.1256
 3788TIP3    H132855   4.970   1.377   4.416 -1.2510  2.0473  2.0426
 3788TIP3    H232856   5.110   1.373   4.360 -1.9298 -2.1762  0.5018
 3789TIP3   OH232857   0.306   2.479   4.219  0.3987 -0.0848 -0.6578
 3789TIP3    H132858   0.336   2.421   4.290  1.2244  1.2731  0.1120
 3789TIP3    H232859   0.214   2.457   4.208 -0.0553  0.5389  1.6934
 3790TIP3   OH232860   2.790   0.728   6.486 -0.2980  0.1564 -0.4639
 3790TIP3    H132861   2.796   0.647   6.436  0.6374  0.3040 -0.6123
 3790TIP3    H232862   2.704   0.725   6.528  0.0576 -1.2850  0.1807
 3791TIP3   OH232863   1.380   5.798  12.918 -0.1524 -0.3288  0.8185
 3791TIP3    H132864   1.439   5.791  12.843 -4.1845 -1.0149 -2.4980
 3791TIP3    H232865   1.376   5.892  12.937  2.0504 -0.2953  1.1762
 3792TIP3   OH232866   0.269   1.616   2.977  0.3670  0.2639 -0.3612
 3792TIP3    H132867   0.281   1.524   2.954  0.2163  0.5487 -1.6162
 3792TIP3    H232868   0.280   1.619   3.072 -2.4326 -1.5318  0.0942
 3793TIP3   OH232869   6.140   0.200   1.100  0.0357  0.4939 -0.0485
 3793TIP3    H132870   6.213   0.149   1.135  0.0450  0.3194 -0.3170
 3793TIP3    H232871   6.161   0.291   1.120 -1.0168  0.2491  2.3662
 3794TIP3   OH232872   1.643   1.589  16.183  0.4132  0.4755  0.7457
 3794TIP3    H132873   1.553   1.561  16.202  0.2576 -0.4034 -1.1152
 3794TIP3    H232874   1.635   1.679  16.154 -0.2307 -0.4030 -1.9459
 3795TIP3   OH232875   1.886   5.121  16.820  0.0376  0.0513  0.0173
 3795TIP3    H132876   1.827   5.133  16.894  2.2697  0.5480  1.7306
 3795TIP3    H232877   1.906   5.210  16.790  1.0547 -0.0587  0.3578
 3796TIP3   OH232878   1.348   2.172  11.113 -0.2651  0.3035  0.4149
 3796TIP3    H132879   1.309   2.232  11.177  1.2378  2.4736 -0.6446
 3796TIP3    H232880   1.296   2.183  11.034 -2.0676 -2.3174  1.1816
 3797TIP3   OH232881   4.639   6.700   3.393 -0.1335  0.3974 -0.3467
 3797TIP3    H132882   4.686   6.770   3.439 -0.7309  1.3609 -1.1970
 3797TIP3    H232883   4.613   6.640   3.463 -0.0164  1.2518  0.4505
 3798TIP3   OH232884   2.033   4.146  16.347  0.3706 -0.6022 -0.2455
 3798TIP3    H132885   2.058   4.224  16.298 -0.9052 -0.5491 -0.8250
 3798TIP3    H232886   1.982   4.094  16.285  1.1139 -1.8365  0.1789
 3799TIP3   OH232887   6.314   5.488   5.496  0.1141  0.1397  0.2180
 3799TIP3    H132888   6.219   5.495   5.509 -0.0014  0.0266 -0.5247
 3799TIP3    H232889   6.351   5.501   5.583 -0.5356  1.2432  0.3388
 3800TIP3   OH232890   3.796   2.564   4.393 -0.1221 -0.6634  0.1576
 3800TIP3    H132891   3.754   2.494   4.344  0.5845 -1.2321  0.3478
 3800TIP3    H232892   3.769   2.550   4.484 -0.9005 -0.0035  0.0322
 3801TIP3   OH232893   0.821   0.101   2.962  0.1083 -0.2634 -0.1852
 3801TIP3    H132894   0.765   0.089   3.038 -0.2047  3.9740  0.3828
 3801TIP3    H232895   0.910   0.084   2.995 -0.0126  1.6524  1.2185
 3802TIP3   OH232896   1.643   3.772  14.595  0.1468 -0.5062  0.2643
 3802TIP3    H132897   1.687   3.812  14.670  0.8795  0.8293 -0.8619
 3802TIP3    H232898   1.675   3.820  14.519 -0.4852 -1.9193 -0.9391
 3803TIP3   OH232899   1.855   2.193  15.014 -0.5029  0.4549 -0.2038
 3803TIP3    H132900   1.794   2.140  15.065 -0.2380  0.4852  0.1503
 3803TIP3    H232901   1.889   2.257  15.077  1.1616 -0.6224  0.0508
 3804TIP3   OH232902   3.525   5.046  16.146  0.0670 -0.2011 -0.3617
 3804TIP3    H132903   3.441   5.063  16.190  1.0061 -1.0354  1.8091
 3804TIP3    H232904   3.566   5.132  16.138 -0.7299  0.1367 -0.9285
 3805TIP3   OH232905   5.629   0.416  17.143  0.2164 -0.6598  0.1047
 3805TIP3    H132906   5.685   0.491  17.161 -0.3125 -0.3630  0.5364
 3805TIP3    H232907   5.622   0.370  17.226 -0.1706 -0.7085  0.0464
 3806TIP3   OH232908   5.697   0.033  11.856 -0.1505  0.0525 -0.1211
 3806TIP3    H132909   5.660  -0.040  11.905  1.5014 -1.5288 -1.1979
 3806TIP3    H232910   5.721   0.097  11.924  1.9374 -2.0269  1.1829
 3807TIP3   OH232911   0.971   1.438  12.135 -0.0905 -0.1139 -0.2839
 3807TIP3    H132912   0.937   1.515  12.089  0.6373  1.6323  2.0004
 3807TIP3    H232913   1.066   1.443  12.123  0.0810  0.2201  1.1685
 3808TIP3   OH232914   1.379   5.381   5.362  0.0517  0.1074 -0.0315
 3808TIP3    H132915   1.396   5.397   5.270  1.5360  2.8260  0.6460
 3808TIP3    H232916   1.446   5.431   5.408 -1.3606 -0.2480  2.5332
 3809TIP3   OH232917   0.385   6.033   2.955  0.6521 -0.8076 -0.1977
 3809TIP3    H132918   0.347   6.117   2.981  3.8844  1.2946 -1.9548
 3809TIP3    H232919   0.375   6.030   2.860  0.1433 -2.6875 -0.1081
 3810TIP3   OH232920   6.398   0.597  16.767  0.0613  0.2515  0.3050
 3810TIP3    H132921   6.485   0.559  16.761 -0.1997 -0.4105  0.7484
 3810TIP3    H232922   6.379   0.627  16.678  0.4528 -0.2284  0.0621
 3811TIP3   OH232923   4.381   4.911   3.159  0.4233  0.5608 -0.3201
 3811TIP3    H132924   4.388   5.002   3.132  0.3985  0.1419 -1.8298
 3811TIP3    H232925   4.464   4.872   3.130 -0.6935 -0.4957 -2.2388
 3812TIP3   OH232926   4.611   4.221   5.257  0.5597 -0.2890 -0.3466
 3812TIP3    H132927   4.675   4.184   5.196  1.2594  1.4062 -0.6929
 3812TIP3    H232928   4.638   4.313   5.266 -1.2680  0.2115  0.2381
 3813TIP3   OH232929   5.451   3.396   1.507  0.7118 -0.0520 -0.5293
 3813TIP3    H132930   5.428   3.305   1.488  0.5722  0.1740 -1.4602
 3813TIP3    H232931   5.541   3.392   1.538 -0.5348 -0.9509  3.2113
 3814TIP3   OH232932   3.376   2.496   2.971  0.1213 -0.4174  0.1438
 3814TIP3    H132933   3.423   2.450   2.901 -0.4744  0.1179 -0.6169
 3814TIP3    H232934   3.437   2.497   3.044  1.4695  0.6241 -0.9662
 3815TIP3   OH232935   4.760   2.390   2.170 -0.1224  0.2469 -0.0448
 3815TIP3    H132936   4.842   2.364   2.212  0.7427  0.3736 -1.6118
 3815TIP3    H232937   4.773   2.370   2.077 -2.0782 -0.2584 -0.2347
 3816TIP3   OH232938   4.690   3.660   2.958 -0.5956  0.3696  0.1765
 3816TIP3    H132939   4.661   3.647   2.868  0.7551  0.2113 -0.2464
 3816TIP3    H232940   4.723   3.574   2.986  3.4206  1.4763 -0.8237
 3817TIP3   OH232941   6.432   0.549  14.796 -0.2535  0.1458 -0.0327
 3817TIP3    H132942   6.368   0.551  14.867  0.0852  0.0234  0.2765
 3817TIP3    H232943   6.422   0.634  14.753  1.6141  1.4702  2.0134
 3818TIP3   OH232944   4.408   6.157  13.964  0.3819 -0.3235 -0.3253
 3818TIP3    H132945   4.325   6.145  14.011  0.5945  0.0589  0.1521
 3818TIP3    H232946   4.430   6.069  13.933  0.0294 -0.5089 -0.0599
 3819TIP3   OH232947   3.754   5.454  11.525  0.4766  0.3602 -0.3728
 3819TIP3    H132948   3.781   5.426  11.438 -1.6081  0.1269 -0.9712
 3819TIP3    H232949   3.793   5.540  11.536  1.4945  0.0100 -1.1732
 3820TIP3   OH232950   2.770   5.769   1.326 -0.1344 -0.0280 -0.6099
 3820TIP3    H132951   2.833   5.763   1.254  0.1315 -0.7591 -0.3233
 3820TIP3    H232952   2.684   5.760   1.284  0.0551 -1.4008 -0.7465
 3821TIP3   OH232953   0.263   2.597  12.644 -0.1521 -0.2157  0.2497
 3821TIP3    H132954   0.214   2.572  12.722 -0.0125  2.8252  1.3692
 3821TIP3    H232955   0.201   2.646  12.591  0.7197  0.7743  0.1159
 3822TIP3   OH232956   0.153   3.992   5.215  0.0724  0.2643  0.2850
 3822TIP3    H132957   0.079   3.978   5.155 -1.2218  0.8505  1.7136
 3822TIP3    H232958   0.224   3.940   5.177 -0.8548  0.2403 -1.4964
 3823TIP3   OH232959   4.365   5.453   1.039 -0.0231 -0.0333  0.5308
 3823TIP3    H132960   4.340   5.533   1.085  0.3148 -0.4085  1.3895
 3823TIP3    H232961   4.395   5.482   0.953  0.9846  0.8637  1.1708
 3824TIP3   OH232962   6.047   5.330  11.402 -0.0997  0.1968  0.1902
 3824TIP3    H132963   6.024   5.323  11.309  0.0174  0.2698  0.1560
 3824TIP3    H232964   6.022   5.245  11.439 -1.2538  0.5961  0.3349
 3825TIP3   OH232965   2.544   3.562  16.345  0.0190 -0.3829 -0.6251
 3825TIP3    H132966   2.516   3.599  16.428  0.0224 -0.7138 -0.4757
 3825TIP3    H232967   2.619   3.507  16.367  0.0414 -0.4448 -0.8527
 3826TIP3   OH232968   1.167   1.267  15.869 -0.0866  0.0313 -0.0308
 3826TIP3    H132969   1.164   1.300  15.779  2.4775 -1.2239 -0.6314
 3826TIP3    H232970   1.203   1.179  15.861 -2.8832 -1.3504  1.9524
 3827TIP3   OH232971   4.865   0.612   0.885 -0.0717 -0.2755 -0.8615
 3827TIP3    H132972   4.911   0.528   0.884  0.0947 -0.2171  0.5791
 3827TIP3    H232973   4.884   0.651   0.800  2.0220 -0.5411 -0.5423
 3828TIP3   OH232974   4.477   0.442  14.969 -0.9094  0.8188 -0.0832
 3828TIP3    H132975   4.426   0.517  14.939 -0.2631  1.5506  0.6223
 3828TIP3    H232976   4.510   0.469  15.054 -0.0827  0.0048 -0.1465
 3829TIP3   OH232977   0.603   6.796  14.610 -0.1813 -0.1037 -0.1630
 3829TIP3    H132978   0.658   6.811  14.533 -2.3767  0.0783 -1.7353
 3829TIP3    H232979   0.539   6.867  14.608 -1.5056 -1.2528  0.6861
 3830TIP3   OH232980   4.909   5.154   4.878 -0.1837  0.4754 -0.0764
 3830TIP3    H132981   5.000   5.184   4.882  0.3013 -0.9733 -0.0137
 3830TIP3    H232982   4.909   5.070   4.924 -1.5559  0.4726 -0.0592
 3831TIP3   OH232983   6.000   2.697   3.537  0.3201 -0.2765 -0.1327
 3831TIP3    H132984   5.905   2.697   3.549  0.1077 -0.0930 -1.6823
 3831TIP3    H232985   6.028   2.612   3.571 -0.5698 -0.8709 -0.8309
 3832TIP3   OH232986   6.130   0.582   1.878 -0.0873  0.6206  0.6637
 3832TIP3    H132987   6.203   0.573   1.938  1.0647  2.3018 -0.4330
 3832TIP3    H232988   6.078   0.654   1.913 -0.7082  0.0500  0.9251
 3833TIP3   OH232989   4.325   0.751  16.557  0.5393  0.3150 -0.1179
 3833TIP3    H132990   4.316   0.833  16.510  1.3483  1.1318  1.1218
 3833TIP3    H232991   4.403   0.763  16.612  2.2932 -2.2875 -1.9401
 3834TIP3   OH232992   5.654   2.965  14.438 -0.3947 -0.2835  0.2184
 3834TIP3    H132993   5.682   2.893  14.381 -1.3517 -0.0382 -0.5752
 3834TIP3    H232994   5.735   3.010  14.462  0.2297 -1.7358  0.8776
 3835TIP3   OH232995   3.405   5.015  16.575 -0.8258 -0.1608  0.0577
 3835TIP3    H132996   3.413   4.924  16.603  1.0676  0.0728  0.3811
 3835TIP3    H232997   3.333   5.051  16.628 -0.6475 -1.0923  0.9410
 3836TIP3   OH232998   3.235   6.724  11.740 -0.4019 -0.3191  0.6131
 3836TIP3    H132999   3.298   6.793  11.760 -0.1378 -0.1029 -0.9507
 3836TIP3    H233000   3.201   6.697  11.826  1.5351 -0.1823  1.4428
 3837TIP3   OH233001   0.076   0.735  16.857 -0.0330  0.3619 -0.0439
 3837TIP3    H133002   0.015   0.807  16.841  0.9126  0.3500 -4.2058
 3837TIP3    H233003   0.153   0.777  16.896 -0.2539  1.2969 -0.6024
 3838TIP3   OH233004   0.089   3.844   5.451  0.2715  0.0095 -0.1060
 3838TIP3    H133005   0.100   3.926   5.402  0.9858  0.4244  0.7272
 3838TIP3    H233006   0.156   3.849   5.520 -0.1512 -0.9581  0.3738
 3839TIP3   OH233007   3.438   0.868  14.054  0.0991  0.2621  0.1333
 3839TIP3    H133008   3.397   0.878  14.140  0.9488  3.3949  0.2406
 3839TIP3    H233009   3.372   0.821  14.002 -0.6237 -1.2463  2.3171
 3840TIP3   OH233010   4.004   0.410   1.017  0.4994 -0.4860 -0.1512
 3840TIP3    H133011   4.097   0.417   1.040  0.8004  0.1328 -1.4671
 3840TIP3    H233012   3.988   0.486   0.961 -1.2607  0.4033  1.5037
 3841TIP3   OH233013   6.416   0.325   1.002 -0.5087 -0.3030 -0.0706
 3841TIP3    H133014   6.502   0.358   0.979 -0.6681  0.8288  0.9078
 3841TIP3    H233015   6.429   0.285   1.088 -1.1779  0.8481  0.5792
 3842TIP3   OH233016   3.582   5.702  14.080 -0.0376  0.1235 -0.2557
 3842TIP3    H133017   3.490   5.727  14.068  0.1245 -0.1513 -2.3699
 3842TIP3    H233018   3.580   5.633  14.147 -1.3376  0.3512 -0.0479
 3843TIP3   OH233019   6.559   3.072   4.094  0.0208 -0.3137 -0.5181
 3843TIP3    H133020   6.494   3.005   4.117 -0.2386  0.0254 -0.2702
 3843TIP3    H233021   6.570   3.124   4.173  0.6780 -0.4319 -0.5264
 3844TIP3   OH233022   2.641   2.248   3.615  0.4596  0.2664  0.6746
 3844TIP3    H133023   2.657   2.312   3.545  1.4939  1.5040  2.0141
 3844TIP3    H233024   2.598   2.299   3.684  0.3724 -0.7182  1.3454
 3845TIP3   OH233025   3.787   0.582   4.129  0.6422 -0.7279  0.5954
 3845TIP3    H133026   3.865   0.534   4.101 -0.5689 -1.0751 -2.3222
 3845TIP3    H233027   3.764   0.638   4.055  0.1434  2.0629  2.7264
 3846TIP3   OH233028   4.389   2.279   4.360  0.1346  0.3782 -0.4610
 3846TIP3    H133029   4.325   2.350   4.364 -2.0814 -1.6407  1.9150
 3846TIP3    H233030   4.350   2.215   4.301  1.5876  0.6231 -1.7042
 3847TIP3   OH233031   2.782   5.545   2.319  0.2478  0.3294 -0.2410
 3847TIP3    H133032   2.784   5.639   2.335 -2.1113  0.4503 -0.4073
 3847TIP3    H233033   2.738   5.537   2.234 -2.2524 -1.0163  1.1136
 3848TIP3   OH233034   0.709   4.904  17.157  0.3642  0.3336  0.3039
 3848TIP3    H133035   0.646   4.843  17.119  0.9828 -0.6517  0.8491
 3848TIP3    H233036   0.677   4.917  17.247  1.3350 -0.7484  0.8217
 3849TIP3   OH233037   4.230   4.035  16.593  0.0323  0.3021  0.3414
 3849TIP3    H133038   4.138   4.048  16.572 -0.2331 -0.9743  0.6524
 3849TIP3    H233039   4.236   4.052  16.687 -0.1421 -0.8319  0.5707
 3850TIP3   OH233040   6.745   1.065  14.370  0.0394 -0.1719  0.5021
 3850TIP3    H133041   6.664   1.020  14.391  1.3707 -2.9217  0.0819
 3850TIP3    H233042   6.772   1.107  14.452  1.4695 -4.6831  2.5179
 3851TIP3   OH233043   1.132   3.123  14.702 -0.6230 -0.0583  0.4643
 3851TIP3    H133044   1.115   3.105  14.794 -2.7253  0.8029  0.2695
 3851TIP3    H233045   1.163   3.213  14.701  1.2145 -0.6767  0.5079
 3852TIP3   OH233046   3.288   1.401  16.831 -0.2015  0.0035 -0.4467
 3852TIP3    H133047   3.375   1.427  16.861 -0.2558 -1.2386  0.8275
 3852TIP3    H233048   3.303   1.320  16.782 -0.6407 -0.1879 -0.2651
 3853TIP3   OH233049   1.195   4.973  12.067 -0.3135  0.5091  0.6020
 3853TIP3    H133050   1.246   5.053  12.051  0.3155  0.5730  2.7634
 3853TIP3    H233051   1.105   4.997  12.044  0.3380  0.9107 -1.6202
 3854TIP3   OH233052   1.392   6.743  13.848 -0.1765 -0.1929 -0.0643
 3854TIP3    H133053   1.364   6.830  13.874 -0.0060  0.0154 -0.5562
 3854TIP3    H233054   1.488   6.745  13.857  0.0318  0.3417 -1.9860
 3855TIP3   OH233055   5.957   1.539   5.937 -0.1538  0.0575 -0.3608
 3855TIP3    H133056   6.012   1.615   5.919 -1.7861  1.2618 -0.3989
 3855TIP3    H233057   5.990   1.505   6.020  0.3577  1.0455 -0.1522
 3856TIP3   OH233058   0.468   5.016   2.879  0.6439 -0.1067 -0.5388
 3856TIP3    H133059   0.415   5.074   2.934 -0.8322 -1.1001 -0.8910
 3856TIP3    H233060   0.405   4.974   2.821  1.7969 -1.4447 -0.8446
 3857TIP3   OH233061   3.368   4.054   3.207  0.3775 -0.2650 -0.2401
 3857TIP3    H133062   3.386   3.970   3.164 -1.2106 -0.4075 -0.6972
 3857TIP3    H233063   3.365   4.118   3.135 -1.5668 -0.3827 -0.3121
 3858TIP3   OH233064   1.207   3.609  13.772 -0.0161  0.6889 -0.3802
 3858TIP3    H133065   1.171   3.658  13.846 -0.1622  1.0896 -0.7134
 3858TIP3    H233066   1.268   3.669  13.730  0.0694  0.4635 -0.5796
 3859TIP3   OH233067   6.007   6.276   3.667 -0.2402 -0.4749  0.3647
 3859TIP3    H133068   6.002   6.182   3.684  0.3467 -0.6929 -0.6669
 3859TIP3    H233069   6.097   6.300   3.689 -0.1606 -0.3002 -0.1644
 3860TIP3   OH233070   0.840   0.670   3.808  0.6189  0.6262 -0.3486
 3860TIP3    H133071   0.770   0.675   3.874 -0.1840 -0.8653 -1.0472
 3860TIP3    H233072   0.904   0.610   3.846 -0.1769 -0.7942 -1.1795
 3861TIP3   OH233073   4.988   4.258   4.665  0.2515 -0.9575  0.6131
 3861TIP3    H133074   4.895   4.252   4.641  0.8680  0.8841 -2.6302
 3861TIP3    H233075   5.028   4.181   4.626  0.7935  0.6474 -2.1829
 3862TIP3   OH233076   6.738   2.397  15.239 -0.5726  0.1662 -0.4463
 3862TIP3    H133077   6.800   2.331  15.209 -0.9274  0.1234 -1.0900
 3862TIP3    H233078   6.681   2.350  15.300 -0.8128 -0.1138 -0.8889
 3863TIP3   OH233079   4.797   6.051   4.542  0.4833 -1.0502 -0.9340
 3863TIP3    H133080   4.887   6.061   4.573  0.6395 -0.0232 -1.6913
 3863TIP3    H233081   4.744   6.100   4.605  0.6096 -0.4824 -1.2625
 3864TIP3   OH233082   1.236   5.000   6.279 -0.0771 -0.4767  0.6792
 3864TIP3    H133083   1.306   4.966   6.335  0.6371 -1.0907 -0.5657
 3864TIP3    H233084   1.156   4.982   6.328  0.6415  0.5536  2.2885
 3865TIP3   OH233085   5.151   0.498  15.291  0.1744 -0.3852 -0.4307
 3865TIP3    H133086   5.091   0.475  15.220 -0.0279  1.6266 -0.9386
 3865TIP3    H233087   5.234   0.458  15.266 -0.0727 -0.2662 -1.4725
 3866TIP3   OH233088   3.716   5.710   1.977 -0.4384  0.1294  0.1641
 3866TIP3    H133089   3.751   5.633   1.931 -1.5190  0.3472 -1.0400
 3866TIP3    H233090   3.751   5.785   1.929 -1.6578  0.3603 -0.3545
 3867TIP3   OH233091   5.521   5.986  14.708 -0.2575 -0.2530 -0.0877
 3867TIP3    H133092   5.431   5.962  14.729 -0.2938  0.5922  0.7562
 3867TIP3    H233093   5.560   6.013  14.791  0.9462 -1.1309 -0.3561
 3868TIP3   OH233094   5.235   4.801   4.314  0.0479 -0.1699  0.4929
 3868TIP3    H133095   5.167   4.840   4.369  1.1987 -0.2429  2.0115
 3868TIP3    H233096   5.192   4.786   4.229 -2.8313 -3.2578  2.3560
 3869TIP3   OH233097   3.010   3.268  11.523  0.1478  0.9414 -0.7198
 3869TIP3    H133098   2.988   3.186  11.478  1.4942  0.0991  0.1322
 3869TIP3    H233099   2.967   3.336  11.471 -1.6741 -0.3626 -0.9834
 3870TIP3   OH233100   5.167   1.865  15.460  0.2587  0.1085 -0.0113
 3870TIP3    H133101   5.252   1.894  15.492  0.1802 -0.2523  0.5463
 3870TIP3    H233102   5.165   1.891  15.368  0.4790  1.1944  0.2895
 3871TIP3   OH233103   4.247   6.138   4.357 -0.0254  0.1522 -0.6056
 3871TIP3    H133104   4.160   6.124   4.317 -0.5143 -1.0997  0.8360
 3871TIP3    H233105   4.295   6.057   4.336  0.2165  0.1277  0.0385
 3872TIP3   OH233106   2.978   2.361   0.839 -0.2732 -0.5219  0.0429
 3872TIP3    H133107   2.986   2.389   0.930 -0.7810  0.8967 -0.3253
 3872TIP3    H233108   2.885   2.376   0.818  0.3930  1.6795 -1.4864
 3873TIP3   OH233109   1.610   4.404  17.176  0.0869 -0.1671  0.3953
 3873TIP3    H133110   1.569   4.364  17.253  0.2115 -1.9979 -0.4792
 3873TIP3    H233111   1.704   4.385  17.187  0.3680  1.2886  0.7701
 3874TIP3   OH233112   4.897   0.267   2.153  0.4790  0.0043 -0.2230
 3874TIP3    H133113   4.801   0.269   2.151  0.4572 -0.6514  0.1234
 3874TIP3    H233114   4.919   0.270   2.246  0.8295  1.5245 -0.3522
 3875TIP3   OH233115   4.577   5.534   3.466 -0.1958  0.1642 -0.2088
 3875TIP3    H133116   4.667   5.557   3.440  0.4923 -0.3274  1.6520
 3875TIP3    H233117   4.544   5.481   3.394  2.1673 -2.4038  0.5345
 3876TIP3   OH233118   0.388   2.094  13.216  0.3906  0.1027  0.7005
 3876TIP3    H133119   0.374   2.035  13.142  0.6123  0.7212  0.1615
 3876TIP3    H233120   0.339   2.174  13.192  0.5569  0.3433  1.1681
 3877TIP3   OH233121   0.565   2.190   3.131  0.4395 -0.6774  0.9311
 3877TIP3    H133122   0.555   2.096   3.149  2.2019 -0.9101  0.7784
 3877TIP3    H233123   0.503   2.207   3.060 -0.4220 -1.5632  1.4521
 3878TIP3   OH233124   5.146   3.898  14.370  0.0741  0.0822 -0.6911
 3878TIP3    H133125   5.240   3.905  14.350  0.4804 -1.0963  0.7061
 3878TIP3    H233126   5.104   3.958  14.308  1.6199 -0.4749 -2.3360
 3879TIP3   OH233127   6.053   4.887  11.204 -0.4195 -0.7112  0.1968
 3879TIP3    H133128   6.033   4.931  11.121  0.1229  0.7221  0.8186
 3879TIP3    H233129   6.117   4.820  11.181 -0.0408 -0.1125 -0.4989
 3880TIP3   OH233130   1.385   4.990  11.645  0.3638  0.3454  0.2700
 3880TIP3    H133131   1.363   4.908  11.689 -0.7453  0.9849  0.9384
 3880TIP3    H233132   1.385   4.968  11.552  0.3160 -0.4700  0.4594
 3881TIP3   OH233133   0.836   3.063  14.711 -0.2238 -0.4315  0.2532
 3881TIP3    H133134   0.754   3.014  14.711 -0.0445 -0.7690 -1.3195
 3881TIP3    H233135   0.888   3.024  14.780 -0.7049 -1.4018  0.0729
 3882TIP3   OH233136   2.179   5.899   5.033  0.1372  0.3454 -0.5025
 3882TIP3    H133137   2.095   5.900   4.987  0.7081 -1.4022 -1.6741
 3882TIP3    H233138   2.242   5.929   4.967  0.6506  0.0307 -0.1572
 3883TIP3   OH233139   5.066   5.902   4.597 -0.5143 -0.0395  0.3622
 3883TIP3    H133140   5.096   5.812   4.583 -0.1693 -0.0395  1.0974
 3883TIP3    H233141   5.028   5.901   4.685 -0.9609  0.4147  0.1779
 3884TIP3   OH233142   1.754   0.041  12.747 -0.2512 -0.8753 -0.0472
 3884TIP3    H133143   1.756   0.134  12.727 -0.2634 -1.3510 -2.3696
 3884TIP3    H233144   1.847   0.015  12.751 -0.2551 -0.8532  0.2204
 3885TIP3   OH233145   0.591   5.403   0.637  0.2055 -0.2679  0.1112
 3885TIP3    H133146   0.522   5.371   0.696  1.1446 -0.3285  1.1956
 3885TIP3    H233147   0.554   5.481   0.596 -1.3606 -1.5778 -1.0347
 3886TIP3   OH233148   6.584   0.630  12.860  0.3822  0.9379 -0.3788
 3886TIP3    H133149   6.609   0.547  12.820  0.6944  1.6042 -1.6207
 3886TIP3    H233150   6.515   0.665  12.803 -1.1066  0.6433  1.2100
 3887TIP3   OH233151   3.714   4.340  13.907  0.8812 -0.1401 -0.0219
 3887TIP3    H133152   3.764   4.416  13.936  0.9171 -0.3000  0.3380
 3887TIP3    H233153   3.780   4.272  13.891  0.8093 -0.2536  0.1520
 3888TIP3   OH233154   2.353   1.589  15.525  0.0031  0.3408  0.1670
 3888TIP3    H133155   2.265   1.553  15.510  0.9405 -1.5008 -1.1574
 3888TIP3    H233156   2.363   1.657  15.458 -0.9690  1.6480  1.3120
 3889TIP3   OH233157   0.796   0.290  15.159 -0.2303  0.2515  0.3132
 3889TIP3    H133158   0.767   0.288  15.068 -1.8976  0.1851  0.8314
 3889TIP3    H233159   0.858   0.363  15.163 -1.7855  1.6477 -0.4093
 3890TIP3   OH233160   5.032   5.084  12.994  0.2825  0.0684 -0.3638
 3890TIP3    H133161   5.019   5.012  12.933 -2.1771  1.0604 -1.0847
 3890TIP3    H233162   4.943   5.110  13.019  1.0005  3.9174 -1.4401
 3891TIP3   OH233163   3.214   6.219   5.618 -0.1030 -0.1144 -0.2880
 3891TIP3    H133164   3.199   6.254   5.530  0.7119  1.2273  0.0956
 3891TIP3    H233165   3.308   6.227   5.632 -0.0201 -1.6927  0.1474
 3892TIP3   OH233166   5.912   1.195   4.717 -0.6274 -0.2648 -0.1663
 3892TIP3    H133167   5.885   1.107   4.689 -0.4482 -0.2554 -0.3724
 3892TIP3    H233168   5.902   1.249   4.640 -2.8985  0.3944  0.5594
 3893TIP3   OH233169   0.389   5.612   3.932  0.1621  0.4397  0.7909
 3893TIP3    H133170   0.375   5.687   3.989 -1.0665  0.4176  0.5364
 3893TIP3    H233171   0.310   5.558   3.943  0.2832  0.0156 -0.2775
 3894TIP3   OH233172   3.850   3.248   4.790  1.2200  0.3642  0.0865
 3894TIP3    H133173   3.879   3.308   4.858  2.4740  1.3945 -1.3238
 3894TIP3    H233174   3.784   3.297   4.741  1.2081  0.0774 -0.1906
 3895TIP3   OH233175   6.025   5.007   0.915 -0.6439 -0.2308 -0.3225
 3895TIP3    H133176   6.093   4.956   0.871  0.8857  1.3606  0.1128
 3895TIP3    H233177   6.047   5.001   1.008 -2.1089 -1.1031 -0.0208
 3896TIP3   OH233178   1.410   6.212   3.966 -0.0010  0.1066 -0.4715
 3896TIP3    H133179   1.485   6.227   4.025 -1.1381  1.6700  0.6082
 3896TIP3    H233180   1.419   6.280   3.899  0.2479 -0.5116 -1.0719
 3897TIP3   OH233181   5.001   5.417  13.059 -0.5747 -0.0436 -0.0122
 3897TIP3    H133182   5.037   5.373  12.982  0.3672  1.3142 -0.3614
 3897TIP3    H233183   5.067   5.483  13.083 -1.3971  0.3520  1.2418
 3898TIP3   OH233184   1.841   0.223   6.439  0.0768  0.0160 -0.1110
 3898TIP3    H133185   1.750   0.194   6.442  0.3049 -0.6155  0.8806
 3898TIP3    H233186   1.871   0.218   6.530  1.0264  0.4534 -0.3950
 3899TIP3   OH233187   0.838   6.322  14.595 -0.0866 -0.0783  0.1235
 3899TIP3    H133188   0.760   6.307  14.647  0.2167  0.5808  0.7762
 3899TIP3    H233189   0.903   6.355  14.657  1.0981 -1.7685 -0.1823
 3900TIP3   OH233190   4.797   1.799   4.424  0.1295 -0.3364  0.3349
 3900TIP3    H133191   4.748   1.724   4.392 -1.8421  0.4058  1.5096
 3900TIP3    H233192   4.734   1.850   4.475  1.6702  1.5979  0.4115
 3901TIP3   OH233193   2.288   2.623  11.868 -0.0082 -0.1396  0.3528
 3901TIP3    H133194   2.227   2.658  11.804 -1.9569 -0.0971  2.1628
 3901TIP3    H233195   2.308   2.697  11.925 -2.3897 -1.3418  2.8668
 3902TIP3   OH233196   3.344   0.593  13.699  0.1310  0.0005 -0.0819
 3902TIP3    H133197   3.273   0.657  13.703 -0.0465 -0.2476  0.7763
 3902TIP3    H233198   3.421   0.644  13.672  0.0214  0.5951  0.7115
 3903TIP3   OH233199   6.379   6.368  17.291 -0.2652  0.0966  0.3238
 3903TIP3    H133200   6.440   6.434  17.325 -1.9652  0.9883  1.7373
 3903TIP3    H233201   6.435   6.296  17.262  1.5790  1.7210 -0.3136
 3904TIP3   OH233202   2.719   4.114   2.257 -0.1366 -0.6343 -0.2544
 3904TIP3    H133203   2.708   4.064   2.338 -0.7273  2.0451  1.4234
 3904TIP3    H233204   2.659   4.189   2.268  2.1767  1.5002 -1.6993
 3905TIP3   OH233205   4.217   2.028  16.704  0.1827  0.3332 -0.9051
 3905TIP3    H133206   4.231   2.113  16.746 -1.4314 -0.3657  1.0760
 3905TIP3    H233207   4.169   2.049  16.624 -1.9361  1.1157  0.5562
 3906TIP3   OH233208   2.358   4.700  12.975  0.3839 -0.1344 -0.3201
 3906TIP3    H133209   2.342   4.626  12.916  0.3331 -0.6721  0.3638
 3906TIP3    H233210   2.287   4.761  12.956 -0.8073 -1.2006  0.5917
 3907TIP3   OH233211   5.492   5.667   3.757  0.2212 -0.0125  0.2285
 3907TIP3    H133212   5.402   5.663   3.727  0.3686 -0.8547 -0.1349
 3907TIP3    H233213   5.539   5.608   3.697  1.3542  1.8786 -0.8003
 3908TIP3   OH233214   0.700   3.983  14.256 -0.2733  0.2826 -0.1784
 3908TIP3    H133215   0.701   4.076  14.275 -0.9150  0.5069 -1.2497
 3908TIP3    H233216   0.619   3.951  14.297 -1.3542  0.6592 -2.0053
 3909TIP3   OH233217   2.675   6.441  17.223 -0.2580 -0.5395  0.5198
 3909TIP3    H133218   2.683   6.405  17.311  0.0230  1.4118  1.3140
 3909TIP3    H233219   2.677   6.536  17.236  0.1067 -0.2397 -1.6182
 3910TIP3   OH233220   1.193   4.241   5.632 -0.5519  0.2141  0.3645
 3910TIP3    H133221   1.255   4.288   5.577 -1.6669  1.5537  0.2332
 3910TIP3    H233222   1.131   4.202   5.570 -1.7445  1.6298  0.6465
 3911TIP3   OH233223   4.249   0.880  12.623  0.2073  0.0111 -0.2708
 3911TIP3    H133224   4.171   0.896  12.676  0.2961  0.9310 -0.4086
 3911TIP3    H233225   4.313   0.943  12.656  0.9584 -0.8647 -0.0280
 3912TIP3   OH233226   4.713   5.590   2.352  0.1331  0.2256  0.1567
 3912TIP3    H133227   4.682   5.661   2.408  0.3351  1.2294 -0.9694
 3912TIP3    H233228   4.805   5.611   2.335 -0.4618  1.1317 -2.2761
 3913TIP3   OH233229   4.695   1.751  15.380  0.3938  0.1092  0.5508
 3913TIP3    H133230   4.778   1.710  15.355  0.2553  0.2944 -0.2239
 3913TIP3    H233231   4.643   1.752  15.299 -1.0874 -1.7130  1.4437
 3914TIP3   OH233232   3.768   4.209   0.045  0.0649  0.0818  0.6252
 3914TIP3    H133233   3.674   4.225   0.044 -0.0391 -0.4542  1.1863
 3914TIP3    H233234   3.780   4.139   0.110  0.7698 -0.3481  0.0436
 3915TIP3   OH233235   3.684   0.430  16.929  0.3331  0.3412 -0.3296
 3915TIP3    H133236   3.749   0.360  16.929  2.8812  2.6048  1.5896
 3915TIP3    H233237   3.629   0.412  17.005 -1.1381 -1.3449 -1.7242
 3916TIP3   OH233238   5.233   6.058  12.986 -0.1493  0.3790  0.0151
 3916TIP3    H133239   5.161   6.119  13.005 -0.4477 -0.6180  2.3352
 3916TIP3    H233240   5.311   6.102  13.022 -0.2647 -0.2950  1.1172
 3917TIP3   OH233241   6.802   3.933   4.038  0.0933  0.1951  0.3692
 3917TIP3    H133242   6.764   3.845   4.042  0.2281 -0.1200 -3.2786
 3917TIP3    H233243   6.885   3.921   3.993  0.3352  2.1352  0.2460
 3918TIP3   OH233244   4.815   4.257  13.652 -0.4351 -0.5194  0.7719
 3918TIP3    H133245   4.758   4.321  13.608 -0.3680 -1.0610 -0.1246
 3918TIP3    H233246   4.895   4.258  13.600 -0.1328 -0.7342  1.2401
 3919TIP3   OH233247   6.620   6.693   5.647  0.0037 -0.2621  0.6041
 3919TIP3    H133248   6.578   6.749   5.712 -0.5725  1.3579 -1.1128
 3919TIP3    H233249   6.714   6.704   5.663 -0.0799  2.0275 -0.3658
 3920TIP3   OH233250   4.721   5.314   6.071  0.2485  0.1876  0.5449
 3920TIP3    H133251   4.665   5.345   6.142 -1.5885  2.0033 -1.6227
 3920TIP3    H233252   4.795   5.375   6.071 -0.3739  0.9509  0.1088
 3921TIP3   OH233253   1.833   0.974  11.426  0.7463 -0.1275  0.1181
 3921TIP3    H133254   1.910   1.002  11.377  0.8514  1.3987  1.1219
 3921TIP3    H233255   1.771   0.945  11.359  0.9314  1.8277 -0.9341
 3922TIP3   OH233256   5.071   1.079  11.878 -0.2804 -0.4470  0.2657
 3922TIP3    H133257   5.106   1.012  11.821  2.7415  0.9534  0.3767
 3922TIP3    H233258   4.987   1.104  11.838 -0.5342 -2.9118 -0.7844
 3923TIP3   OH233259   5.007   1.037  11.608  0.3112  0.3191 -0.5797
 3923TIP3    H133260   5.060   1.115  11.592 -1.1645  1.4174 -0.1571
 3923TIP3    H233261   4.929   1.069  11.651 -1.2252 -1.1362 -2.2056
 3924TIP3   OH233262   1.595   1.244  15.066 -0.1610 -0.1138  0.0481
 3924TIP3    H133263   1.552   1.323  15.098  0.0863  0.1830 -0.3411
 3924TIP3    H233264   1.674   1.236  15.119 -0.2509 -0.1697  0.1735
 3925TIP3   OH233265   2.199   1.908  14.861  0.0252 -0.0624 -0.7022
 3925TIP3    H133266   2.122   1.852  14.857  0.5801 -0.9283  0.3055
 3925TIP3    H233267   2.267   1.853  14.899  0.6979  1.1673 -0.0664
 3926TIP3   OH233268   4.946   2.886   2.663 -0.1992  0.2187 -0.4083
 3926TIP3    H133269   4.981   2.797   2.666  2.1372  1.0542 -1.4549
 3926TIP3    H233270   4.862   2.878   2.617  0.0813 -1.4089 -0.6506
 3927TIP3   OH233271   5.940   0.931   3.289 -0.1583 -0.0386 -0.6066
 3927TIP3    H133272   5.866   0.984   3.319 -0.2735 -0.6743  0.2325
 3927TIP3    H233273   5.915   0.905   3.200 -0.6758  0.2465 -0.5492
 3928TIP3   OH233274   4.748   0.157   4.084  0.6764  0.4799 -0.4503
 3928TIP3    H133275   4.678   0.097   4.107  0.9614  0.2380 -0.2050
 3928TIP3    H233276   4.803   0.161   4.162  1.1408  0.3793 -0.7670
 3929TIP3   OH233277   4.675   5.959   5.376  0.3602 -0.0813  0.3573
 3929TIP3    H133278   4.599   5.984   5.325 -0.4347 -0.2851  1.4194
 3929TIP3    H233279   4.668   5.864   5.385  2.2728 -0.4980 -1.9347
 3930TIP3   OH233280   3.623   3.873   3.834 -0.8178  0.4351 -0.7321
 3930TIP3    H133281   3.704   3.922   3.826 -0.0462 -0.5085  0.9033
 3930TIP3    H233282   3.555   3.939   3.848  0.2752  1.0478  1.9761
 3931TIP3   OH233283   0.991   0.722   1.931  0.7573 -0.2696  0.1949
 3931TIP3    H133284   0.962   0.635   1.956  0.3206 -0.3352 -0.5341
 3931TIP3    H233285   1.080   0.729   1.966  2.0839 -2.2644 -2.5976
 3932TIP3   OH233286   0.061   3.841  14.107  0.1312  0.4310 -0.4733
 3932TIP3    H133287   0.060   3.889  14.025 -0.7778  1.0003 -0.1361
 3932TIP3    H233288   0.027   3.754  14.084 -0.5437  0.7297 -0.6182
 3933TIP3   OH233289   2.633   6.056  16.545 -0.0351  0.3573  0.1646
 3933TIP3    H133290   2.712   6.001  16.542 -0.3596 -0.0223 -1.5897
 3933TIP3    H233291   2.665   6.145  16.533  0.2485  0.3468  0.7787
 3934TIP3   OH233292   2.408   3.211  14.713  0.3382 -0.4169 -0.2759
 3934TIP3    H133293   2.433   3.139  14.655 -1.1141  0.9312 -2.6892
 3934TIP3    H233294   2.332   3.178  14.761 -1.7342  0.1997 -3.0029
 3935TIP3   OH233295   0.361   4.645  11.873  0.4198 -0.3419 -0.1785
 3935TIP3    H133296   0.327   4.657  11.785 -0.4359  1.7259  0.4087
 3935TIP3    H233297   0.448   4.686  11.871 -0.1093  0.8237  0.2578
 3936TIP3   OH233298   0.317   1.829   5.450  0.7972 -0.5267 -0.4591
 3936TIP3    H133299   0.273   1.804   5.369 -1.4912  1.6366  0.0401
 3936TIP3    H233300   0.268   1.783   5.519 -0.6052  1.7138  0.0827
 3937TIP3   OH233301   3.490   3.795   2.519 -0.0314 -0.1428 -0.0683
 3937TIP3    H133302   3.531   3.793   2.432  1.2342  0.7139  0.4894
 3937TIP3    H233303   3.406   3.839   2.505  1.0182  1.7599 -0.5356
 3938TIP3   OH233304   0.442   1.195   0.510  0.7908  0.1081  0.4002
 3938TIP3    H133305   0.441   1.223   0.418  2.0942 -0.1486  0.3033
 3938TIP3    H233306   0.499   1.118   0.511  0.9814  0.2587  1.4704
 3939TIP3   OH233307   5.319   4.939  14.524 -0.1239  0.0475  0.3488
 3939TIP3    H133308   5.385   4.997  14.487  0.0551 -0.0109  0.5784
 3939TIP3    H233309   5.347   4.924  14.614  0.1601 -0.8840  0.1148
 3940TIP3   OH233310   6.483   5.014  13.990  0.5028 -0.0229  0.2761
 3940TIP3    H133311   6.496   4.922  13.971  2.0653  0.3121 -0.3021
 3940TIP3    H233312   6.518   5.026  14.078 -1.7172 -0.4146  1.2620
 3941TIP3   OH233313   2.424   1.850  12.193 -0.1887 -0.0545 -0.2670
 3941TIP3    H133314   2.483   1.899  12.251  1.5158  0.0929 -2.0699
 3941TIP3    H233315   2.365   1.804  12.253  1.3047  0.3584  1.5823
 3942TIP3   OH233316   3.306   4.116  15.339 -0.3624 -0.2383 -0.4934
 3942TIP3    H133317   3.387   4.068  15.355 -0.3090 -0.4748 -1.4607
 3942TIP3    H233318   3.250   4.092  15.413  0.0137 -1.0368 -0.4570
 3943TIP3   OH233319   1.915   5.731   3.989  0.4862  0.1170  0.4488
 3943TIP3    H133320   1.877   5.729   4.076 -0.7503 -0.9730 -0.1010
 3943TIP3    H233321   1.913   5.824   3.964 -0.7912  0.2059  0.8783
 3944TIP3   OH233322   4.019   3.745  14.769 -0.8706  0.0841 -0.0491
 3944TIP3    H133323   3.954   3.674  14.764 -0.1290 -0.7517  1.4947
 3944TIP3    H233324   3.972   3.818  14.808 -1.0940 -0.2674  0.3457
 3945TIP3   OH233325   2.275   1.597   4.624  0.1594  0.2151  0.5551
 3945TIP3    H133326   2.249   1.653   4.697 -0.5089 -0.2427  0.6689
 3945TIP3    H233327   2.371   1.600   4.624  0.1112  2.3492 -0.1933
 3946TIP3   OH233328   6.047   2.055  16.547 -0.1723 -0.0465 -0.2972
 3946TIP3    H133329   5.959   2.047  16.584  1.3581 -2.6372  3.0595
 3946TIP3    H233330   6.042   2.007  16.464 -2.4256  1.6282 -1.1734
 3947TIP3   OH233331   0.649   6.498  15.664  0.1173  0.1326 -0.0081
 3947TIP3    H133332   0.721   6.452  15.707  1.1874  1.5529 -0.2393
 3947TIP3    H233333   0.651   6.586  15.703 -0.2852  0.7654 -1.3932
 3948TIP3   OH233334   4.102   3.237  15.411  0.2101 -0.0553 -0.0381
 3948TIP3    H133335   4.188   3.256  15.448 -0.3233  0.7060  0.8199
 3948TIP3    H233336   4.050   3.204  15.484 -0.3577 -0.1055 -0.4512
 3949TIP3   OH233337   4.961   5.142   4.566 -1.0726  0.3898 -0.2332
 3949TIP3    H133338   4.910   5.096   4.634 -0.2222 -1.5176 -0.8574
 3949TIP3    H233339   4.931   5.103   4.484  0.3810  0.2528 -0.7079
 3950TIP3   OH233340   2.684   4.832  14.057 -0.5720 -0.5230 -0.0562
 3950TIP3    H133341   2.754   4.884  14.019 -0.6228  0.0671  0.6670
 3950TIP3    H233342   2.682   4.856  14.149 -0.6010 -1.7949  0.2893
 3951TIP3   OH233343   3.186   6.818   5.410  0.1076  0.5158  0.6866
 3951TIP3    H133344   3.155   6.909   5.410 -0.8137  0.2065 -0.7179
 3951TIP3    H233345   3.138   6.776   5.339  1.4425 -0.7719  0.5269
 3952TIP3   OH233346   3.569   2.332   2.282 -0.2324  0.1799 -0.2820
 3952TIP3    H133347   3.534   2.245   2.261  2.1168 -1.4014  2.1341
 3952TIP3    H233348   3.596   2.367   2.197 -3.8224 -0.2057 -1.6835
 3953TIP3   OH233349   5.033   5.023  13.818  0.0937  0.3712  0.4070
 3953TIP3    H133350   5.070   4.935  13.827 -0.0442  0.4222  1.5095
 3953TIP3    H233351   4.968   5.029  13.888 -0.5843  1.0059 -0.2677
 3954TIP3   OH233352   4.737   1.439  15.101  0.2106  0.0612 -0.4071
 3954TIP3    H133353   4.776   1.385  15.032  0.0141  2.1866 -2.2390
 3954TIP3    H233354   4.812   1.479  15.145  0.3327 -1.2301  0.5888
 3955TIP3   OH233355   1.555   1.697   1.241 -0.0531  0.3004 -0.4844
 3955TIP3    H133356   1.549   1.683   1.335  2.3413  1.7701 -0.0741
 3955TIP3    H233357   1.623   1.636   1.212  0.0918  0.7250 -1.0516
 3956TIP3   OH233358   3.347   2.552   3.989 -0.2430 -0.3869 -0.1187
 3956TIP3    H133359   3.359   2.588   3.902 -0.8103  0.1064  0.0086
 3956TIP3    H233360   3.382   2.618   4.048  1.6488 -1.4099 -0.0372
 3957TIP3   OH233361   4.020   5.289   3.241  0.1871  0.7091 -0.7965
 3957TIP3    H133362   4.106   5.328   3.258  0.2108  0.7851 -1.0920
 3957TIP3    H233363   4.014   5.217   3.303  0.2858  0.9722 -0.4821
 3958TIP3   OH233364   2.745   6.723   5.256  0.0349 -0.3317 -0.4548
 3958TIP3    H133365   2.780   6.661   5.192 -0.6560 -2.2587  0.9717
 3958TIP3    H233366   2.690   6.782   5.204 -0.3709 -1.7440 -1.6703
 3959TIP3   OH233367   5.127   5.798  16.474  0.3110  0.2725  0.1806
 3959TIP3    H133368   5.134   5.803  16.569 -1.2832  0.0385  0.3387
 3959TIP3    H233369   5.124   5.704  16.455  0.2471  0.3219 -0.0585
 3960TIP3   OH233370   0.723   0.009   1.616  0.0405  0.0305  0.3239
 3960TIP3    H133371   0.633   0.006   1.647  0.0013 -0.5587  0.1704
 3960TIP3    H233372   0.724   0.078   1.551 -0.6418 -0.9302 -0.7191
 3961TIP3   OH233373   1.524   2.630  16.285  0.0080 -0.4545  0.2668
 3961TIP3    H133374   1.559   2.707  16.241  0.1237 -0.1835  0.8398
 3961TIP3    H233375   1.534   2.648  16.378  0.1283 -1.1980  0.4034
 3962TIP3   OH233376   2.182   2.190  16.606 -0.1147 -0.4940  0.0594
 3962TIP3    H133377   2.112   2.230  16.553 -0.5620  0.3324  1.2352
 3962TIP3    H233378   2.147   2.190  16.695  1.5979  0.4423  0.7617
 3963TIP3   OH233379   2.458   3.786  16.528 -0.3911  0.5638  0.1399
 3963TIP3    H133380   2.381   3.831  16.493 -0.1100 -0.3292 -1.7111
 3963TIP3    H233381   2.518   3.857  16.551 -1.7977  1.2741  1.7624
 3964TIP3   OH233382   3.891   5.375   1.488  0.0285  0.1939 -0.4085
 3964TIP3    H133383   3.824   5.332   1.540 -0.4141 -0.0575 -1.1681
 3964TIP3    H233384   3.974   5.340   1.521 -0.2646 -0.2639 -0.1516
 3965TIP3   OH233385   4.072   1.371   4.907  0.0948  0.2016 -0.2655
 3965TIP3    H133386   4.148   1.323   4.875 -1.7407 -2.5300 -0.7219
 3965TIP3    H233387   4.079   1.366   5.003  0.7960  0.4803 -0.2995
 3966TIP3   OH233388   0.134   1.748  17.087 -0.0835 -0.7761  0.0064
 3966TIP3    H133389   0.118   1.774  17.178 -1.0089  1.5194 -0.7678
 3966TIP3    H233390   0.054   1.773  17.041  1.2939  0.2975 -1.8706
 3967TIP3   OH233391   3.201   0.204   0.700 -0.0999 -0.4085  0.3163
 3967TIP3    H133392   3.268   0.143   0.733  1.2578  0.1351 -1.4050
 3967TIP3    H233393   3.229   0.290   0.731  0.1197 -0.1525 -0.5795
 3968TIP3   OH233394   0.969   6.284   6.032  0.6673  0.0347 -0.4382
 3968TIP3    H133395   0.909   6.215   6.003  0.4846  0.4726 -1.1101
 3968TIP3    H233396   1.013   6.247   6.109 -1.3420  0.1519  0.8156
 3969TIP3   OH233397   0.810   4.691  15.397 -0.4308 -0.0104 -0.6833
 3969TIP3    H133398   0.903   4.686  15.418 -0.4458 -0.7195 -0.7721
 3969TIP3    H233399   0.776   4.604  15.418 -0.4802 -0.7025 -3.4838
 3970TIP3   OH233400   4.678   5.647  11.631 -0.4119 -0.2338 -1.1786
 3970TIP3    H133401   4.632   5.563  11.634  0.6207 -0.7848 -0.3424
 3970TIP3    H233402   4.613   5.710  11.663 -1.0482 -0.7725 -1.3761
 3971TIP3   OH233403   0.519   0.877  13.573 -0.0112  0.6115 -0.2647
 3971TIP3    H133404   0.550   0.836  13.492  1.3633 -0.3402  0.7304
 3971TIP3    H233405   0.468   0.808  13.617 -2.0023  1.5811 -0.9990
 3972TIP3   OH233406   6.452   0.538  13.125  0.6972  0.5792 -0.2984
 3972TIP3    H133407   6.517   0.572  13.063  0.4926  3.6414  1.0775
 3972TIP3    H233408   6.370   0.539  13.075  1.0718  0.1051 -0.9323
 3973TIP3   OH233409   4.708   5.197   4.152  0.6147 -0.5319 -0.2272
 3973TIP3    H133410   4.745   5.150   4.227  2.1827 -2.4454 -2.1440
 3973TIP3    H233411   4.618   5.165   4.145  0.5307 -0.5094  0.6883
 3974TIP3   OH233412   4.936   3.352   2.035 -0.3621 -0.1476 -0.2468
 3974TIP3    H133413   4.958   3.274   2.086 -0.9630 -0.9389 -1.1699
 3974TIP3    H233414   4.904   3.414   2.099 -0.0302 -0.7259  0.4869
 3975TIP3   OH233415   1.588   5.387  16.149  0.2668 -0.0614  0.3881
 3975TIP3    H133416   1.572   5.449  16.221  0.8633 -1.1506  1.4706
 3975TIP3    H233417   1.541   5.308  16.175 -0.7228  0.0187 -1.1242
 3976TIP3   OH233418   5.699   5.855   0.581  0.8211 -0.4857  0.0065
 3976TIP3    H133419   5.651   5.860   0.664  1.2372  0.0397  0.2141
 3976TIP3    H233420   5.790   5.873   0.605  0.9244 -0.2379 -0.5836
 3977TIP3   OH233421   1.932   4.293   3.597  0.8250 -0.2774 -0.1349
 3977TIP3    H133422   1.948   4.199   3.587 -0.4839 -0.5966  0.6180
 3977TIP3    H233423   1.922   4.325   3.507  0.3255 -1.0420 -0.3604
 3978TIP3   OH233424   5.017   5.822   5.396  0.1865 -0.0699  0.1148
 3978TIP3    H133425   5.096   5.856   5.353  0.3687 -1.7175 -0.8962
 3978TIP3    H233426   5.049   5.778   5.474  0.1790 -0.0243  0.1443
 3979TIP3   OH233427   4.598   0.199   1.543 -0.0135 -0.0330  0.5546
 3979TIP3    H133428   4.669   0.258   1.569  0.7489 -0.7390  0.0951
 3979TIP3    H233429   4.633   0.111   1.558 -0.9072 -0.3890  0.6273
 3980TIP3   OH233430   0.948   5.381   1.041 -0.1129  0.6854  0.2589
 3980TIP3    H133431   1.017   5.323   1.073 -0.3939  0.6893  0.8896
 3980TIP3    H233432   0.867   5.334   1.058 -0.2614  0.6607 -0.5270
 3981TIP3   OH233433   1.612   0.615  11.197  0.2016  0.2893 -0.4576
 3981TIP3    H133434   1.525   0.634  11.230  0.5758  0.7538  0.2841
 3981TIP3    H233435   1.620   0.666  11.117  0.3430  1.4280  0.2721
 3982TIP3   OH233436   2.940   0.516  16.038 -0.2899 -0.2446 -0.2631
 3982TIP3    H133437   2.966   0.608  16.036  0.5107 -0.4535  0.3003
 3982TIP3    H233438   2.857   0.513  15.992 -0.8583  0.9388  0.6763
 3983TIP3   OH233439   6.731   0.514  15.298  0.1537 -0.1160  0.1362
 3983TIP3    H133440   6.787   0.478  15.366  0.6617 -0.5928 -0.5244
 3983TIP3    H233441   6.644   0.479  15.317  0.2578 -0.0923  0.6477
 3984TIP3   OH233442   4.836   2.048   4.319 -0.2343 -0.6033  0.0018
 3984TIP3    H133443   4.833   1.973   4.378 -0.8259 -0.4595  0.1627
 3984TIP3    H233444   4.804   2.014   4.235 -0.5914 -0.5151  0.0988
 3985TIP3   OH233445   0.028   4.723  15.459 -0.6318  0.2719 -0.5209
 3985TIP3    H133446  -0.042   4.664  15.487  0.5204 -0.7878  0.1313
 3985TIP3    H233447  -0.010   4.811  15.469 -1.4993 -0.2466  0.8526
 3986TIP3   OH233448   2.964   4.783  11.297 -0.0480  0.5030 -0.3929
 3986TIP3    H133449   3.004   4.724  11.361 -1.6923  1.0840  1.1866
 3986TIP3    H233450   2.998   4.753  11.213  1.2772 -0.9607  0.6390
 3987TIP3   OH233451   5.917   1.566   5.383  0.0180  0.1651  0.3969
 3987TIP3    H133452   5.823   1.563   5.365  0.3091  0.0702 -1.1199
 3987TIP3    H233453   5.959   1.562   5.297  1.4558 -1.3448  1.1310
 3988TIP3   OH233454   1.382   2.818   1.270 -0.7499 -0.1320  0.8544
 3988TIP3    H133455   1.334   2.806   1.188 -0.3026 -0.0907  0.5842
 3988TIP3    H233456   1.318   2.859   1.329 -1.1748 -0.4714  0.6382
 3989TIP3   OH233457   0.978   0.459   4.851  0.2856 -0.4087  0.4425
 3989TIP3    H133458   1.071   0.458   4.830 -0.5981 -2.5808 -4.1621
 3989TIP3    H233459   0.956   0.367   4.864 -1.6180 -0.1661 -0.8381
 3990TIP3   OH233460   1.832   2.941  13.674  0.3306  0.2203  0.2891
 3990TIP3    H133461   1.755   2.992  13.700  0.4015  0.5287 -0.0969
 3990TIP3    H233462   1.845   2.963  13.582  1.3868  0.8269  0.5822
 3991TIP3   OH233463   2.072   4.764   0.075  0.3382 -0.3139 -0.4816
 3991TIP3    H133464   1.979   4.753   0.057  0.7245 -2.8565 -1.2034
 3991TIP3    H233465   2.085   4.725   0.161  0.4401  1.7208  0.4520
 3992TIP3   OH233466   2.725   4.970  16.223 -0.0436 -0.3159 -0.6982
 3992TIP3    H133467   2.673   4.960  16.144  0.5538  0.0950 -1.1392
 3992TIP3    H233468   2.714   5.061  16.249  0.4395 -0.2335 -0.7765
 3993TIP3   OH233469   3.762   5.422  15.701 -0.0698 -0.2243 -0.0672
 3993TIP3    H133470   3.699   5.495  15.705  0.4214  0.2243 -0.4681
 3993TIP3    H233471   3.720   5.356  15.646 -0.4930 -0.2176  0.2490
 3994TIP3   OH233472   2.093   0.053   0.937 -0.0527 -0.3535  0.4589
 3994TIP3    H133473   2.160  -0.004   0.975  1.4704  1.2487  0.2654
 3994TIP3    H233474   2.011   0.024   0.975  0.8739 -1.8257  1.3413
 3995TIP3   OH233475   0.139   4.859   5.567  0.0824 -0.3794 -0.4869
 3995TIP3    H133476   0.110   4.847   5.476 -0.8838  0.3879 -0.2942
 3995TIP3    H233477   0.231   4.834   5.567  0.4512  0.8945 -1.9726
 3996TIP3   OH233478   3.936   0.238   5.359  0.7278 -0.2470  0.6217
 3996TIP3    H133479   3.882   0.252   5.282  0.8404 -0.1811  0.5542
 3996TIP3    H233480   4.022   0.214   5.324  0.9090  0.2621  0.7196
 3997TIP3   OH233481   6.552   3.549   0.234  0.2277  0.0175 -0.2376
 3997TIP3    H133482   6.469   3.520   0.272 -0.7430  2.5223 -0.3651
 3997TIP3    H233483   6.618   3.526   0.299 -0.8620  0.0600  0.8887
 3998TIP3   OH233484   5.951   6.727   3.636  0.1362  0.4496  0.8717
 3998TIP3    H133485   5.879   6.680   3.679 -1.2993  0.8570 -0.9922
 3998TIP3    H233486   5.939   6.818   3.662 -2.6695  1.2617 -2.7192
 3999TIP3   OH233487   2.803   0.174  13.601 -0.2748 -0.6210  0.2199
 3999TIP3    H133488   2.736   0.119  13.642 -2.3864 -0.5297 -2.8485
 3999TIP3    H233489   2.861   0.111  13.557 -2.0889 -0.5688 -2.4105
 4000TIP3   OH233490   2.286   3.488   5.876  0.1210 -0.1312 -0.2449
 4000TIP3    H133491   2.256   3.497   5.785 -1.3742  2.0895  0.4218
 4000TIP3    H233492   2.241   3.410   5.909  1.7764 -1.7995 -1.7835
 4001TIP3   OH233493   3.320   5.974  11.248 -0.0959 -0.1491  0.3790
 4001TIP3    H133494   3.389   5.922  11.288 -1.6132 -0.0646  3.2287
 4001TIP3    H233495   3.243   5.918  11.251 -1.5486  1.9026  2.7190
 4002TIP3   OH233496   0.865   4.368   3.290  0.9597  0.0296 -0.1663
 4002TIP3    H133497   0.844   4.275   3.278 -0.1992  0.3310 -0.5742
 4002TIP3    H233498   0.854   4.383   3.383 -1.8627  0.4489 -0.5300
 4003TIP3   OH233499   2.361   5.047  12.113  0.5683 -0.2669 -0.7069
 4003TIP3    H133500   2.359   4.992  12.192  0.5775 -1.9284 -1.8572
 4003TIP3    H233501   2.430   5.009  12.059  0.5655  0.8835 -1.5367
 4004TIP3   OH233502   5.105   1.725  12.514 -0.3974  0.6066 -0.1373
 4004TIP3    H133503   5.185   1.721  12.567 -0.0531 -2.1848 -0.7971
 4004TIP3    H233504   5.054   1.797  12.553  0.8860  0.1406  2.4912
 4005TIP3   OH233505   3.448   2.313   3.703  0.3164  0.3089  0.0268
 4005TIP3    H133506   3.428   2.281   3.792  0.5576  0.5988  0.1850
 4005TIP3    H233507   3.434   2.407   3.708  2.0176  0.5707  0.2295
 4006TIP3   OH233508   0.697   1.461  15.937  0.2098 -0.3071  0.1594
 4006TIP3    H133509   0.644   1.391  15.898 -0.8710  0.9068 -0.5476
 4006TIP3    H233510   0.778   1.417  15.963 -0.4515 -1.8265 -0.3002
 4007TIP3   OH233511   1.031   3.093   0.376  0.0254 -0.1259 -0.2596
 4007TIP3    H133512   1.009   3.092   0.283  1.1294  0.4756 -0.5353
 4007TIP3    H233513   1.045   3.186   0.396  0.8708 -0.3597  0.2457
 4008TIP3   OH233514   5.458   5.218   5.469 -0.0330  0.7105 -0.0560
 4008TIP3    H133515   5.524   5.256   5.410  0.2365  0.4505  0.0796
 4008TIP3    H233516   5.494   5.231   5.557 -0.0702  0.3908  0.0053
 4009TIP3   OH233517   0.589   0.191   6.184  0.2645  0.1439  0.0829
 4009TIP3    H133518   0.653   0.262   6.182 -2.2785  2.4932  0.3520
 4009TIP3    H233519   0.597   0.155   6.273 -0.1204  1.6912  0.7613
 4010TIP3   OH233520   4.644   4.338  12.219  0.1891  0.0759 -0.2065
 4010TIP3    H133521   4.671   4.388  12.142 -0.2565 -0.2761 -0.6022
 4010TIP3    H233522   4.695   4.257  12.214 -1.5267 -0.9733 -1.4373
 4011TIP3   OH233523   1.489   2.311  15.761 -0.4578 -0.4296 -0.2403
 4011TIP3    H133524   1.409   2.333  15.713 -0.7966 -1.6808 -0.2534
 4011TIP3    H233525   1.539   2.257  15.699  0.9709  1.3856 -0.7035
 4012TIP3   OH233526   5.842   3.817  11.889  0.3342  0.5280 -0.1723
 4012TIP3    H133527   5.808   3.877  11.823 -1.2866 -0.7478 -0.5376
 4012TIP3    H233528   5.931   3.797  11.861 -0.3960 -0.1260 -2.0834
 4013TIP3   OH233529   2.872   2.617  10.124  0.3223  0.4410  0.0059
 4013TIP3    H133530   2.930   2.559  10.173 -0.3711  0.2892  0.6738
 4013TIP3    H233531   2.794   2.564  10.107 -1.2047  1.7816  2.4880
 4014TIP3   OH233532   2.895   0.090  15.572 -0.2805  0.4705 -0.0278
 4014TIP3    H133533   2.958   0.076  15.642  0.2621 -4.7886 -1.3577
 4014TIP3    H233534   2.809   0.079  15.614 -0.0066 -0.9743  0.1902
 4015TIP3   OH233535   5.772   1.043  15.641  0.6642 -0.5327  0.3541
 4015TIP3    H133536   5.861   1.077  15.649  0.6231 -0.1977 -0.4866
 4015TIP3    H233537   5.748   1.015  15.729  0.7634  1.4901  1.0620
 4016TIP3   OH233538   4.269   1.771  10.595  1.1687  0.0741 -0.3657
 4016TIP3    H133539   4.307   1.720  10.523  0.3566  0.6039 -1.1798
 4016TIP3    H233540   4.335   1.766  10.664  1.7428 -0.8632 -0.9552
 4017TIP3   OH233541   3.713   5.892  13.900  0.3142  0.4861  0.6156
 4017TIP3    H133542   3.709   5.981  13.935  0.3823  0.4115  0.8185
 4017TIP3    H233543   3.681   5.837  13.972 -0.7103  0.4414  0.1380
 4018TIP3   OH233544   3.591   3.809  14.587 -0.8922  0.1716  0.1135
 4018TIP3    H133545   3.675   3.851  14.573 -0.0763 -1.9944 -1.9119
 4018TIP3    H233546   3.531   3.854  14.528 -0.5305  0.0001 -0.3899
 4019TIP3   OH233547   0.175   4.988  12.665 -0.4107  0.2292  0.3651
 4019TIP3    H133548   0.101   4.953  12.714  1.9050  0.0954  3.9255
 4019TIP3    H233549   0.214   5.053  12.724  1.5253  1.2412 -1.9593
 4020TIP3   OH233550   0.796   6.055  13.018  0.1189  0.0792  0.5218
 4020TIP3    H133551   0.768   6.134  13.065  0.3704  0.4033  0.1313
 4020TIP3    H233552   0.890   6.069  13.003  0.1107 -0.1791  0.2275
 4021TIP3   OH233553   1.331   4.686  14.275  0.4950 -0.3350 -0.2547
 4021TIP3    H133554   1.329   4.749  14.202  0.2197  0.3692  0.3540
 4021TIP3    H233555   1.344   4.601  14.233 -0.4425 -0.0296 -1.2017
 4022TIP3   OH233556   2.284   2.586  14.577 -0.4979  0.3332 -0.4984
 4022TIP3    H133557   2.216   2.520  14.570 -1.2302  1.0186  0.0389
 4022TIP3    H233558   2.282   2.613  14.669  0.8452 -0.0039 -0.3650
 4023TIP3   OH233559   6.153   0.662   2.773  0.1139 -0.0577  0.0430
 4023TIP3    H133560   6.067   0.700   2.755  0.0714 -0.5342 -0.7628
 4023TIP3    H233561   6.146   0.571   2.745  1.2124  0.1800 -1.0457
 4024TIP3   OH233562   2.277   2.800   0.885  0.2403 -0.0972  0.2326
 4024TIP3    H133563   2.188   2.833   0.897  0.6700  0.7950  1.0753
 4024TIP3    H233564   2.326   2.837   0.959  1.2021 -0.9552  0.0316
 4025TIP3   OH233565   2.777   6.599   1.194 -0.1236  0.0966 -0.6404
 4025TIP3    H133566   2.768   6.576   1.102 -1.5015 -0.0947 -0.4621
 4025TIP3    H233567   2.849   6.543   1.226 -1.2352 -1.5653 -1.0154
 4026TIP3   OH233568   0.206   5.612   0.755 -0.0225  0.3280 -0.0240
 4026TIP3    H133569   0.217   5.672   0.828  0.0651  0.3526 -0.0566
 4026TIP3    H233570   0.112   5.614   0.735  0.0894  1.0076 -0.4922
 4027TIP3   OH233571   2.436   4.943  16.416  0.4430  0.3322 -0.3391
 4027TIP3    H133572   2.342   4.924  16.414  0.5249 -0.1154  0.0733
 4027TIP3    H233573   2.475   4.879  16.357  0.2642  1.8566 -2.1729
 4028TIP3   OH233574   1.435   5.451   0.034  0.7651  0.4680 -0.3467
 4028TIP3    H133575   1.438   5.357   0.018  0.2043  0.5016 -0.6460
 4028TIP3    H233576   1.372   5.484  -0.029 -0.8600  0.7207  1.3832
 4029TIP3   OH233577   5.500   3.799  15.814  0.6018  0.5536  0.0359
 4029TIP3    H133578   5.408   3.776  15.829  0.5919 -0.4814 -1.4985
 4029TIP3    H233579   5.549   3.739  15.870  0.3766  0.5075  0.1847
 4030TIP3   OH233580   0.073   2.321  11.234  0.0441 -0.3277  0.1297
 4030TIP3    H133581   0.100   2.303  11.144  0.8957 -0.6391  0.4391
 4030TIP3    H233582   0.041   2.237  11.267  0.7993 -0.4848  0.4773
 4031TIP3   OH233583   6.057   1.543  17.100 -0.1901  0.5768 -0.0903
 4031TIP3    H133584   6.115   1.486  17.049  0.6560  0.4374  0.9961
 4031TIP3    H233585   6.116   1.603  17.145 -1.0029  1.4813 -0.2115
 4032TIP3   OH233586   2.463   5.471   6.479  0.5265  0.4986  0.0310
 4032TIP3    H133587   2.521   5.546   6.463 -0.1023  0.1275 -4.9121
 4032TIP3    H233588   2.375   5.508   6.475  0.2894  0.0047  0.7032
 4033TIP3   OH233589   0.819   2.553   0.315  0.1786  0.5054  0.3416
 4033TIP3    H133590   0.884   2.486   0.293  0.5718  1.0567 -0.1999
 4033TIP3    H233591   0.735   2.508   0.311  0.5031 -0.1239  0.6689
 4034TIP3   OH233592   0.113   0.011   2.361  0.1538  0.0881 -0.2522
 4034TIP3    H133593   0.176  -0.059   2.375  0.8498  0.6380 -0.5942
 4034TIP3    H233594   0.053  -0.023   2.295  1.4770  0.4327 -1.6611
 4035TIP3   OH233595   3.745   0.352  13.430 -0.4659 -0.9212  0.2939
 4035TIP3    H133596   3.801   0.276  13.448  0.2192 -0.6298 -0.5462
 4035TIP3    H233597   3.673   0.345  13.492 -0.2495 -2.1027  0.4112
 4036TIP3   OH233598   5.420   0.320   0.865  0.1740  0.4507 -0.6935
 4036TIP3    H133599   5.416   0.267   0.945 -1.3014  0.2131 -0.9255
 4036TIP3    H233600   5.497   0.377   0.878  0.5184 -0.2696  0.4594
 4037TIP3   OH233601   5.070   4.742   2.153 -0.0237  0.0915  0.1351
 4037TIP3    H133602   5.122   4.668   2.123  0.9936  0.7906  0.1553
 4037TIP3    H233603   4.981   4.723   2.123  0.1027 -1.4226  0.6506
 4038TIP3   OH233604   3.280   3.009  16.445  0.5369  0.1135 -0.0119
 4038TIP3    H133605   3.249   3.035  16.532 -3.6681 -0.3306 -1.2917
 4038TIP3    H233606   3.315   3.090  16.407  0.7272  0.7083  1.3943
 4039TIP3   OH233607   4.457   5.104   1.307 -0.0045  0.5251  0.2275
 4039TIP3    H133608   4.397   5.074   1.376 -1.1098  1.3828 -0.3508
 4039TIP3    H233609   4.543   5.101   1.349 -0.3126 -1.5617  0.7940
 4040TIP3   OH233610   3.890   2.586  16.540 -0.2786  0.4828  0.1046
 4040TIP3    H133611   3.877   2.549  16.453 -0.7365  0.6470  0.0974
 4040TIP3    H233612   3.829   2.660  16.543  1.2510  1.7876 -0.1999
 4041TIP3   OH233613   3.825   6.129   0.923 -0.3207 -0.3490  0.5075
 4041TIP3    H133614   3.749   6.153   0.870 -0.0442 -0.8129 -0.1109
 4041TIP3    H233615   3.805   6.041   0.955  0.2761 -0.7700 -0.2645
 4042TIP3   OH233616   0.177   5.802  15.033 -0.2970  0.2299  1.6765
 4042TIP3    H133617   0.206   5.829  15.120 -1.7211  0.3879  2.1080
 4042TIP3    H233618   0.241   5.737  15.005  1.7012  2.1149  1.7097
 4043TIP3   OH233619   4.371   3.175  14.979 -0.2459  0.3257 -0.0829
 4043TIP3    H133620   4.280   3.161  14.953 -0.4521  2.8139 -0.8307
 4043TIP3    H233621   4.421   3.125  14.914 -1.0704 -1.7129  0.8102
 4044TIP3   OH233622   4.249   4.126  11.159 -0.3284 -0.7514 -0.3487
 4044TIP3    H133623   4.172   4.119  11.102 -1.1566 -1.6067  0.8508
 4044TIP3    H233624   4.319   4.082  11.111 -0.7162 -0.4526 -1.2026
 4045TIP3   OH233625   0.507   0.822  12.053  0.6020  0.0899 -0.4517
 4045TIP3    H133626   0.594   0.794  12.025  0.0264 -0.5858 -1.5910
 4045TIP3    H233627   0.510   0.918  12.050  0.9516  0.0409 -1.5931
 4046TIP3   OH233628   2.389   3.926  14.370 -0.3407 -0.0247 -0.4512
 4046TIP3    H133629   2.427   3.939  14.457 -1.7376 -1.4553  0.3822
 4046TIP3    H233630   2.465   3.932  14.311  0.5099  1.7444  0.7497
 4047TIP3   OH233631   0.215   4.865  13.452  0.1247 -0.0252  0.3149
 4047TIP3    H133632   0.294   4.916  13.432 -0.8483  1.3711 -0.0789
 4047TIP3    H233633   0.183   4.837  13.366  0.2445 -0.7068  0.4843
 4048TIP3   OH233634   0.451   5.601  14.100 -0.4499 -0.5752  0.7965
 4048TIP3    H133635   0.374   5.634  14.145 -0.4647 -1.7709  1.6892
 4048TIP3    H233636   0.422   5.519  14.059  0.3112 -0.9888  1.0724
 4049TIP3   OH233637   6.086   6.183  13.877 -0.4048 -0.4809 -0.7242
 4049TIP3    H133638   6.024   6.147  13.814 -0.9043  0.7230 -0.9319
 4049TIP3    H233639   6.033   6.237  13.935  0.3024 -0.2584 -0.2701
 4050TIP3   OH233640   5.302   6.051   3.681  0.3229 -0.6441  0.4454
 4050TIP3    H133641   5.253   6.064   3.600 -0.0051 -1.1436  0.5568
 4050TIP3    H233642   5.235   6.049   3.750  0.5205 -1.0484  0.6311
 4051TIP3   OH233643   0.977   3.179  15.365  0.2717  0.0897 -0.3679
 4051TIP3    H133644   0.891   3.197  15.329 -0.5853 -1.3449  0.9050
 4051TIP3    H233645   0.995   3.088  15.340  1.3361  0.3065 -0.4387
 4052TIP3   OH233646   0.518   0.616  14.560  0.0295 -0.1893 -0.0977
 4052TIP3    H133647   0.583   0.565  14.608  1.7200  0.5619 -1.5007
 4052TIP3    H233648   0.570   0.667  14.497 -1.8750  0.9047 -0.8257
 4053TIP3   OH233649   4.524   2.780   5.495 -0.0700 -0.4129 -0.1628
 4053TIP3    H133650   4.611   2.772   5.457  0.6361  0.1852  1.3090
 4053TIP3    H233651   4.534   2.840   5.568 -2.2332  1.6792 -1.5049
 4054TIP3   OH233652   1.204   5.589  11.479 -0.4660  0.0974 -0.1565
 4054TIP3    H133653   1.246   5.504  11.468 -1.4765 -0.4287 -0.0016
 4054TIP3    H233654   1.267   5.640  11.530 -0.0881 -0.7474  0.2410
 4055TIP3   OH233655   3.902   1.053   1.888 -0.0355  0.2352 -0.5273
 4055TIP3    H133656   3.846   1.129   1.870  2.3941  2.1169 -0.3644
 4055TIP3    H233657   3.902   1.045   1.983  1.4659  1.4259 -0.4122
 4056TIP3   OH233658   5.141   0.121   4.117 -0.2661  0.6062  0.2128
 4056TIP3    H133659   5.162   0.193   4.057  1.1522 -2.0034 -2.5183
 4056TIP3    H233660   5.050   0.136   4.141 -0.2687  2.8033 -1.0482
 4057TIP3   OH233661   4.240   5.158  10.993  0.1726 -0.2575  0.0204
 4057TIP3    H133662   4.334   5.151  10.979  0.1880 -0.9111  0.4126
 4057TIP3    H233663   4.210   5.067  11.005 -0.5212 -0.0644 -0.2143
 4058TIP3   OH233664   0.911   0.130   1.953  0.1692 -0.7117 -0.0518
 4058TIP3    H133665   0.987   0.164   1.906 -0.5976  0.5908 -0.3819
 4058TIP3    H233666   0.912   0.176   2.037 -1.8383  1.4759 -1.1604
 4059TIP3   OH233667   5.579   3.236   5.345  0.2190  0.2777  0.0688
 4059TIP3    H133668   5.618   3.254   5.259  0.8735 -1.0667  0.0703
 4059TIP3    H233669   5.653   3.241   5.406  0.7507 -3.5917 -0.0914
 4060TIP3   OH233670   4.793   4.701  12.670  0.8465 -0.6660  0.1037
 4060TIP3    H133671   4.787   4.711  12.575  0.2230  1.4596  0.3400
 4060TIP3    H233672   4.703   4.700  12.700  1.0597 -0.4854  0.7547
 4061TIP3   OH233673   1.176   3.501  17.076 -0.2590  0.4607 -0.2036
 4061TIP3    H133674   1.225   3.526  16.997  1.3437  0.5595  0.7893
 4061TIP3    H233675   1.185   3.405  17.080 -1.3276  0.3264 -0.7533
 4062TIP3   OH233676   4.009   1.098  13.781 -0.2069  0.2810  0.1648
 4062TIP3    H133677   3.981   1.147  13.858  0.2767  1.2949 -0.2966
 4062TIP3    H233678   4.059   1.161  13.729  0.1033 -0.5960 -0.6211
 4063TIP3   OH233679   1.717   3.842  13.548  0.3293  0.7629  0.2640
 4063TIP3    H133680   1.797   3.868  13.502  0.0414  2.1419  0.4982
 4063TIP3    H233681   1.747   3.818  13.636  0.7200 -0.6236 -0.2455
 4064TIP3   OH233682   3.660   3.261  13.911 -0.5885  0.0435  0.2532
 4064TIP3    H133683   3.750   3.282  13.886 -1.6067  2.7728 -1.3344
 4064TIP3    H233684   3.659   3.270  14.007  1.1341 -1.4529  0.4425
 4065TIP3   OH233685   5.998   4.871  11.646 -0.0780  0.6133 -0.2259
 4065TIP3    H133686   5.990   4.788  11.693  0.0900  0.9276  0.3649
 4065TIP3    H233687   5.990   4.938  11.714 -0.5185  1.0885 -0.7419
 4066TIP3   OH233688   3.906   6.383   0.323 -0.6706  0.1948  0.4134
 4066TIP3    H133689   3.867   6.367   0.408  0.1642 -1.4032  0.5044
 4066TIP3    H233690   3.993   6.418   0.342 -0.7304  0.4566  0.2128
 4067TIP3   OH233691   1.832   6.514   0.487  0.1223 -0.0691  0.0399
 4067TIP3    H133692   1.753   6.568   0.485 -0.2787 -0.6780 -2.3343
 4067TIP3    H233693   1.799   6.426   0.504  0.1317 -0.5097 -2.0689
 4068TIP3   OH233694   2.653   3.440   4.671  0.0596  0.1537 -0.6985
 4068TIP3    H133695   2.605   3.370   4.627 -1.3837  0.8761 -0.3090
 4068TIP3    H233696   2.597   3.517   4.661 -0.0128  0.4686  1.8641
 4069TIP3   OH233697   5.738   2.485   2.614  0.1306  0.4838 -0.1650
 4069TIP3    H133698   5.669   2.426   2.643  1.4430 -2.7811 -3.2663
 4069TIP3    H233699   5.808   2.475   2.678 -0.4376  0.2185  0.4105
 4070TIP3   OH233700   2.080   2.576   0.313  0.3655  0.0350 -0.4909
 4070TIP3    H133701   2.058   2.540   0.227 -0.0492  1.9973 -1.2403
 4070TIP3    H233702   1.996   2.590   0.356  0.5375 -0.2164 -0.0753
 4071TIP3   OH233703   4.922   5.293   1.082  0.1789  0.6193 -0.4158
 4071TIP3    H133704   4.967   5.364   1.129 -0.3121  0.4735  0.2803
 4071TIP3    H233705   4.871   5.249   1.150 -1.1252  0.8710 -1.2278
 4072TIP3   OH233706   5.922   2.954  13.684  0.7404  0.2105  0.3565
 4072TIP3    H133707   6.006   2.942  13.728  0.4659 -0.3080  0.7328
 4072TIP3    H233708   5.866   2.994  13.751  1.0938  1.8986 -0.3087
 4073TIP3   OH233709   4.130   2.448  10.854 -0.1472 -0.1419  0.2396
 4073TIP3    H133710   4.199   2.504  10.817 -0.7346  0.5263  0.1463
 4073TIP3    H233711   4.079   2.419  10.779  0.1116 -0.7527  0.2960
 4074TIP3   OH233712   6.039   3.696   3.874 -0.0831 -0.6627 -0.3286
 4074TIP3    H133713   6.042   3.628   3.942 -0.1027 -2.6057 -2.2428
 4074TIP3    H233714   6.061   3.651   3.793  0.1085  1.6702 -1.6180
 4075TIP3   OH233715   4.978   6.731  17.001 -0.5196  0.2926 -0.2821
 4075TIP3    H133716   5.018   6.783  17.070  0.7972 -1.9634  0.7195
 4075TIP3    H233717   4.889   6.714  17.032 -0.1857 -0.0523  0.4867
 4076TIP3   OH233718   4.759   5.085   0.591 -0.0900 -0.4412 -0.2293
 4076TIP3    H133719   4.719   5.036   0.663 -0.1671 -1.2197 -0.7989
 4076TIP3    H233720   4.687   5.103   0.531  0.3496 -1.6078 -1.1226
 4077TIP3   OH233721   1.417   4.199   2.757  0.1092  0.4023  0.3241
 4077TIP3    H133722   1.363   4.277   2.746 -0.5265 -0.1563 -0.5683
 4077TIP3    H233723   1.442   4.200   2.850 -4.0708 -0.9896  1.5648
 4078TIP3   OH233724   0.007   3.453   4.732 -0.9297 -0.0338  0.1430
 4078TIP3    H133725  -0.045   3.511   4.787  0.3972  0.0256  1.3663
 4078TIP3    H233726  -0.002   3.367   4.773  0.6327  0.1437  0.8921
 4079TIP3   OH233727   5.066   0.761  16.501 -0.8092 -0.2175  0.2341
 4079TIP3    H133728   5.136   0.792  16.558 -2.5281  0.4063  2.1020
 4079TIP3    H233729   5.033   0.840  16.458  0.8540 -0.7548 -2.1541
 4080TIP3   OH233730   2.322   1.500   3.442  0.7096 -0.3001  0.1863
 4080TIP3    H133731   2.361   1.462   3.521  0.1927 -1.0906  0.0630
 4080TIP3    H233732   2.378   1.469   3.371 -0.5765 -2.0666 -0.0726
 4081TIP3   OH233733   4.571   5.420   3.201 -0.1337  0.1937 -0.0738
 4081TIP3    H133734   4.548   5.461   3.118 -1.0289  0.7745  0.4510
 4081TIP3    H233735   4.658   5.383   3.186  0.8430  2.5552 -0.4887
 4082TIP3   OH233736   0.490   0.199   5.784  0.0988  0.6144  0.2803
 4082TIP3    H133737   0.579   0.177   5.756  0.8553  0.7165  2.5149
 4082TIP3    H233738   0.502   0.264   5.853 -1.6953 -0.0341  1.2279
 4083TIP3   OH233739   4.510   6.483   3.537 -0.3676 -0.4677  0.2826
 4083TIP3    H133740   4.424   6.468   3.575  0.4704 -0.9742  2.0078
 4083TIP3    H233741   4.531   6.402   3.490 -0.3337 -0.7837  0.8417
 4084TIP3   OH233742   1.044   1.409  15.397 -0.2380  0.3455  0.1724
 4084TIP3    H133743   0.977   1.341  15.409 -0.6977  0.7948  0.1878
 4084TIP3    H233744   0.994   1.490  15.391  0.3904  0.8582  1.6439
 4085TIP3   OH233745   1.713   4.240  15.467 -0.3699  0.1088 -0.0035
 4085TIP3    H133746   1.630   4.256  15.513 -0.6518  0.2215 -0.5437
 4085TIP3    H233747   1.707   4.150  15.438 -1.0191  0.6183 -1.4809
 4086TIP3   OH233748   6.118   4.818  16.903 -0.0016 -0.1166 -0.1248
 4086TIP3    H133749   6.058   4.892  16.908 -1.2908 -1.1426 -0.0667
 4086TIP3    H233750   6.195   4.852  16.857 -1.0342  0.9447 -1.0761
 4087TIP3   OH233751   0.100   0.407   2.684  0.0978  0.0147  0.3649
 4087TIP3    H133752   0.085   0.391   2.778  1.8041 -0.7034  0.5229
 4087TIP3    H233753   0.055   0.335   2.640  0.7359 -0.6065  0.7157
 4088TIP3   OH233754   0.404   5.786   1.213  0.2022 -0.2921 -0.5742
 4088TIP3    H133755   0.342   5.721   1.247  0.6703  1.0197  3.0139
 4088TIP3    H233756   0.484   5.770   1.262  1.2056  1.2144 -1.6689
 4089TIP3   OH233757   5.449   2.048  12.913 -0.5365  0.2319  0.2112
 4089TIP3    H133758   5.402   2.053  12.830 -1.3880  1.4840  0.7524
 4089TIP3    H233759   5.408   1.974  12.958 -0.1959 -0.3355 -0.4098
 4090TIP3   OH233760   0.444   4.564   0.809  0.0746 -0.4019  0.0872
 4090TIP3    H133761   0.486   4.506   0.746 -1.1341  1.7109 -2.7628
 4090TIP3    H233762   0.377   4.509   0.851 -0.3664 -1.3693 -1.8191
 4091TIP3   OH233763   2.510   1.688  17.144  0.0949  0.9055  0.0481
 4091TIP3    H133764   2.466   1.604  17.154 -0.5888  1.1278 -1.0166
 4091TIP3    H233765   2.518   1.700  17.049  0.7988  1.7281  0.2024
 4092TIP3   OH233766   1.081   0.078   4.246 -0.1257  0.0044 -0.2223
 4092TIP3    H133767   1.083   0.067   4.151  0.7194 -0.8338 -0.1224
 4092TIP3    H233768   1.123  -0.001   4.280 -0.8600  0.0758  0.8696
 4093TIP3   OH233769   2.807   4.937   3.546  0.0397  0.1223 -0.3615
 4093TIP3    H133770   2.891   4.898   3.572 -0.7096 -0.3699  1.4316
 4093TIP3    H233771   2.786   4.996   3.618 -1.0214  0.4465 -0.9398
 4094TIP3   OH233772   6.707   6.043   3.081 -0.9049 -0.1241 -0.3334
 4094TIP3    H133773   6.615   6.044   3.058 -0.8885 -1.2170 -0.4736
 4094TIP3    H233774   6.718   6.117   3.141 -1.4480  1.2163 -1.8662
 4095TIP3   OH233775   1.985   2.559   1.469  0.2436  0.4687 -0.1382
 4095TIP3    H133776   1.953   2.470   1.485  0.3478  0.2365 -1.2025
 4095TIP3    H233777   1.945   2.611   1.538 -0.2385 -0.3107  0.1821
 4096TIP3   OH233778   4.068   3.547  12.307 -0.2564  0.3130 -0.0847
 4096TIP3    H133779   4.126   3.491  12.360  0.2288  0.5109 -0.4067
 4096TIP3    H233780   4.030   3.608  12.371 -1.3290 -0.8369  0.3818
 4097TIP3   OH233781   0.236   3.023  17.065  0.7091  0.3444 -0.3229
 4097TIP3    H133782   0.258   2.933  17.040 -2.6120 -1.4715  2.9013
 4097TIP3    H233783   0.279   3.035  17.150  1.5860  2.0517 -0.9890
 4098TIP3   OH233784   6.352   5.053   2.959  0.6589 -0.1038  0.2187
 4098TIP3    H133785   6.308   5.076   2.877  1.8251 -1.5079 -0.8187
 4098TIP3    H233786   6.411   5.127   2.975 -0.2998  0.6489  0.3384
 4099TIP3   OH233787   0.550   2.226   4.850  0.0712  0.7530  0.3531
 4099TIP3    H133788   0.621   2.183   4.897 -0.8426 -1.4796 -0.1982
 4099TIP3    H233789   0.481   2.160   4.847 -1.4389  2.3294 -0.4789
 4100TIP3   OH233790   6.601   2.524  13.240  0.2685 -0.4174  0.0154
 4100TIP3    H133791   6.576   2.477  13.160  0.0476 -1.9223  0.9561
 4100TIP3    H233792   6.535   2.593  13.249  0.4322 -0.0866 -1.2245
 4101TIP3   OH233793   5.239   5.457   0.872  0.5103  0.7072  0.0434
 4101TIP3    H133794   5.160   5.432   0.824  0.3899  0.6281  0.2841
 4101TIP3    H233795   5.303   5.389   0.851 -0.0186 -0.1626  1.2242
 4102TIP3   OH233796   4.436   2.157  16.404  0.0808 -0.2064  0.4277
 4102TIP3    H133797   4.405   2.190  16.489 -0.4654 -0.7165  0.4238
 4102TIP3    H233798   4.531   2.151  16.415 -0.1213 -1.7723  1.5440
 4103TIP3   OH233799   1.582   5.200   6.078 -0.0767  0.5481 -0.3015
 4103TIP3    H133800   1.573   5.108   6.101  0.9221  0.6885  0.7024
 4103TIP3    H233801   1.497   5.225   6.042  0.2018 -1.2281 -2.3102
 4104TIP3   OH233802   3.180   5.210   6.146  0.0889 -0.0665 -0.0568
 4104TIP3    H133803   3.193   5.150   6.073 -3.1427 -1.0723  0.0984
 4104TIP3    H233804   3.147   5.154   6.217 -0.9812  1.5512  0.7544
 4105TIP3   OH233805   3.075   1.929  15.273  0.1465 -0.5269 -0.0433
 4105TIP3    H133806   3.004   1.979  15.313  1.3292  2.1161 -1.1215
 4105TIP3    H233807   3.134   1.908  15.345  0.5391  1.2439  0.1755
 4106TIP3   OH233808   0.361   6.053   3.305  0.0627 -0.2034 -0.3688
 4106TIP3    H133809   0.408   6.105   3.240 -0.7151  0.6085 -0.2812
 4106TIP3    H233810   0.419   6.053   3.382 -0.3640  1.3371 -0.0395
 4107TIP3   OH233811   3.665   6.610   2.371 -0.4214  0.3228  0.0444
 4107TIP3    H133812   3.709   6.631   2.453 -0.7719  0.5856  0.1680
 4107TIP3    H233813   3.686   6.683   2.313  1.4471 -0.8256 -0.7389
 4108TIP3   OH233814   1.305   2.467   0.958  0.0158  0.1904 -1.3812
 4108TIP3    H133815   1.371   2.525   0.995 -0.0190 -0.0101 -1.0082
 4108TIP3    H233816   1.239   2.526   0.921 -1.4781  0.4416  1.5138
 4109TIP3   OH233817   3.798   6.416  17.064 -0.1232  0.5613 -0.1238
 4109TIP3    H133818   3.720   6.365  17.085 -0.8490  0.9341 -1.8681
 4109TIP3    H233819   3.843   6.364  16.998  0.3297  1.0770 -0.2259
 4110TIP3   OH233820   1.603   5.903   6.058  0.4179  0.2127 -0.2641
 4110TIP3    H133821   1.646   5.948   5.986  2.0095  0.8247  1.0573
 4110TIP3    H233822   1.612   5.810   6.037  1.1367  0.3779 -0.7003
 4111TIP3   OH233823   5.678   2.187   0.026  0.0269  0.3824 -0.4022
 4111TIP3    H133824   5.742   2.176  -0.045 -0.4947  0.2027 -0.8447
 4111TIP3    H233825   5.731   2.184   0.105  0.6494  0.8700 -0.7952
 4112TIP3   OH233826   2.262   4.670   5.280 -0.1270 -0.8775 -0.1142
 4112TIP3    H133827   2.301   4.720   5.208 -0.1034 -0.1274  0.4145
 4112TIP3    H233828   2.200   4.611   5.238 -0.0941 -0.4571 -0.7538
 4113TIP3   OH233829   3.004   4.340  11.846  0.2355  0.5693 -0.6173
 4113TIP3    H133830   3.074   4.345  11.781  0.2627  1.1595 -0.5455
 4113TIP3    H233831   3.038   4.280  11.913  1.1903  1.8018  0.0300
 4114TIP3   OH233832   2.806   4.177  14.348 -0.3379 -0.0859 -0.1238
 4114TIP3    H133833   2.849   4.206  14.429 -1.7594 -0.5674  0.8060
 4114TIP3    H233834   2.749   4.105  14.375 -2.7504  1.3935 -1.1209
 4115TIP3   OH233835   5.264   2.496  10.551 -0.1557  0.0437 -0.3940
 4115TIP3    H133836   5.240   2.550  10.475 -1.3560  0.3235  0.1663
 4115TIP3    H233837   5.353   2.525  10.573 -0.4475  1.1863 -0.6440
 4116TIP3   OH233838   0.316   6.750   4.743 -0.8617 -0.2134  0.5625
 4116TIP3    H133839   0.251   6.819   4.731 -1.3868 -0.8518 -0.3078
 4116TIP3    H233840   0.315   6.701   4.661  1.7272  0.6082 -0.0102
 4117TIP3   OH233841   2.642   0.610   6.175  0.5441  0.4981 -0.0245
 4117TIP3    H133842   2.613   0.558   6.250 -0.7564  0.2830 -0.6477
 4117TIP3    H233843   2.730   0.579   6.156  0.1757 -0.7516  0.2770
 4118TIP3   OH233844   3.592   5.773   4.113 -0.0951  0.2470 -0.1491
 4118TIP3    H133845   3.540   5.725   4.178 -0.0873 -0.9145 -0.9916
 4118TIP3    H233846   3.582   5.723   4.032  0.2242  1.4632 -0.9563
 4119TIP3   OH233847   3.337   5.929  16.246 -0.0965 -0.2686  0.5664
 4119TIP3    H133848   3.254   5.915  16.292 -0.4174  0.7900  0.3366
 4119TIP3    H233849   3.312   5.977  16.166  0.6543 -0.5770  0.1422
 4120TIP3   OH233850   4.837   2.806  13.230 -0.1382 -0.4052 -1.2666
 4120TIP3    H133851   4.765   2.833  13.173 -2.0051 -2.5889 -0.0096
 4120TIP3    H233852   4.873   2.727  13.188  0.4465 -0.2911 -0.9930
 4121TIP3   OH233853   0.024   3.040   2.349  0.4616  0.0172  0.0932
 4121TIP3    H133854   0.078   3.007   2.276  1.0782 -1.3660  1.1578
 4121TIP3    H233855  -0.066   3.020   2.323  0.7144 -0.9627 -0.0458
 4122TIP3   OH233856   0.361   0.598   1.452 -0.2989 -0.1967 -0.0242
 4122TIP3    H133857   0.299   0.643   1.395  0.7473  0.7847 -0.4067
 4122TIP3    H233858   0.382   0.661   1.521 -0.9901 -1.1153  1.0286
 4123TIP3   OH233859   6.676   6.253   1.420  0.0150 -0.5560  0.3126
 4123TIP3    H133860   6.682   6.161   1.395  1.1431 -0.8989  1.7638
 4123TIP3    H233861   6.597   6.258   1.475 -0.3596 -0.5482 -0.2286
 4124TIP3   OH233862   6.240   4.629   2.175 -0.3403  0.0338  0.9595
 4124TIP3    H133863   6.280   4.650   2.091 -0.4785  1.8853  1.3393
 4124TIP3    H233864   6.228   4.534   2.173  0.3974 -0.0359 -0.7727
 4125TIP3   OH233865   3.370   1.814  16.607 -0.5378 -0.3950 -0.1404
 4125TIP3    H133866   3.320   1.773  16.677  0.8846  0.0595  1.1612
 4125TIP3    H233867   3.433   1.747  16.580  0.1761  0.0854  0.3256
 4126TIP3   OH233868   4.299   0.183   1.316 -0.0588 -0.3870 -0.4298
 4126TIP3    H133869   4.271   0.271   1.290  2.8146  0.5198 -0.6838
 4126TIP3    H233870   4.288   0.181   1.411 -3.5471 -1.0816 -0.7783
 4127TIP3   OH233871   5.839   2.712  12.059  0.3314  0.0903  0.0216
 4127TIP3    H133872   5.845   2.680  11.969  1.0334  1.1987 -0.3459
 4127TIP3    H233873   5.923   2.687  12.099 -0.8652 -2.3925  1.0690
 4128TIP3   OH233874   1.837   0.013  16.814  0.2908  0.5412  0.3289
 4128TIP3    H133875   1.861  -0.047  16.884 -0.1472  1.4243  1.2417
 4128TIP3    H233876   1.741   0.017  16.817  0.2877  0.8477 -0.0919
 4129TIP3   OH233877   5.202   1.641   1.962 -0.3403  0.3611  0.0958
 4129TIP3    H133878   5.175   1.556   1.996  0.6507 -0.2603 -0.6447
 4129TIP3    H233879   5.139   1.703   2.000 -0.7378 -0.6199  1.0821
 4130TIP3   OH233880   6.249   1.350  11.181 -0.1526  0.0181  0.0224
 4130TIP3    H133881   6.278   1.335  11.271 -0.0397  1.0648  0.1642
 4130TIP3    H233882   6.324   1.392  11.138 -0.3285 -0.1626 -0.4740
 4131TIP3   OH233883   5.167   2.391   1.878  0.2080 -0.7253  0.1927
 4131TIP3    H133884   5.206   2.347   1.802 -1.8845 -1.6758 -0.3547
 4131TIP3    H233885   5.162   2.483   1.852  1.4492 -0.6914  0.0212
 4132TIP3   OH233886   5.185   4.804  13.750  0.2181  0.7638 -0.6706
 4132TIP3    H133887   5.264   4.754  13.771 -0.7489  0.0057  1.2594
 4132TIP3    H233888   5.172   4.790  13.656  0.5661 -1.7389 -0.3750
 4133TIP3   OH233889   3.709   0.995  15.825 -0.4133 -0.3748 -0.0402
 4133TIP3    H133890   3.720   0.905  15.855  0.8110  0.5860  2.4393
 4133TIP3    H233891   3.787   1.013  15.773 -0.8560 -0.8556 -0.8884
 4134TIP3   OH233892   4.891   3.102  16.064  0.2612 -0.5216 -0.5297
 4134TIP3    H133893   4.817   3.162  16.055 -0.4803 -1.2305  0.8502
 4134TIP3    H233894   4.938   3.110  15.980 -0.8377  0.6201 -1.0551
 4135TIP3   OH233895   1.869   4.491   2.105  0.2535 -0.2086  0.5582
 4135TIP3    H133896   1.777   4.475   2.084  0.0898 -1.1819  1.9386
 4135TIP3    H233897   1.914   4.488   2.021 -0.8544 -0.5671 -0.0284
 4136TIP3   OH233898   6.264   0.159   2.443  0.7430 -0.5356  0.2151
 4136TIP3    H133899   6.359   0.173   2.446  0.6359  0.0581  0.7505
 4136TIP3    H233900   6.227   0.247   2.443  0.1742 -0.7786  0.5265
 4137TIP3   OH233901   1.646   3.105  15.575 -0.2323  0.1719 -0.3548
 4137TIP3    H133902   1.607   3.190  15.554 -0.5711 -0.0502 -0.6412
 4137TIP3    H233903   1.632   3.052  15.496  1.7806  0.4790 -0.9287
 4138TIP3   OH233904   6.523   1.692   4.563 -0.4140 -0.5104  0.5605
 4138TIP3    H133905   6.505   1.678   4.470  0.8292 -2.4158  0.5635
 4138TIP3    H233906   6.488   1.614   4.606  3.3644 -2.0474  1.0775
 4139TIP3   OH233907   2.161   0.815  16.472 -0.2444 -0.7343  0.3299
 4139TIP3    H133908   2.075   0.776  16.490 -0.6413  0.3595  0.9144
 4139TIP3    H233909   2.166   0.888  16.535  0.1742  0.5601 -1.1818
 4140TIP3   OH233910   5.334   4.833  11.870 -0.4302 -0.0509 -0.1267
 4140TIP3    H133911   5.369   4.750  11.838  0.2678  0.8488 -1.7566
 4140TIP3    H233912   5.322   4.819  11.964  2.2953 -1.0880  0.1263
 4141TIP3   OH233913   1.772   1.951  16.735  0.1328  0.5693  0.1565
 4141TIP3    H133914   1.731   2.021  16.685 -0.0239 -0.1874 -0.7894
 4141TIP3    H233915   1.805   1.890  16.669 -0.6480 -0.7715  0.9863
 4142TIP3   OH233916   1.978   5.923  16.607  0.0229  0.2456  0.1894
 4142TIP3    H133917   1.942   5.850  16.557  0.6892  0.9912 -1.4098
 4142TIP3    H233918   1.926   5.998  16.581  0.8153  0.7690  0.0916
 4143TIP3   OH233919   4.216   5.515  13.476 -0.0440  0.2288 -0.1909
 4143TIP3    H133920   4.309   5.496  13.484 -0.2082 -1.5166 -1.8800
 4143TIP3    H233921   4.172   5.436  13.507 -0.9887  1.2601  1.1541
 4144TIP3   OH233922   3.831   5.636   5.689 -0.3944 -0.0591  0.0953
 4144TIP3    H133923   3.841   5.596   5.602  2.5026  0.2986  0.1960
 4144TIP3    H233924   3.861   5.568   5.750  1.4062  1.0764  0.5049
 4145TIP3   OH233925   6.710   2.218   3.849 -0.8893  0.9050  0.4020
 4145TIP3    H133926   6.737   2.280   3.917 -0.6674 -0.2754  1.4002
 4145TIP3    H233927   6.696   2.136   3.895 -1.8393  0.3652 -0.8149
 4146TIP3   OH233928   0.671   4.040  11.572 -0.3475  0.2426  0.3494
 4146TIP3    H133929   0.710   4.047  11.485 -0.9156  0.2762  0.0924
 4146TIP3    H233930   0.675   4.129  11.608  0.3864  0.1174  0.5773
 4147TIP3   OH233931   4.076   5.712   2.100  0.3493 -0.0480  0.2972
 4147TIP3    H133932   4.085   5.688   2.008  0.5542 -3.2959  1.1010
 4147TIP3    H233933   4.020   5.789   2.100 -0.0953 -0.3458 -2.5151
 4148TIP3   OH233934   0.485   2.464   1.978  0.2073 -0.2355 -0.7701
 4148TIP3    H133935   0.537   2.532   1.935  1.3883 -0.3328  0.4524
 4148TIP3    H233936   0.457   2.504   2.061  2.2379 -1.7246  0.6987
 4149TIP3   OH233937   2.792   2.183  12.406 -0.2512 -0.2432 -0.8524
 4149TIP3    H133938   2.838   2.113  12.360  1.1103  0.2357 -0.2717
 4149TIP3    H233939   2.831   2.184  12.494 -2.7785 -1.1140  0.3252
 4150TIP3   OH233940   3.840   2.121  15.234  0.3554  0.3942  0.0762
 4150TIP3    H133941   3.752   2.158  15.226  0.3789  0.4220 -0.0513
 4150TIP3    H233942   3.825   2.030  15.262  0.2923  0.4413  0.1973
 4151TIP3   OH233943   0.712   2.557   2.629  0.0391 -0.3540  0.1877
 4151TIP3    H133944   0.700   2.578   2.536 -0.2371 -0.5164  0.1864
 4151TIP3    H233945   0.627   2.574   2.669  0.5004  0.9428  0.6503
 4152TIP3   OH233946   5.930   5.502   0.547 -0.2271 -0.0593 -0.2202
 4152TIP3    H133947   6.001   5.563   0.568 -1.8413  2.2524 -1.1963
 4152TIP3    H233948   5.955   5.465   0.462  0.4454 -0.2856  0.0701
 4153TIP3   OH233949   3.994   6.018   2.063 -0.3325 -0.1243 -0.3587
 4153TIP3    H133950   4.014   6.106   2.030  1.5135 -0.4147 -0.0847
 4153TIP3    H233951   3.961   6.032   2.152 -2.9552  0.4878 -1.4078
 4154TIP3   OH233952   6.715   4.413   4.390 -0.2818  0.0341  0.0756
 4154TIP3    H133953   6.778   4.404   4.461  0.8870  2.0082 -0.6992
 4154TIP3    H233954   6.764   4.391   4.311 -1.2741 -1.0069 -0.2652
 4155TIP3   OH233955   2.024   6.819   4.130  0.4752  0.3609  0.1426
 4155TIP3    H133956   2.070   6.735   4.130 -0.7974 -0.3497 -0.9619
 4155TIP3    H233957   1.943   6.803   4.179  0.1828  0.9290 -0.1409
 4156TIP3   OH233958   3.558   3.649   3.470 -0.0205  0.2603  0.3157
 4156TIP3    H133959   3.575   3.647   3.376 -0.1983  1.4111  0.2496
 4156TIP3    H233960   3.509   3.730   3.483  1.8559  1.2044  1.7089
 4157TIP3   OH233961   4.798   5.843  12.686 -0.0265  0.0200 -0.1170
 4157TIP3    H133962   4.784   5.772  12.749 -1.0188  0.3798  0.0836
 4157TIP3    H233963   4.733   5.828  12.618 -0.7561  1.1613  0.3089
 4158TIP3   OH233964   1.704   0.005  11.369 -0.0232 -0.2360 -0.0583
 4158TIP3    H133965   1.624   0.025  11.320  0.2415 -1.0539 -0.8440
 4158TIP3    H233966   1.773   0.008  11.303  0.7799  1.5886  0.8113
 4159TIP3   OH233967   2.492   4.115   4.388 -0.3604 -0.3007 -0.0801
 4159TIP3    H133968   2.527   4.031   4.357  2.3135 -0.0564  2.0685
 4159TIP3    H233969   2.437   4.092   4.463 -0.0957 -0.1691  0.1533
 4160TIP3   OH233970   1.596   2.720  12.772 -0.2331  0.4303 -0.1316
 4160TIP3    H133971   1.564   2.739  12.860 -1.0898 -1.6099  0.0225
 4160TIP3    H233972   1.683   2.684  12.784  1.0634  3.3645 -0.3741
 4161TIP3   OH233973   1.441   5.377  16.982  0.1841 -0.7334  0.7839
 4161TIP3    H133974   1.478   5.314  17.044  0.4317 -0.4010  0.9805
 4161TIP3    H233975   1.494   5.456  16.995 -1.7546  0.3520  2.3699
 4162TIP3   OH233976   2.998   6.065   1.872 -0.4912 -0.0587 -0.2446
 4162TIP3    H133977   2.947   6.128   1.924 -0.8550 -1.6193  1.3385
 4162TIP3    H233978   3.087   6.074   1.905 -0.6972 -0.9519  0.5864
 4163TIP3   OH233979   2.597   5.253  11.626 -0.6410 -0.6775  0.4530
 4163TIP3    H133980   2.668   5.280  11.684 -1.3323 -1.5411  1.7335
 4163TIP3    H233981   2.638   5.195  11.562  0.2138  0.6641 -0.2180
 4164TIP3   OH233982   1.865   6.127   5.065  0.1863 -0.5823 -0.2178
 4164TIP3    H133983   1.852   6.213   5.025 -0.4657 -1.1905 -1.3325
 4164TIP3    H233984   1.795   6.121   5.130 -2.5132 -1.9899 -3.0992
 4165TIP3   OH233985   1.899   6.131  16.863 -0.5966 -0.2490 -0.1721
 4165TIP3    H133986   1.809   6.135  16.894 -0.9363 -1.2643 -1.0156
 4165TIP3    H233987   1.909   6.206  16.804 -0.4444  0.7143  1.0545
 4166TIP3   OH233988   4.459   2.163  10.837  0.4345  0.1712 -0.1063
 4166TIP3    H133989   4.381   2.152  10.782 -0.2347  1.4002  0.5669
 4166TIP3    H233990   4.525   2.106  10.798 -0.9656 -1.2770 -0.3864
 4167TIP3   OH233991   1.799   4.972   3.726  0.5199 -0.6068  0.0777
 4167TIP3    H133992   1.828   4.905   3.665  0.3113  0.4390 -1.1881
 4167TIP3    H233993   1.704   4.977   3.712  0.6704  0.6672 -0.5911
 4168TIP3   OH233994   6.448   5.070   2.303 -0.3726 -0.2782  0.4249
 4168TIP3    H133995   6.515   5.004   2.323 -0.2329  0.2883  1.8640
 4168TIP3    H233996   6.495   5.153   2.307 -0.5053 -0.1001 -1.6065
 4169TIP3   OH233997   2.604   3.308  15.793  0.4255  0.4733 -0.2399
 4169TIP3    H133998   2.651   3.385  15.824  0.3366  0.0077  1.0844
 4169TIP3    H233999   2.602   3.249  15.869 -1.1791 -0.0275 -0.6528
 4170TIP3   OH234000   3.451   1.642   1.903 -0.4568  0.2288 -0.0312
 4170TIP3    H134001   3.415   1.623   1.817  0.4493 -1.6442 -0.0153
 4170TIP3    H234002   3.433   1.564   1.955 -1.7175  1.6487  1.7330
 4171TIP3   OH234003   2.109   1.532   3.284  0.1973  0.7830 -0.0824
 4171TIP3    H134004   2.179   1.541   3.349 -0.9073  0.9126  1.0920
 4171TIP3    H234005   2.106   1.439   3.264  0.9390  0.8245 -0.3896
 4172TIP3   OH234006   6.438   2.845  12.665  0.7965 -0.2802 -0.1297
 4172TIP3    H134007   6.453   2.845  12.571  0.8422 -0.3105 -0.1223
 4172TIP3    H234008   6.343   2.834  12.674  0.9091 -1.2718 -0.1488
 4173TIP3   OH234009   5.462   2.317   3.033 -0.0898  0.0607  0.2938
 4173TIP3    H134010   5.435   2.265   3.108 -1.2076  0.4681  0.1951
 4173TIP3    H234011   5.400   2.294   2.964 -0.2004  1.0263  0.0544
 4174TIP3   OH234012   5.588   6.459   2.776 -0.2463  0.0692 -0.0218
 4174TIP3    H134013   5.661   6.483   2.719  1.3607  0.2497  2.0396
 4174TIP3    H234014   5.602   6.366   2.795 -2.1268 -0.6100 -1.8187
 4175TIP3   OH234015   0.306   3.913   1.546  0.2141 -0.0005 -0.2407
 4175TIP3    H134016   0.216   3.942   1.528  0.5182 -0.2360 -2.2390
 4175TIP3    H234017   0.344   3.899   1.460  1.8335 -0.9959  0.6189
 4176TIP3   OH234018   3.808   1.379   3.791  0.1115 -0.0834 -0.2938
 4176TIP3    H134019   3.894   1.383   3.749 -0.1356  0.3008 -0.7742
 4176TIP3    H234020   3.827   1.363   3.883  0.7002 -0.0307 -0.4015
 4177TIP3   OH234021   6.233   0.356   3.792 -0.0420  0.1272  0.2934
 4177TIP3    H134022   6.207   0.365   3.701  2.3990 -0.2726 -0.4623
 4177TIP3    H234023   6.250   0.263   3.803 -2.2905 -0.1483  1.7302
 4178TIP3   OH234024   3.155   4.744  11.634 -0.1986 -0.2744 -0.6240
 4178TIP3    H134025   3.200   4.826  11.614  1.7462 -1.3695 -0.8477
 4178TIP3    H234026   3.108   4.761  11.716  2.3305  0.2687  0.7510
 4179TIP3   OH234027   1.404   2.848   5.857 -0.1792  0.9013  0.2093
 4179TIP3    H134028   1.358   2.828   5.776  0.1041 -0.8899  0.4842
 4179TIP3    H234029   1.476   2.786   5.860  1.4354  2.7450  0.4940
 4180TIP3   OH234030   2.665   3.452   2.154  0.4762 -0.0332 -0.4750
 4180TIP3    H134031   2.746   3.496   2.128 -1.2750  2.9987 -0.9979
 4180TIP3    H234032   2.662   3.460   2.249  1.2641 -1.0134 -0.3652
 4181TIP3   OH234033   2.743   6.100  12.165 -0.4214  0.7357  0.1877
 4181TIP3    H134034   2.665   6.150  12.142  0.2162  0.5007 -2.7173
 4181TIP3    H234035   2.810   6.131  12.103  0.7442 -1.6947  0.1647
 4182TIP3   OH234036   4.874   2.120   1.797  0.0171 -0.2633 -0.6479
 4182TIP3    H134037   4.785   2.101   1.766 -0.4069  1.0947 -0.2900
 4182TIP3    H234038   4.898   2.044   1.848 -0.8193 -0.7902 -1.0207
 4183TIP3   OH234039   6.457   2.899  12.375 -0.2651  0.1254  0.3242
 4183TIP3    H134040   6.483   2.990  12.362 -1.6636  0.3718 -0.9487
 4183TIP3    H234041   6.367   2.895  12.342 -0.9525 -1.2502  2.2797
 4184TIP3   OH234042   5.675   0.865  14.926  0.1419 -0.3948  0.4225
 4184TIP3    H134043   5.583   0.855  14.899 -0.2058  0.6447  1.2089
 4184TIP3    H234044   5.711   0.776  14.918 -0.8555 -0.7665 -0.1484
 4185TIP3   OH234045   6.632   6.030  11.737  0.9223  0.3948 -0.8513
 4185TIP3    H134046   6.664   6.036  11.828  1.8966  1.8291 -1.2714
 4185TIP3    H234047   6.695   6.081  11.686  1.2011 -1.6103 -2.5657
 4186TIP3   OH234048   3.824   4.415  12.847 -0.2875 -0.1052  0.4987
 4186TIP3    H134049   3.732   4.388  12.844 -0.2049 -0.4652  1.1377
 4186TIP3    H234050   3.821   4.511  12.851 -0.6604 -0.1487  1.4140
 4187TIP3   OH234051   0.583   4.951  11.465 -0.1297  0.0815  0.0017
 4187TIP3    H134052   0.556   4.871  11.421 -0.2446 -1.3565  2.5444
 4187TIP3    H234053   0.677   4.938  11.482 -0.5593 -0.3886  2.1241
 4188TIP3   OH234054   2.798   0.145  15.221 -0.2163  0.5366 -0.0822
 4188TIP3    H134055   2.792   0.181  15.133  0.7201 -1.0009 -0.8001
 4188TIP3    H234056   2.718   0.094  15.232  0.4585 -0.6833 -0.7148
 4189TIP3   OH234057   3.906   0.936  11.935  0.0227  0.0428 -0.1979
 4189TIP3    H134058   3.928   0.856  11.982  0.9324  0.5766  0.3072
 4189TIP3    H234059   3.974   0.998  11.960  1.3239 -0.0464 -3.3330
 4190TIP3   OH234060   1.595   5.474   4.430  0.3730 -0.5867  0.1066
 4190TIP3    H134061   1.528   5.537   4.405  1.4040  0.3406 -0.3706
 4190TIP3    H234062   1.606   5.419   4.352  1.2144  0.2041 -0.3460
 4191TIP3   OH234063   6.778   1.827  13.605  0.1718  0.0492  0.1677
 4191TIP3    H134064   6.807   1.899  13.661  1.3051 -0.0092 -0.3222
 4191TIP3    H234065   6.727   1.870  13.536 -0.8674  0.1616  1.0076
 4192TIP3   OH234066   4.877   3.879   2.317 -0.4512  0.3268 -1.2401
 4192TIP3    H134067   4.909   3.949   2.374  0.2485 -1.7009  0.9226
 4192TIP3    H234068   4.784   3.872   2.336 -0.2830 -0.1247 -0.5786
 4193TIP3   OH234069   2.613   2.210  10.247 -0.0720 -0.7757 -0.2354
 4193TIP3    H134070   2.674   2.140  10.270 -0.3245 -1.5551 -1.9092
 4193TIP3    H234071   2.527   2.170  10.252 -0.5755  0.5108  2.8149
 4194TIP3   OH234072   3.614   3.522   2.864  0.2570 -0.5003 -0.3211
 4194TIP3    H134073   3.686   3.585   2.860  2.8758 -3.4115 -0.8017
 4194TIP3    H234074   3.567   3.535   2.782  2.1072 -0.6419 -1.4470
 4195TIP3   OH234075   3.519   3.650  16.764  0.0171  0.0258 -0.5532
 4195TIP3    H134076   3.576   3.727  16.755 -0.0086  0.3844  2.0123
 4195TIP3    H234077   3.430   3.686  16.765  0.0175  0.0419  0.9673
 4196TIP3   OH234078   5.894   4.104   6.364 -0.0359 -0.3405  0.5904
 4196TIP3    H134079   5.866   4.111   6.272 -1.9348 -0.8978  1.0890
 4196TIP3    H234080   5.855   4.180   6.406 -0.8578 -1.1356  1.3077
 4197TIP3   OH234081   5.105   6.237  10.777  0.5501 -0.0635 -0.5264
 4197TIP3    H134082   5.087   6.147  10.807 -0.6121 -0.0649 -1.1825
 4197TIP3    H234083   5.196   6.253  10.803  0.4023 -1.0046  0.6573
 4198TIP3   OH234084   3.443   2.624   1.397  0.1006 -0.0622  0.0108
 4198TIP3    H134085   3.512   2.599   1.336  0.0280  0.3738 -0.2532
 4198TIP3    H234086   3.485   2.686   1.457 -0.3379  1.0967 -0.8472
 4199TIP3   OH234087   6.236   5.233  12.550  0.0193  0.2358  0.3495
 4199TIP3    H134088   6.142   5.228  12.568  0.3257 -1.0767  1.6539
 4199TIP3    H234089   6.257   5.150  12.508  0.6506  0.4140  0.3121
 4200TIP3   OH234090   6.319   4.932   0.384  0.2400 -0.0517  0.2298
 4200TIP3    H134091   6.383   4.999   0.361  0.0689 -0.0616 -0.2945
 4200TIP3    H234092   6.235   4.968   0.356 -0.6354  1.9321  5.0805
 4201TIP3   OH234093   2.318   4.457   0.688 -0.1163 -0.5020 -0.4461
 4201TIP3    H134094   2.258   4.383   0.679  0.0789 -0.7853  0.4934
 4201TIP3    H234095   2.363   4.462   0.604 -1.5174 -0.2302 -1.1863
 4202TIP3   OH234096   1.847   0.216  16.147  0.6713  0.1164 -0.0443
 4202TIP3    H134097   1.935   0.217  16.185  0.3189 -1.8515  0.9193
 4202TIP3    H234098   1.855   0.158  16.071  0.8689  2.3040 -1.7380
 4203TIP3   OH234099   6.566   4.074   1.702  0.2105 -0.5765 -0.1325
 4203TIP3    H134100   6.549   4.142   1.638 -0.0214 -0.2240  0.2978
 4203TIP3    H234101   6.617   4.117   1.771  2.1374 -1.4136 -0.9917
 4204TIP3   OH234102   3.584   6.382  10.531 -0.3855  0.5855 -0.0599
 4204TIP3    H134103   3.665   6.342  10.561  0.2040  0.9246 -1.2078
 4204TIP3    H234104   3.611   6.463  10.489 -1.4264  1.3441  0.6897
 4205TIP3   OH234105   4.228   2.887   3.261  0.3400  0.7220  0.3339
 4205TIP3    H134106   4.152   2.846   3.220  1.2062 -0.3215 -0.2531
 4205TIP3    H234107   4.192   2.961   3.309 -0.9833  0.5678 -0.3921
 4206TIP3   OH234108   2.449   1.829  14.012 -0.8473 -0.2329  0.7889
 4206TIP3    H134109   2.509   1.774  14.063 -1.3214  0.1339  1.7603
 4206TIP3    H234110   2.363   1.812  14.049 -1.2146 -0.0533  0.0175
 4207TIP3   OH234111   0.799   4.449  12.237 -0.2843  0.3330  0.0371
 4207TIP3    H134112   0.773   4.502  12.162 -0.4412  1.1528  0.6557
 4207TIP3    H234113   0.861   4.385  12.202 -0.5392  0.5549 -0.8267
 4208TIP3   OH234114   5.877   1.067  14.704  0.1409  0.4482 -0.7838
 4208TIP3    H134115   5.910   0.978  14.695 -0.7896  0.0079  0.0695
 4208TIP3    H234116   5.873   1.082  14.798  0.9547  1.6488 -0.9286
 4209TIP3   OH234117   3.988   6.553   1.071  0.1409  0.0491  0.6299
 4209TIP3    H134118   4.070   6.569   1.023  0.8446  1.0660  2.1256
 4209TIP3    H234119   3.920   6.588   1.013  0.8663  0.1405 -0.1778
 4210TIP3   OH234120   1.602   1.794  16.944 -0.0334 -0.2712 -0.0674
 4210TIP3    H134121   1.545   1.728  16.906 -0.2625  0.7557 -1.5539
 4210TIP3    H234122   1.622   1.853  16.871  0.5631  1.0051  1.1101
 4211TIP3   OH234123   5.619   4.446   3.664 -0.1703  0.5952 -0.5711
 4211TIP3    H134124   5.603   4.435   3.570 -3.1778  1.1154 -0.1712
 4211TIP3    H234125   5.561   4.382   3.706  3.4933 -1.8848  0.8860
 4212TIP3   OH234126   3.509   5.305  13.460 -0.1152 -0.3418  0.5884
 4212TIP3    H134127   3.476   5.239  13.521 -0.4893 -0.1975  0.5418
 4212TIP3    H234128   3.534   5.255  13.382  0.2296 -0.5093  0.8047
 4213TIP3   OH234129   0.363   0.244  15.328 -0.2079  0.7937  0.2657
 4213TIP3    H134130   0.330   0.179  15.265 -2.2485  1.7944  0.2719
 4213TIP3    H234131   0.327   0.215  15.412  1.2143  0.3552  0.7348
 4214TIP3   OH234132   4.002   2.970  10.099 -0.4891 -0.2741  0.4688
 4214TIP3    H134133   4.043   3.055  10.116 -0.6840 -0.2941  1.0616
 4214TIP3    H234134   4.045   2.910  10.160 -1.8464 -0.1598  1.5651
 4215TIP3   OH234135   3.171   2.684   0.165 -0.3396  0.3970  0.5306
 4215TIP3    H134136   3.124   2.767   0.163 -0.0736  0.5892  2.1077
 4215TIP3    H234137   3.220   2.685   0.247 -0.8306 -1.5909  0.8815
 4216TIP3   OH234138   4.302   2.118   5.002 -0.2950 -0.1865  0.1628
 4216TIP3    H134139   4.319   2.194   5.058  1.2736 -1.6496  1.7392
 4216TIP3    H234140   4.209   2.123   4.982 -0.0521  2.6379 -0.5303
 4217TIP3   OH234141   5.262   0.445   1.939 -0.3525 -0.4741 -0.1082
 4217TIP3    H134142   5.173   0.448   1.975  0.6699 -0.7913  2.4921
 4217TIP3    H234143   5.289   0.354   1.948  0.9150 -0.0151  0.7678
 4218TIP3   OH234144   4.738   6.127  11.431 -0.1952  0.2887  0.5022
 4218TIP3    H134145   4.790   6.053  11.462  0.3532  0.7745  0.7468
 4218TIP3    H234146   4.713   6.173  11.511 -0.3685  0.4859  0.3339
 4219TIP3   OH234147   5.091   1.869   2.090 -0.1895  0.1533  0.2869
 4219TIP3    H134148   5.018   1.916   2.052 -0.0012 -0.0945 -0.3945
 4219TIP3    H234149   5.055   1.825   2.167 -0.3098  1.5684  1.0379
 4220TIP3   OH234150   2.367   5.402  12.364  0.7123 -0.2111 -0.8777
 4220TIP3    H134151   2.458   5.416  12.336  0.2779 -0.2743 -2.3882
 4220TIP3    H234152   2.372   5.329  12.426  1.7068 -0.1184 -0.8331
 4221TIP3   OH234153   1.574   0.847  16.367 -0.2320  0.1089  0.0668
 4221TIP3    H134154   1.605   0.893  16.445  4.5990 -2.6380 -0.0884
 4221TIP3    H234155   1.541   0.763  16.399 -0.4040 -0.0957 -0.6241
 4222TIP3   OH234156   5.229   5.938   0.121  0.1076 -0.2681 -0.3101
 4222TIP3    H134157   5.137   5.948   0.145 -0.0495  1.1708 -1.4797
 4222TIP3    H234158   5.244   5.844   0.121 -0.8035 -0.4535  1.9648
 4223TIP3   OH234159   3.563   0.226   0.008 -0.2985 -0.2825 -0.0730
 4223TIP3    H134160   3.638   0.167   0.009 -0.2943 -0.2772 -0.0783
 4223TIP3    H234161   3.493   0.175  -0.034 -0.4219 -0.4412  0.3095
 4224TIP3   OH234162   4.220   3.132   4.747 -0.1131  0.2635 -0.3957
 4224TIP3    H134163   4.180   3.126   4.834  0.8556  0.3584  0.0611
 4224TIP3    H234164   4.231   3.226   4.732  0.3389  0.2195 -0.3351
 4225TIP3   OH234165   4.114   5.033   0.813 -0.2624 -0.1111  0.7721
 4225TIP3    H134166   4.156   5.116   0.835  1.2601 -0.4353 -0.8411
 4225TIP3    H234167   4.186   4.974   0.791 -1.4711 -1.0533 -0.7942
 4226TIP3   OH234168   0.596   0.427   5.265  0.1338  0.3768 -0.1741
 4226TIP3    H134169   0.665   0.371   5.229 -0.1972  1.1700 -2.1255
 4226TIP3    H234170   0.527   0.366   5.290  0.6611 -0.2544 -0.2283
 4227TIP3   OH234171   2.924   5.140   4.420  0.2734  0.2240  0.0580
 4227TIP3    H134172   2.857   5.181   4.365 -1.5941 -0.5863  1.6436
 4227TIP3    H234173   2.957   5.211   4.475 -2.1277 -0.0804  1.9926
 4228TIP3   OH234174   0.802   4.669  11.008  0.3148 -0.6620 -0.3557
 4228TIP3    H134175   0.782   4.576  11.015  1.9507 -1.0971 -1.1544
 4228TIP3    H234176   0.898   4.673  11.013  0.2788  0.9367 -0.7253
 4229TIP3   OH234177   4.691   6.334   0.484 -0.0148 -0.0610  0.0894
 4229TIP3    H134178   4.685   6.317   0.390  0.3133 -0.4110  0.1308
 4229TIP3    H234179   4.633   6.409   0.499 -2.6247 -2.0416  0.1497
 4230TIP3   OH234180   6.389   5.945  17.227  0.3388  0.0920 -0.1457
 4230TIP3    H134181   6.394   6.000  17.148  1.4356  0.8475  0.4487
 4230TIP3    H234182   6.475   5.953  17.268 -0.4280  0.1953  1.4712
 4231TIP3   OH234183   5.316   1.040  15.437 -0.1278  0.3586 -0.4595
 4231TIP3    H134184   5.368   1.070  15.363 -0.2891  0.2132 -0.6335
 4231TIP3    H234185   5.326   1.109  15.503 -0.1613  0.5923 -0.6991
 4232TIP3   OH234186   4.115   6.267   3.247 -0.2817 -0.5633  0.1894
 4232TIP3    H134187   4.186   6.322   3.278  0.5891 -2.7051  2.1321
 4232TIP3    H234188   4.035   6.313   3.273  0.3788  1.2117 -0.8609
 4233TIP3   OH234189   0.508   1.776   6.251 -0.6332  0.4468  0.3656
 4233TIP3    H134190   0.602   1.778   6.271 -0.4974 -1.8218  0.0909
 4233TIP3    H234191   0.504   1.785   6.156 -0.6396 -0.2343  0.2982
 4234TIP3   OH234192   5.897   3.057  15.377  0.5442  0.2151 -0.0777
 4234TIP3    H134193   5.825   3.050  15.315  0.9350  0.9091 -0.6020
 4234TIP3    H234194   5.861   3.109  15.449  0.5074  0.5068 -0.3096
 4235TIP3   OH234195   2.495   5.050   4.043 -0.0049 -0.4262 -0.1220
 4235TIP3    H134196   2.473   5.048   4.137  1.2639  0.4069  0.2097
 4235TIP3    H234197   2.501   4.958   4.018 -1.7757 -0.6593  0.2656
 4236TIP3   OH234198   0.926   1.196   3.655 -0.2129 -0.5873  0.3990
 4236TIP3    H134199   0.934   1.233   3.743  1.2904  1.0159 -0.3804
 4236TIP3    H234200   0.921   1.101   3.669 -0.8173 -0.3087  2.2382
 4237TIP3   OH234201   5.391   0.342  15.279  0.3475  0.1596  0.1998
 4237TIP3    H134202   5.434   0.310  15.200 -1.1954 -1.2743 -0.0970
 4237TIP3    H234203   5.456   0.331  15.349 -0.0002 -3.3735  0.0382
 4238TIP3   OH234204   3.447   2.758  16.487  0.4541 -0.1125 -0.1081
 4238TIP3    H134205   3.432   2.779  16.579  0.3892  2.3337 -0.6292
 4238TIP3    H234206   3.373   2.797  16.441  1.4164  0.2848 -1.3761
 4239TIP3   OH234207   0.319   1.180   4.104 -0.4401  1.0759  0.0120
 4239TIP3    H134208   0.289   1.239   4.174  1.8081  1.8732  0.3459
 4239TIP3    H234209   0.371   1.236   4.046  1.2807 -0.4373  0.0343
 4240TIP3   OH234210   5.572   3.958  12.750  0.2691 -0.0928  0.0599
 4240TIP3    H134211   5.556   3.918  12.665 -0.2795 -1.2664  0.6864
 4240TIP3    H234212   5.489   3.947  12.797  0.9166 -0.5125  1.1380
 4241TIP3   OH234213   4.113   4.600   5.212 -0.5791 -0.8047  0.3955
 4241TIP3    H134214   4.116   4.690   5.247 -1.0221 -0.4961 -0.3649
 4241TIP3    H234215   4.073   4.549   5.282  0.5866 -0.5979  1.2366
 4242TIP3   OH234216   1.275   4.443   3.081 -0.2141  0.1365 -0.1128
 4242TIP3    H134217   1.287   4.367   3.138 -0.9433 -0.9620 -1.3846
 4242TIP3    H234218   1.343   4.504   3.107  1.0322 -1.3834  0.2450
 4243TIP3   OH234219   5.321   6.298   4.906 -0.4632  0.4182  0.0780
 4243TIP3    H134220   5.360   6.362   4.964  1.2447 -0.5478  0.0137
 4243TIP3    H234221   5.228   6.297   4.931  0.0451  0.7528  2.0682
 4244TIP3   OH234222   6.699   4.791  12.095 -0.1476 -0.7075 -0.3690
 4244TIP3    H134223   6.738   4.849  12.161 -1.0463 -1.4759  0.8438
 4244TIP3    H234224   6.775   4.748  12.054  0.6242  2.2822 -2.2277
 4245TIP3   OH234225   1.009   3.645   0.129  0.1795 -0.9994 -0.3145
 4245TIP3    H134226   1.083   3.617   0.183  0.7085 -1.7504 -1.4039
 4245TIP3    H234227   0.933   3.636   0.186  0.7523 -1.5850  0.3634
 4246TIP3   OH234228   1.137   3.689  11.203  0.4713  0.4728 -0.0275
 4246TIP3    H134229   1.145   3.768  11.149 -0.6873 -0.1984 -1.1843
 4246TIP3    H234230   1.169   3.618  11.148 -0.7839 -0.2297  0.1370
 4247TIP3   OH234231   4.452   2.729  12.095  0.9533 -0.1893  0.0838
 4247TIP3    H134232   4.425   2.680  12.018 -1.5377 -0.7881  1.2744
 4247TIP3    H234233   4.548   2.730  12.091  0.8644 -0.3558 -2.8813
 4248TIP3   OH234234   0.736   4.642  12.912 -0.4773  0.1247  0.0446
 4248TIP3    H134235   0.790   4.638  12.833  2.0338 -0.9470  1.7499
 4248TIP3    H234236   0.731   4.736  12.932 -0.8685  0.3777 -1.1991
 4249TIP3   OH234237   6.197   2.406  14.538  0.3372 -0.5499  0.3267
 4249TIP3    H134238   6.263   2.372  14.478  1.4763 -0.2104  1.3621
 4249TIP3    H234239   6.245   2.464  14.597 -0.9681  0.0790  0.8112
 4250TIP3   OH234240   5.742   6.565   4.322 -0.2796  0.9343  0.4335
 4250TIP3    H134241   5.698   6.538   4.403 -0.5319  0.2002  0.0576
 4250TIP3    H234242   5.674   6.559   4.255 -0.0210  1.3565  0.1368
 4251TIP3   OH234243   1.512   0.950  15.162 -0.2627  0.2460  0.1479
 4251TIP3    H134244   1.558   1.007  15.100  0.2810 -0.8232 -0.4465
 4251TIP3    H234245   1.446   1.006  15.201  0.6180  1.4348 -0.0284
 4252TIP3   OH234246   5.204   5.069  16.793 -0.2860 -0.4501  0.2383
 4252TIP3    H134247   5.226   5.116  16.712  2.1223  0.2092  1.2230
 4252TIP3    H234248   5.144   5.128  16.839 -0.3706 -0.0865 -0.3347
 4253TIP3   OH234249   2.498   2.338  10.558 -0.1434 -0.7630  0.3537
 4253TIP3    H134250   2.492   2.284  10.637 -0.4293  0.8720  1.4835
 4253TIP3    H234251   2.413   2.330  10.516 -0.5162 -0.4419  1.0375
 4254TIP3   OH234252   3.153   1.234  12.159  0.1913  0.4170  0.2336
 4254TIP3    H134253   3.213   1.272  12.095 -0.2263  1.1514  0.2784
 4254TIP3    H234254   3.100   1.308  12.190  0.6785  0.1529  1.7437
 4255TIP3   OH234255   6.159   5.525   3.633 -0.1336 -0.0241 -0.1406
 4255TIP3    H134256   6.242   5.478   3.640  0.7029  1.4700  0.1714
 4255TIP3    H234257   6.161   5.567   3.547 -0.2506  0.5878  0.1490
 4256TIP3   OH234258   1.204   0.193  11.714  0.0535 -0.3589  0.2735
 4256TIP3    H134259   1.220   0.183  11.808 -2.1149 -0.3326  0.6592
 4256TIP3    H234260   1.196   0.103  11.682  0.8861 -0.3706  0.0871
 4257TIP3   OH234261   0.528   0.350  16.202 -0.2997 -0.0675 -0.2780
 4257TIP3    H134262   0.439   0.318  16.190 -0.6741  0.2263  1.4581
 4257TIP3    H234263   0.520   0.416  16.271  1.1878  0.3133 -0.4490
 4258TIP3   OH234264   0.403   6.579   1.531 -0.0544 -0.5009  0.1563
 4258TIP3    H134265   0.413   6.656   1.476  1.1792 -1.0697 -0.4412
 4258TIP3    H234266   0.492   6.555   1.556 -0.5314 -0.8726  1.5337
 4259TIP3   OH234267   6.102   5.309  12.239 -0.0584  0.0176  0.1438
 4259TIP3    H134268   6.138   5.289  12.326 -0.1583  2.0035  0.6692
 4259TIP3    H234269   6.057   5.229  12.213 -0.4623 -0.4442  2.1494
 4260TIP3   OH234270   6.277   3.576  12.513 -0.2389  0.0592  0.3382
 4260TIP3    H134271   6.297   3.491  12.475 -0.3390  0.1432  0.0959
 4260TIP3    H234272   6.257   3.632  12.438 -0.0474  0.3300  0.4898
 4261TIP3   OH234273   2.014   0.457   5.970 -0.2297  0.8489 -0.6326
 4261TIP3    H134274   1.993   0.430   6.060 -1.0140 -1.4848 -1.4818
 4261TIP3    H234275   2.105   0.430   5.958 -0.6565 -0.4182 -1.0957
 4262TIP3   OH234276   1.228   3.192   2.649  0.1802 -0.0243  0.2351
 4262TIP3    H134277   1.216   3.097   2.649 -0.8345  0.1011 -0.2964
 4262TIP3    H234278   1.201   3.220   2.561 -0.2237  0.8462  0.6317
 4263TIP3   OH234279   0.381   4.093  14.092  0.4440  0.0133 -0.2316
 4263TIP3    H134280   0.374   4.000  14.113  0.7101 -0.2744 -1.3880
 4263TIP3    H234281   0.302   4.132  14.129  1.2356 -0.3427  1.9446
 4264TIP3   OH234282   3.455   3.518  16.495 -0.3780 -0.5611 -0.0013
 4264TIP3    H134283   3.473   3.593  16.552 -0.0519  0.7312 -1.7857
 4264TIP3    H234284   3.523   3.454  16.517 -0.0069  0.0793  0.7584
 4265TIP3   OH234285   4.703   1.790  13.476  0.0495  0.5296  0.2661
 4265TIP3    H134286   4.678   1.880  13.494  0.1865  0.8251 -0.9561
 4265TIP3    H234287   4.657   1.738  13.542 -3.2878  1.1083 -1.5233
 4266TIP3   OH234288   5.941   4.637   1.449 -0.4096  0.0680  0.9524
 4266TIP3    H134289   6.030   4.638   1.414  1.2307 -0.9234  4.7588
 4266TIP3    H234290   5.913   4.728   1.446  0.2378  0.2190 -1.4177
 4267TIP3   OH234291   6.137   3.781  13.396 -0.2089  0.1139 -0.2756
 4267TIP3    H134292   6.135   3.876  13.398  2.5336  0.2249 -0.4757
 4267TIP3    H234293   6.122   3.758  13.304 -0.8614  0.3494 -0.2273
 4268TIP3   OH234294   5.008   1.718   4.207  0.3362  0.2272  0.5546
 4268TIP3    H134295   4.917   1.725   4.178 -0.1015  0.9637  2.0686
 4268TIP3    H234296   5.002   1.690   4.298  1.6983 -2.0715 -0.0348
 4269TIP3   OH234297   0.705   5.896   5.150  0.1339  0.2549  0.1740
 4269TIP3    H134298   0.644   5.871   5.219  1.1181 -0.5398  0.7635
 4269TIP3    H234299   0.703   5.823   5.089  0.8544  0.0157  0.4374
 4270TIP3   OH234300   3.189   0.367   6.984 -0.1311 -0.1384  0.3759
 4270TIP3    H134301   3.123   0.299   6.995 -0.8377  0.6539  1.0697
 4270TIP3    H234302   3.208   0.366   6.890  0.3018 -1.6887  0.4724
 4271TIP3   OH234303   3.513   1.027   5.554 -0.8077 -0.2803  0.3140
 4271TIP3    H134304   3.421   1.027   5.526 -0.3487 -1.4357 -1.2323
 4271TIP3    H234305   3.509   1.000   5.646 -1.9692 -0.7482  0.1412
 4272TIP3   OH234306   4.769   3.083   1.611  0.0079 -0.3952 -0.3548
 4272TIP3    H134307   4.791   3.158   1.666 -0.6769  0.0541 -0.6889
 4272TIP3    H234308   4.709   3.031   1.664 -0.3413 -0.1643 -0.5183
 4273TIP3   OH234309   3.104   6.312  15.243  0.3993 -0.1066  0.7111
 4273TIP3    H134310   3.134   6.257  15.170 -0.3057  1.0907 -0.4960
 4273TIP3    H234311   3.160   6.390  15.238 -1.2024  1.0077  0.0064
 4274TIP3   OH234312   0.489   0.708  16.629 -0.4622 -0.1944 -0.1364
 4274TIP3    H134313   0.579   0.721  16.597 -1.1386 -0.2096 -2.0904
 4274TIP3    H234314   0.490   0.745  16.718  1.2185  0.7030 -0.5017
 4275TIP3   OH234315   2.826   1.839   0.024 -0.2202 -0.0487  0.2833
 4275TIP3    H134316   2.749   1.863  -0.028  0.5669  2.0243  0.0497
 4275TIP3    H234317   2.885   1.797  -0.039 -0.0556  0.7535 -0.1000
 4276TIP3   OH234318   2.211   5.538  11.098  0.1429 -0.0963  0.1220
 4276TIP3    H134319   2.293   5.588  11.097 -0.9643  1.7586 -1.7579
 4276TIP3    H234320   2.235   5.455  11.056  0.8143  0.9486 -1.6689
 4277TIP3   OH234321   4.148   3.682  13.111 -0.1967  0.0695 -0.2178
 4277TIP3    H134322   4.206   3.734  13.056  0.1941 -1.1108 -0.9420
 4277TIP3    H234323   4.073   3.661  13.054  0.3409 -1.3936 -0.4083
 4278TIP3   OH234324   5.947   4.303  15.989 -0.2787  0.5705 -0.0634
 4278TIP3    H134325   5.875   4.362  16.011 -0.6420  0.5866 -1.2517
 4278TIP3    H234326   6.019   4.331  16.044 -0.2875  2.5023 -1.0044
 4279TIP3   OH234327   4.021   3.502  14.315 -0.4513  0.6408 -0.4548
 4279TIP3    H134328   4.085   3.572  14.323  1.1251 -0.5919 -1.8745
 4279TIP3    H234329   4.053   3.447  14.244 -1.4753 -1.6961  0.8007
 4280TIP3   OH234330   0.433   4.274   4.542  0.4866 -0.2396 -0.6468
 4280TIP3    H134331   0.355   4.298   4.492  1.1422  0.0173 -1.5529
 4280TIP3    H234332   0.422   4.180   4.558 -0.3128 -0.0836 -0.2150
 4281TIP3   OH234333   3.351   4.868  13.872 -0.3504  0.2177  0.1487
 4281TIP3    H134334   3.408   4.941  13.894  2.3235 -1.5806 -0.5589
 4281TIP3    H234335   3.304   4.896  13.794  0.4140  1.2792  0.0600
 4282TIP3   OH234336   5.279   0.662   1.366  0.6314  0.2337  0.6708
 4282TIP3    H134337   5.199   0.657   1.313 -0.3183  3.7799  1.6981
 4282TIP3    H234338   5.260   0.608   1.443  0.0572 -0.6775 -0.0903
 4283TIP3   OH234339   5.215   0.681  14.590  0.1026  0.7826 -0.1933
 4283TIP3    H134340   5.133   0.648  14.626  1.0847  1.2534  2.6086
 4283TIP3    H234341   5.228   0.630  14.510 -1.5060 -1.2531  0.7855
 4284TIP3   OH234342   0.484   0.584   5.066 -0.1703  0.2530 -0.5277
 4284TIP3    H134343   0.540   0.560   5.140 -2.3313  0.7420  1.3543
 4284TIP3    H234344   0.475   0.504   5.015 -1.1864 -0.9777  1.5148
 4285TIP3   OH234345   5.129   5.004   6.039 -0.1720 -0.3847 -0.2627
 4285TIP3    H134346   5.172   5.075   6.086 -0.7629 -0.8785  1.0298
 4285TIP3    H234347   5.036   5.024   6.045 -0.2881 -0.7796 -0.7090
 4286TIP3   OH234348   1.810   4.385   1.768  0.5401  0.3062 -0.1727
 4286TIP3    H134349   1.806   4.315   1.833 -1.6138  0.4373 -0.1385
 4286TIP3    H234350   1.880   4.443   1.800  1.0978 -0.8553  0.7527
 4287TIP3   OH234351   0.775   1.409  12.862 -0.4356 -0.2809 -0.1832
 4287TIP3    H134352   0.738   1.466  12.794 -1.8188  0.7495  1.3998
 4287TIP3    H234353   0.792   1.468  12.936 -1.6314 -1.8765  1.3998
 4288TIP3   OH234354   2.216   2.047  15.623  0.0349  0.4221 -0.3721
 4288TIP3    H134355   2.296   2.002  15.649 -0.7934 -2.1902 -2.1668
 4288TIP3    H234356   2.246   2.114  15.561  0.8770 -0.1148 -0.5582
 4289TIP3   OH234357   6.743   5.249   1.236  0.1960  0.1725  0.3942
 4289TIP3    H134358   6.726   5.183   1.169  3.3218  0.3578 -0.7102
 4289TIP3    H234359   6.789   5.202   1.306 -0.7315  0.4954  1.2363
 4290TIP3   OH234360   1.115   5.577  11.772  0.4498 -0.2120  0.0042
 4290TIP3    H134361   1.043   5.635  11.798  0.2582 -1.0878  1.4827
 4290TIP3    H234362   1.124   5.591  11.678 -1.0968  0.5220 -0.0541
 4291TIP3   OH234363   5.412   2.643  14.984 -0.3586  0.2518 -0.6121
 4291TIP3    H134364   5.417   2.558  15.029 -0.5677  0.0637 -0.9493
 4291TIP3    H234365   5.336   2.636  14.927 -1.0202  1.0514  0.1525
 4292TIP3   OH234366   3.055   0.550   4.983 -0.3255  0.0164  0.2409
 4292TIP3    H134367   3.084   0.467   5.021  0.7690  0.3895  0.2303
 4292TIP3    H234368   2.962   0.537   4.964 -0.0190 -1.4031 -0.2924
 4293TIP3   OH234369   3.992   0.124   0.993  0.0694 -0.5390 -0.0071
 4293TIP3    H134370   4.015   0.217   0.999  0.2935 -0.6015  0.1229
 4293TIP3    H234371   4.060   0.080   1.044  1.1047 -0.9339 -1.6859
 4294TIP3   OH234372   4.218   5.461  11.648  0.3459  0.4937  0.4107
 4294TIP3    H134373   4.166   5.403  11.703 -0.2402 -1.1975 -1.8873
 4294TIP3    H234374   4.178   5.456  11.561  3.2934  0.4485 -1.0096
 4295TIP3   OH234375   3.583   4.995  14.247  0.0865  0.1104  0.1634
 4295TIP3    H134376   3.577   5.045  14.328  0.4247  0.3595  0.0361
 4295TIP3    H234377   3.636   5.050  14.188  0.5585 -0.4455  0.0640
 4296TIP3   OH234378   6.173   3.982  13.894 -0.1303 -0.4918 -0.0200
 4296TIP3    H134379   6.264   3.965  13.919  0.2651 -0.6172 -1.5415
 4296TIP3    H234380   6.178   4.017  13.805 -1.5933 -0.7961 -0.2366
 4297TIP3   OH234381   4.650   6.245  11.684 -0.9425  0.0245  0.1569
 4297TIP3    H134382   4.680   6.195  11.759 -1.8813  0.6695  0.9719
 4297TIP3    H234383   4.649   6.336  11.714  0.7494  0.5667 -1.3074
 4298TIP3   OH234384   2.515   3.940   0.203  0.2494 -0.6509  0.0978
 4298TIP3    H134385   2.515   3.949   0.299  2.1470 -0.3041  0.0946
 4298TIP3    H234386   2.477   3.854   0.187 -1.0646 -0.2688  1.1115
 4299TIP3   OH234387   4.984   4.657  13.040 -0.5256 -0.2647  0.1809
 4299TIP3    H134388   5.002   4.621  12.953 -0.8686  1.5640 -0.6782
 4299TIP3    H234389   5.052   4.724  13.053 -0.4416 -0.5585  1.3567
 4300TIP3   OH234390   4.196   5.958  15.020  0.3788  0.5590 -0.2957
 4300TIP3    H134391   4.272   5.902  14.999  1.3438  1.3298  1.0573
 4300TIP3    H234392   4.233   6.045  15.031 -0.2818  0.5203  2.8939
 4301TIP3   OH234393   6.790   3.583  12.321  0.5418 -0.1339 -0.5958
 4301TIP3    H134394   6.815   3.632  12.398  0.6162  0.4320 -0.9777
 4301TIP3    H234395   6.853   3.511  12.317  0.9941  0.2614 -0.5479
 4302TIP3   OH234396   2.057   2.206   4.916  0.5155 -0.2622 -0.3726
 4302TIP3    H134397   2.081   2.170   4.831 -0.9954 -0.3356 -0.7760
 4302TIP3    H234398   2.140   2.209   4.965  1.0306 -2.2146 -1.0904
 4303TIP3   OH234399   4.363   3.040   4.487 -0.6630 -0.1143 -0.0514
 4303TIP3    H134400   4.306   3.087   4.548 -1.6641 -0.9918 -0.3042
 4303TIP3    H234401   4.345   2.948   4.504 -0.7795 -0.3693 -1.5192
 4304TIP3   OH234402   0.143   3.841   2.239  0.2125  0.0108  0.4110
 4304TIP3    H134403   0.160   3.914   2.298 -0.8473  1.2429 -0.7659
 4304TIP3    H234404   0.230   3.813   2.210  0.6217  0.9573  0.7069
 4305TIP3   OH234405   6.610   4.030   2.785 -0.1607  0.3496  0.5386
 4305TIP3    H134406   6.683   3.993   2.735  0.3065  0.2773  1.2771
 4305TIP3    H234407   6.642   4.114   2.816  0.7758 -1.0754  3.5794
 4306TIP3   OH234408   4.488   1.195  12.299 -0.2580  0.2465 -0.1008
 4306TIP3    H134409   4.475   1.206  12.205  0.7529 -0.9561 -0.4004
 4306TIP3    H234410   4.478   1.101  12.314  0.1062  0.3538  0.9088
 4307TIP3   OH234411   5.760   2.122  12.665  0.3377 -0.7286  0.0065
 4307TIP3    H134412   5.760   2.111  12.570  1.2786  0.8554 -0.1887
 4307TIP3    H234413   5.853   2.118  12.689  0.3752  2.2368  0.4416
 4308TIP3   OH234414   6.266   1.261   2.008 -0.8608  0.6090 -0.4878
 4308TIP3    H134415   6.243   1.177   2.050 -2.0612  0.4982 -1.3215
 4308TIP3    H234416   6.184   1.310   2.008 -0.2203  1.6891 -0.2469
 4309TIP3   OH234417   0.180   2.968  12.582  0.1455 -0.2588  0.3089
 4309TIP3    H134418   0.210   3.003  12.666 -0.5310  0.1215  0.3971
 4309TIP3    H234419   0.217   3.028  12.517 -2.9127  2.0685  0.5700
 4310TIP3   OH234420   5.716   0.671   1.155 -0.2828  0.1474 -0.1650
 4310TIP3    H134421   5.767   0.590   1.153  0.7373  0.7664 -0.0491
 4310TIP3    H234422   5.691   0.681   1.247  1.3671  1.0156  0.2183
 4311TIP3   OH234423   1.133   4.984  15.271 -0.1024  0.0970 -0.1702
 4311TIP3    H134424   1.201   4.943  15.324 -0.9544 -1.2079 -0.0869
 4311TIP3    H234425   1.094   5.050  15.329  3.3547  3.3499 -1.2711
 4312TIP3   OH234426   1.972   5.408   2.585  0.1912 -0.3442 -0.1797
 4312TIP3    H134427   1.951   5.323   2.622 -0.1722  0.4150  1.4422
 4312TIP3    H234428   1.955   5.400   2.491 -3.1018 -1.0776  0.4320
 4313TIP3   OH234429   6.637   2.434   2.150 -0.5078  0.2799 -0.3196
 4313TIP3    H134430   6.557   2.476   2.184 -1.7981  0.1186 -3.0319
 4313TIP3    H234431   6.628   2.342   2.176 -1.6664  0.0817 -1.3780
 4314TIP3   OH234432   1.451   5.829  15.852 -0.0583  0.2080 -0.1806
 4314TIP3    H134433   1.512   5.891  15.892 -0.7102  0.9334 -0.2862
 4314TIP3    H234434   1.505   5.754  15.827  0.6315  0.4569  0.5448
 4315TIP3   OH234435   3.284   3.545   4.914 -0.0809 -0.2184  0.4646
 4315TIP3    H134436   3.280   3.627   4.865  0.6907 -0.5829 -0.2148
 4315TIP3    H234437   3.224   3.558   4.988  0.4733  1.1775  0.6834
 4316TIP3   OH234438   5.293   5.685  14.426 -0.3334 -0.4549 -0.2698
 4316TIP3    H134439   5.221   5.637  14.465  0.3984 -0.1192  1.5653
 4316TIP3    H234440   5.340   5.621  14.373 -2.9715 -0.2632 -2.9520
 4317TIP3   OH234441   2.127   6.303  12.333 -0.1168 -0.2219  0.2008
 4317TIP3    H134442   2.117   6.239  12.403  0.4299  0.5645  1.0091
 4317TIP3    H234443   2.170   6.256  12.262 -1.3178 -1.2184  0.1074
 4318TIP3   OH234444   1.886   3.480  10.880  0.0416  0.0841  0.5099
 4318TIP3    H134445   1.880   3.521  10.794  0.9398  1.5519  1.1317
 4318TIP3    H234446   1.916   3.550  10.938  0.1529 -1.0792  1.8763
 4319TIP3   OH234447   1.890   5.918   2.769 -0.2987 -0.2567 -0.4232
 4319TIP3    H134448   1.985   5.924   2.774 -0.3944  0.0171  1.6302
 4319TIP3    H234449   1.869   5.934   2.677  1.6034  0.1553 -0.7973
 4320TIP3   OH234450   4.338   0.283  12.345 -0.1238  0.1279  0.4140
 4320TIP3    H134451   4.315   0.191  12.358  0.3946 -0.2261 -1.0133
 4320TIP3    H234452   4.272   0.331  12.394 -1.0649 -0.9890  0.2816
 4321TIP3   OH234453   4.651   0.340   6.410 -0.7028 -0.2306 -0.4523
 4321TIP3    H134454   4.587   0.293   6.358 -1.7683 -0.4014  0.9940
 4321TIP3    H234455   4.701   0.272   6.454 -0.8048 -0.0501 -0.0601
 4322TIP3   OH234456   4.279   6.734  13.737  0.2766  0.4260 -0.2498
 4322TIP3    H134457   4.355   6.721  13.793 -0.6946  0.7355  1.1770
 4322TIP3    H234458   4.270   6.829  13.732  1.8029  0.4556 -2.9511
 4323TIP3   OH234459   5.547   3.423  16.622 -0.0025 -0.3184 -0.0396
 4323TIP3    H134460   5.564   3.425  16.716  0.4053  0.3840 -0.1298
 4323TIP3    H234461   5.494   3.501  16.605  0.6234  0.0027 -0.5290
 4324TIP3   OH234462   0.453   0.464  11.146  0.3471 -0.2488 -0.8517
 4324TIP3    H134463   0.368   0.473  11.190 -0.5486 -0.6609 -2.4496
 4324TIP3    H234464   0.505   0.409  11.205 -0.4812  0.0297  0.1500
 4325TIP3   OH234465   3.473   6.705  14.297  0.0167  0.0397  0.2040
 4325TIP3    H134466   3.568   6.705  14.293  0.1012 -2.5181  1.4999
 4325TIP3    H234467   3.451   6.783  14.348  1.4355  0.2601  0.4975
 4326TIP3   OH234468   1.641   3.310   3.055 -0.2896  0.3112 -0.2452
 4326TIP3    H134469   1.668   3.221   3.079  1.4302  0.1219 -2.6585
 4326TIP3    H234470   1.601   3.345   3.134  0.7367 -1.9489  1.3331
 4327TIP3   OH234471   2.252   1.921   3.111 -0.1317  0.5179 -0.5527
 4327TIP3    H134472   2.346   1.928   3.127 -0.1657  0.4513 -0.3354
 4327TIP3    H234473   2.211   1.955   3.190 -0.2929  0.2664 -0.5285
 4328TIP3   OH234474   4.665   3.674  12.921 -0.0763  0.3707 -0.7812
 4328TIP3    H134475   4.720   3.750  12.941  0.7144 -0.5718  0.6900
 4328TIP3    H234476   4.609   3.664  12.998 -0.5199 -0.2462 -1.1832
 4329TIP3   OH234477   2.915   3.608  13.684 -0.0835 -0.0430 -0.2590
 4329TIP3    H134478   2.841   3.642  13.633  0.5379  2.8876  0.7067
 4329TIP3    H234479   2.954   3.541  13.627 -1.4858  0.7029 -2.1635
 4330TIP3   OH234480   3.303   0.499   4.854  0.4726  0.3189  0.6035
 4330TIP3    H134481   3.214   0.519   4.883  0.1961  1.3202 -0.8741
 4330TIP3    H234482   3.353   0.577   4.879  0.7383  0.1540  0.5783
 4331TIP3   OH234483   5.737   4.733  11.884  0.2720  0.0598  0.5550
 4331TIP3    H134484   5.649   4.698  11.877 -0.0537  0.7176  1.3142
 4331TIP3    H234485   5.766   4.745  11.793 -0.9047  1.0703  0.3104
 4332TIP3   OH234486   2.043   0.335  12.903 -0.1356  0.4357  0.6649
 4332TIP3    H134487   2.037   0.283  12.823 -1.4797  0.0232  1.0166
 4332TIP3    H234488   1.960   0.318  12.948  0.6569  0.5684  2.1894
 4333TIP3   OH234489   6.125   4.659   6.474 -0.2386 -0.0402  0.0016
 4333TIP3    H134490   6.085   4.585   6.428 -0.5465 -0.4835  0.9818
 4333TIP3    H234491   6.105   4.645   6.566 -0.6854  1.5120  0.1580
 4334TIP3   OH234492   1.684   1.625   2.323  0.0534 -0.3790 -0.0330
 4334TIP3    H134493   1.727   1.706   2.295 -1.5005  0.2772 -0.6170
 4334TIP3    H234494   1.639   1.649   2.404  0.8126 -1.0588  0.5894
 4335TIP3   OH234495   1.638   2.331   1.384  0.1884  0.4085 -0.0387
 4335TIP3    H134496   1.583   2.314   1.307 -0.1759  0.2177  0.2586
 4335TIP3    H234497   1.620   2.422   1.407  2.4220  1.3569 -1.8570
 4336TIP3   OH234498   2.368   5.063   3.128  0.1084  0.3399  0.0614
 4336TIP3    H134499   2.440   5.052   3.066  0.2288 -0.8737  0.4047
 4336TIP3    H234500   2.289   5.068   3.073  0.3535  0.7330 -0.2591
 4337TIP3   OH234501   5.283   2.010  11.444  0.0346  0.4281 -0.6129
 4337TIP3    H134502   5.197   2.029  11.408 -0.2954 -0.6946 -0.4208
 4337TIP3    H234503   5.286   1.915  11.452  0.6596  0.5562  0.9201
 4338TIP3   OH234504   4.696   3.259   2.583 -0.3945  0.1727  0.0673
 4338TIP3    H134505   4.783   3.275   2.547 -0.6870  2.4615  0.3413
 4338TIP3    H234506   4.650   3.213   2.512  0.4840  0.4689 -0.7176
 4339TIP3   OH234507   4.977   1.490   0.419 -0.2197 -0.1432 -0.7923
 4339TIP3    H134508   4.907   1.555   0.412 -0.2765 -0.1142  0.0032
 4339TIP3    H234509   5.009   1.499   0.509 -0.6698 -1.6608 -0.4747
 4340TIP3   OH234510   1.699   0.258   4.816  0.4355  0.4803  0.1636
 4340TIP3    H134511   1.776   0.307   4.845 -0.7525  1.5353  1.6266
 4340TIP3    H234512   1.633   0.325   4.799 -0.4683 -0.4731 -0.1439
 4341TIP3   OH234513   4.736   4.572  13.261  0.8655  0.5089 -0.3045
 4341TIP3    H134514   4.722   4.635  13.191  3.3646  0.3842 -0.9718
 4341TIP3    H234515   4.828   4.583  13.285  1.7082 -3.6443 -1.2195
 4342TIP3   OH234516   0.785   0.277  12.397  0.3904  0.0349 -0.3217
 4342TIP3    H134517   0.719   0.264  12.465  1.5768  0.2792  0.9144
 4342TIP3    H234518   0.845   0.341  12.435  0.2810  1.2777 -2.1889
 4343TIP3   OH234519   6.580   6.170  17.242  0.3312 -0.6847  0.2640
 4343TIP3    H134520   6.543   6.133  17.161  1.3229 -0.2969 -0.3806
 4343TIP3    H234521   6.663   6.126  17.253  1.7789  1.6561 -0.8038
 4344TIP3   OH234522   0.301   3.463  16.499  0.5084 -0.0403  0.1770
 4344TIP3    H134523   0.288   3.555  16.521  1.6105  0.4660 -1.2458
 4344TIP3    H234524   0.287   3.459  16.405 -0.8255 -1.5782  0.4179
 4345TIP3   OH234525   4.230   3.266  13.059  0.2392  0.3022 -0.4300
 4345TIP3    H134526   4.211   3.330  12.990  0.0894  0.3055 -0.3849
 4345TIP3    H234527   4.150   3.214  13.066  0.8331 -0.7923 -1.4365
 4346TIP3   OH234528   3.500   4.267   0.252 -0.2106  0.6799 -0.2241
 4346TIP3    H134529   3.430   4.313   0.297  0.6384  0.7072  1.1041
 4346TIP3    H234530   3.483   4.281   0.159 -1.7247  1.0199  0.1021
 4347TIP3   OH234531   3.553   4.027  13.521  0.0330 -0.5488  0.2469
 4347TIP3    H134532   3.573   3.935  13.506 -1.7367 -0.5897 -2.1584
 4347TIP3    H234533   3.535   4.033  13.615  0.3005 -2.6149  0.4410
 4348TIP3   OH234534   5.031   2.644   2.736 -0.0331  0.2517  0.0792
 4348TIP3    H134535   5.100   2.617   2.797  0.4874 -0.7067 -0.9094
 4348TIP3    H234536   4.956   2.590   2.760  0.0220  0.2348  0.2131
 4349TIP3   OH234537   3.215   1.112   1.923 -0.5569 -0.1077 -0.7431
 4349TIP3    H134538   3.240   1.099   1.831 -0.9327 -0.7031 -0.7648
 4349TIP3    H234539   3.277   1.057   1.972 -0.0110  0.6300 -0.6025
 4350TIP3   OH234540   3.104   3.542  16.230 -0.1238 -0.2246  0.1228
 4350TIP3    H134541   3.184   3.496  16.205 -0.6909 -1.3936  0.3822
 4350TIP3    H234542   3.098   3.530  16.325 -1.3108 -1.3574 -0.0715
 4351TIP3   OH234543   4.663   2.053  15.126 -0.1618 -0.1025 -0.1109
 4351TIP3    H134544   4.758   2.041  15.125 -0.1367 -0.1272  1.7475
 4351TIP3    H234545   4.628   1.968  15.098  0.3264 -0.6378  0.8826
 4352TIP3   OH234546   5.429   4.967   2.399  0.1073  0.6282 -0.2522
 4352TIP3    H134547   5.372   4.890   2.409  0.9937 -0.0152 -0.0188
 4352TIP3    H234548   5.443   4.998   2.488  0.9419  0.1638 -0.2127
 4353TIP3   OH234549   1.572   2.584  16.993  0.4579  0.3334  0.4074
 4353TIP3    H134550   1.535   2.508  16.947 -3.7024  1.4965  1.5859
 4353TIP3    H234551   1.535   2.577  17.082  2.7685  1.9038  1.5138
 4354TIP3   OH234552   5.306   6.451   0.034  0.2171  0.9014  0.3745
 4354TIP3    H134553   5.384   6.484  -0.011  0.5207  0.8278  0.8355
 4354TIP3    H234554   5.339   6.382   0.091 -0.3235  0.2571 -0.0927
 4355TIP3   OH234555   0.570   5.457   4.574 -0.7469  0.6973  0.0191
 4355TIP3    H134556   0.595   5.375   4.616 -1.2994  0.6640  0.2919
 4355TIP3    H234557   0.537   5.431   4.488  0.0669  0.7348 -0.3122
 4356TIP3   OH234558   6.505   1.863   0.100 -0.3895 -0.3592 -0.6457
 4356TIP3    H134559   6.521   1.920   0.175 -0.8631  2.2545 -2.4570
 4356TIP3    H234560   6.434   1.805   0.127 -0.2435  0.2445  1.0473
 4357TIP3   OH234561   4.321   1.198  13.075  0.2048 -0.0501  0.4044
 4357TIP3    H134562   4.376   1.253  13.020 -1.2195 -1.5861 -2.6681
 4357TIP3    H234563   4.259   1.259  13.115  1.5796  1.1466  0.7861
 4358TIP3   OH234564   2.746   3.041  15.079 -0.1757 -0.0878 -0.1239
 4358TIP3    H134565   2.782   3.053  15.167 -0.2188 -0.5083 -0.0458
 4358TIP3    H234566   2.710   3.126  15.055 -0.0486  0.0608  0.2149
 4359TIP3   OH234567   5.614   3.623  11.890 -0.2235 -0.2783  0.0641
 4359TIP3    H134568   5.669   3.700  11.903  0.7829 -0.9521 -0.1477
 4359TIP3    H234569   5.525   3.657  11.889  0.1110  0.6647  1.6868
 4360TIP3   OH234570   0.866   0.509  12.117 -0.4343  0.2848 -0.0961
 4360TIP3    H134571   0.801   0.471  12.176  0.0652 -0.1967  0.1488
 4360TIP3    H234572   0.877   0.599  12.147 -0.7189  0.2550  0.0940
 4361TIP3   OH234573   5.381   5.931  13.886 -0.1933 -0.4769 -0.1622
 4361TIP3    H134574   5.343   6.007  13.842 -0.6701 -0.7781 -0.2753
 4361TIP3    H234575   5.379   5.955  13.979 -0.6913 -0.5075 -0.1659
 4362TIP3   OH234576   2.371   3.206   2.331 -0.0886 -0.6128 -0.7289
 4362TIP3    H134577   2.370   3.301   2.344 -0.8618 -0.4777 -1.7303
 4362TIP3    H234578   2.411   3.171   2.411 -0.9072  0.4753  0.1668
 4363TIP3   OH234579   0.950   5.474   0.345 -0.4939 -0.4065 -0.0551
 4363TIP3    H134580   0.935   5.420   0.422  0.6432 -0.7463 -0.0654
 4363TIP3    H234581   0.958   5.563   0.379 -1.4318 -0.3595  0.0594
 4364TIP3   OH234582   5.883   0.332   3.568 -0.5321  0.0108 -0.7741
 4364TIP3    H134583   5.974   0.314   3.545 -0.1239  2.4722 -1.1607
 4364TIP3    H234584   5.881   0.324   3.663  0.7789  2.8025 -0.4671
 4365TIP3   OH234585   6.016   1.869  13.985  0.0470  0.5420  0.0556
 4365TIP3    H134586   6.038   1.936  14.050 -0.1103 -0.4696  1.1881
 4365TIP3    H234587   6.085   1.803  13.995 -0.3663  0.0485 -0.3293
 4366TIP3   OH234588   3.832   1.396   5.873 -0.3379 -0.0336 -1.2602
 4366TIP3    H134589   3.838   1.321   5.813  1.2821 -0.8528 -0.1069
 4366TIP3    H234590   3.761   1.372   5.933  0.3648 -0.7620 -0.7236
 4367TIP3   OH234591   5.428   2.241  10.998  0.3025  0.1292 -0.5441
 4367TIP3    H134592   5.492   2.273  11.061 -0.0295 -0.2604  0.0036
 4367TIP3    H234593   5.343   2.261  11.037  0.0854  0.5424 -1.2116
 4368TIP3   OH234594   3.348   5.166   4.184  0.4111  0.0966 -0.7159
 4368TIP3    H134595   3.266   5.120   4.203  0.9456 -0.4263  0.3299
 4368TIP3    H234596   3.415   5.115   4.229  1.3784  0.2526 -1.9695
 4369TIP3   OH234597   4.255   1.917  12.531 -0.3338  0.1393 -0.1444
 4369TIP3    H134598   4.280   2.004  12.499 -0.9242  1.1682  2.0731
 4369TIP3    H234599   4.236   1.866  12.452  0.7091  1.8051 -1.5038
 4370TIP3   OH234600   5.713   3.244   0.737  0.3491 -0.4373  0.4989
 4370TIP3    H134601   5.645   3.277   0.678 -0.1566 -1.2393  0.6239
 4370TIP3    H234602   5.770   3.319   0.753 -0.6253  0.2981  0.5574
 4371TIP3   OH234603   0.995   1.286   0.189 -0.1175 -0.0526 -0.0869
 4371TIP3    H134604   0.975   1.208   0.240 -0.3566  0.3361  0.4174
 4371TIP3    H234605   0.910   1.328   0.174  0.0948  0.5488  0.3600
 4372TIP3   OH234606   3.133   1.832   2.558 -0.2975  0.0133  0.0599
 4372TIP3    H134607   3.151   1.760   2.620  1.2144  1.1547  0.9825
 4372TIP3    H234608   3.134   1.911   2.612  1.8784  1.1268 -1.5162
 4373TIP3   OH234609   3.058   2.213   0.606  0.7367 -0.0117 -0.2956
 4373TIP3    H134610   3.055   2.118   0.597 -1.4297 -0.0089  0.1120
 4373TIP3    H234611   3.037   2.229   0.698 -0.8908  0.9273 -0.8126
 4374TIP3   OH234612   1.795   2.963   5.238 -0.7990 -0.4517  0.1917
 4374TIP3    H134613   1.838   2.943   5.321  0.8257 -0.1621 -0.5666
 4374TIP3    H234614   1.827   3.050   5.215 -0.6520 -0.8475 -1.1148
 4375TIP3   OH234615   5.278   1.757  11.033  0.3029  0.3904  0.6042
 4375TIP3    H134616   5.346   1.706  10.990 -0.6148 -0.8192  0.5464
 4375TIP3    H234617   5.312   1.846  11.036  1.0002  0.1950 -1.2628
 4376TIP3   OH234618   0.425   2.548   3.318  0.1432 -0.4959 -0.0166
 4376TIP3    H134619   0.377   2.584   3.392  0.6090  2.3579 -1.0517
 4376TIP3    H234620   0.358   2.524   3.255 -0.0635  1.4459 -0.5629
 4377TIP3   OH234621   4.728   1.549  15.894 -0.0759 -0.2107  0.3809
 4377TIP3    H134622   4.679   1.586  15.968  1.3905  0.8291  0.8416
 4377TIP3    H234623   4.720   1.454  15.905  0.6285 -0.0669  2.2137
 4378TIP3   OH234624   4.186   4.455   2.385  0.2141 -0.4844 -0.4556
 4378TIP3    H134625   4.240   4.382   2.356 -0.3979 -1.0271 -0.2339
 4378TIP3    H234626   4.224   4.532   2.342  2.4324 -0.5491  1.2687
 4379TIP3   OH234627   1.374   0.955   0.969  0.2493  0.6153 -0.2375
 4379TIP3    H134628   1.420   0.925   1.048  0.2834  1.3128  0.0166
 4379TIP3    H234629   1.428   0.924   0.896 -1.5141 -2.9167 -0.1182
 4380TIP3   OH234630   5.317   5.270   2.049 -0.0379 -0.2169 -0.1435
 4380TIP3    H134631   5.313   5.362   2.022 -0.6437  0.1209  1.0281
 4380TIP3    H234632   5.303   5.220   1.969  0.0461  0.7202 -0.7479
 4381TIP3   OH234633   0.609   3.727   2.051  0.1472 -0.2725 -0.5841
 4381TIP3    H134634   0.527   3.776   2.058  0.9058  1.2125 -1.8697
 4381TIP3    H234635   0.597   3.652   2.110 -1.8893  0.2463 -0.2973
 4382TIP3   OH234636   2.976   5.769   5.202  0.1670  0.4185 -0.0813
 4382TIP3    H134637   2.986   5.827   5.277 -0.6998 -1.3729  1.4783
 4382TIP3    H234638   2.971   5.681   5.241  0.0636 -0.5706 -2.2647
 4383TIP3   OH234639   3.872   4.919  14.456 -0.2891  0.5490 -0.4592
 4383TIP3    H134640   3.879   4.992  14.394 -2.7978  1.4768  0.2810
 4383TIP3    H234641   3.827   4.957  14.532  1.1465 -1.0159  1.2300
 4384TIP3   OH234642   1.630   4.533   6.404  0.8627  0.3757  0.1486
 4384TIP3    H134643   1.581   4.454   6.427  1.7927  0.6335  3.3214
 4384TIP3    H234644   1.564   4.597   6.379 -0.0112 -0.8629 -0.7475
 4385TIP3   OH234645   2.760   5.574  15.038 -0.2500  0.0935 -0.0715
 4385TIP3    H134646   2.714   5.532  14.966 -0.2989 -1.3188  0.7615
 4385TIP3    H234647   2.757   5.510  15.109 -0.0314  1.3832  1.1190
 4386TIP3   OH234648   0.838   2.502  14.322  0.2348 -0.1701 -0.1401
 4386TIP3    H134649   0.917   2.525  14.271  1.6620  0.3204  2.2250
 4386TIP3    H234650   0.795   2.586  14.337  1.0744 -0.0043  1.4426
 4387TIP3   OH234651   2.315   5.595  13.304  0.2638  0.0072  0.2179
 4387TIP3    H134652   2.338   5.507  13.332  0.2893 -0.1345 -0.2382
 4387TIP3    H234653   2.291   5.641  13.384 -0.7686 -0.7169  0.3305
 4388TIP3   OH234654   4.126   1.307  13.644 -0.2201  0.0899 -0.0438
 4388TIP3    H134655   4.204   1.360  13.661 -0.0708 -0.5325  1.2855
 4388TIP3    H234656   4.054   1.357  13.683 -0.0488 -0.7709  1.4072
 4389TIP3   OH234657   1.616   1.028  11.838  0.0682 -0.5644 -0.0494
 4389TIP3    H134658   1.592   0.963  11.772  1.0361 -0.4948 -0.4925
 4389TIP3    H234659   1.667   0.979  11.903  1.8440 -0.0521 -1.0102
 4390TIP3   OH234660   2.677   2.292  16.720 -0.6810 -0.4916 -0.0668
 4390TIP3    H134661   2.719   2.359  16.666 -0.1030 -0.9130 -0.1433
 4390TIP3    H234662   2.722   2.298  16.804 -1.3296 -0.0895  0.2575
 4391TIP3   OH234663   2.691   5.631  13.859 -0.4530 -0.0988 -0.1881
 4391TIP3    H134664   2.698   5.571  13.785 -1.6006  0.8642 -1.0797
 4391TIP3    H234665   2.727   5.713  13.827 -0.9898  0.3328  0.3173
 4392TIP3   OH234666   3.123   6.106  14.468  0.3734 -0.0819 -0.3133
 4392TIP3    H134667   3.133   6.197  14.497 -0.7177 -0.6138  1.8907
 4392TIP3    H234668   3.099   6.113  14.376  2.6399  1.7685 -0.8155
 4393TIP3   OH234669   3.767   1.312   6.653  0.2685  0.1755 -1.2714
 4393TIP3    H134670   3.806   1.372   6.590  2.2675 -0.1259 -0.3392
 4393TIP3    H234671   3.704   1.365   6.701  2.8807  1.8849  0.3768
 4394TIP3   OH234672   3.744   4.130  11.628 -0.6013 -0.5525  0.1042
 4394TIP3    H134673   3.651   4.151  11.622 -1.5075 -2.9180  3.8466
 4394TIP3    H234674   3.783   4.207  11.668 -0.6487  1.0236 -2.7946
 4395TIP3   OH234675   5.321   5.819   1.144  0.1533 -0.1307  0.2880
 4395TIP3    H134676   5.277   5.859   1.068 -0.0977 -1.0442 -0.0567
 4395TIP3    H234677   5.283   5.731   1.149 -0.7362  0.3485  2.2370
 4396TIP3   OH234678   5.522   2.344   3.393 -0.1623  0.5063  0.7235
 4396TIP3    H134679   5.443   2.399   3.395  0.4755  1.4253  0.9074
 4396TIP3    H234680   5.516   2.291   3.473 -0.3737  0.8826  0.9596
 4397TIP3   OH234681   3.192   1.005  11.791  0.1989 -0.3504  0.4504
 4397TIP3    H134682   3.254   0.983  11.721 -1.3708 -2.4455 -0.3322
 4397TIP3    H234683   3.213   0.944  11.862  1.0901  1.0598  1.4185
 4398TIP3   OH234684   3.498   1.206   0.516  0.1802  0.6877  0.2817
 4398TIP3    H134685   3.415   1.157   0.515  0.5903 -0.0335  0.8042
 4398TIP3    H234686   3.481   1.283   0.462 -0.1129 -0.6409 -1.5818
 4399TIP3   OH234687   3.184   6.779  13.606  0.3987  0.1393  0.7509
 4399TIP3    H134688   3.109   6.759  13.662 -0.4738 -1.1453 -0.8425
 4399TIP3    H234689   3.158   6.857  13.557 -0.7714 -1.5370 -1.3479
 4400TIP3   OH234690   6.655   4.224  13.296 -0.4566  0.3732  0.0511
 4400TIP3    H134691   6.599   4.169  13.240 -0.1884  0.5934 -0.4361
 4400TIP3    H234692   6.685   4.165  13.365 -0.9487  0.1450  0.0750
 4401TIP3   OH234693   6.698   1.235   3.639  1.1227  0.0841  0.0380
 4401TIP3    H134694   6.783   1.216   3.680  2.2692  0.5860 -2.0264
 4401TIP3    H234695   6.715   1.310   3.582 -0.1385 -1.1964 -2.1202
 4402TIP3   OH234696   1.507   1.485  14.527 -0.4801 -0.1649 -0.2400
 4402TIP3    H134697   1.571   1.495  14.597 -0.7915  0.4390 -0.0399
 4402TIP3    H234698   1.470   1.573  14.515 -0.4632 -0.2671 -1.1252
 4403TIP3   OH234699   2.441   6.148  15.249 -0.3833 -0.5140 -0.8301
 4403TIP3    H134700   2.488   6.065  15.255  0.5483  0.0890  0.6525
 4403TIP3    H234701   2.416   6.168  15.340 -1.2292  0.4605 -1.2689
 4404TIP3   OH234702   3.147   2.001  14.554 -0.2283  0.5943  0.0923
 4404TIP3    H134703   3.167   2.027  14.644  2.3135 -0.6662 -0.0635
 4404TIP3    H234704   3.187   2.070  14.501  1.2993 -0.4485 -0.1438
 4405TIP3   OH234705   6.577   4.866   1.121  0.1163 -0.1659  0.5959
 4405TIP3    H134706   6.604   4.956   1.103  0.6306 -0.3002  0.7052
 4405TIP3    H234707   6.518   4.844   1.048  0.8495 -0.1131 -0.0135
 4406TIP3   OH234708   3.970   0.512   4.907  0.1497  0.2135 -0.2577
 4406TIP3    H134709   3.987   0.602   4.881  0.2452  0.0860 -0.6321
 4406TIP3    H234710   3.875   0.503   4.905  0.1387  0.3132 -0.1887
 4407TIP3   OH234711   4.351   4.230  14.834 -0.6656 -0.1773  0.0614
 4407TIP3    H134712   4.427   4.288  14.842  0.4566 -1.8447  2.2945
 4407TIP3    H234713   4.305   4.240  14.918 -1.7035 -0.8251 -0.4219
 4408TIP3   OH234714   1.796   0.609   3.210 -0.5438  0.5457  0.1752
 4408TIP3    H134715   1.833   0.697   3.203 -2.0832  1.3545  2.0159
 4408TIP3    H234716   1.702   0.620   3.196 -0.7611 -0.8033  0.4696
 4409TIP3   OH234717   0.320   2.222  15.042 -0.2278 -0.4299  0.1648
 4409TIP3    H134718   0.339   2.294  15.103 -1.5700 -1.1981  1.5335
 4409TIP3    H234719   0.308   2.265  14.957 -0.6605  0.9217  0.8884
 4410TIP3   OH234720   3.837   0.874   0.163  0.1749 -0.4864  0.0235
 4410TIP3    H134721   3.849   0.884   0.258  0.2205  1.9346 -0.2234
 4410TIP3    H234722   3.743   0.864   0.152  0.1882 -1.0049  0.3297
 4411TIP3   OH234723   3.908   4.817   3.225 -0.2070  0.0586 -0.4645
 4411TIP3    H134724   3.818   4.845   3.243 -0.4209  0.2478 -1.7358
 4411TIP3    H234725   3.899   4.734   3.179  0.2193  0.4173 -1.2266
 4412TIP3   OH234726   2.212   3.011  11.138  0.1148  0.1133  0.1040
 4412TIP3    H134727   2.187   2.999  11.229 -0.0967  1.5580  0.2433
 4412TIP3    H234728   2.136   2.982  11.088 -0.7495  1.7309  0.4554
 4413TIP3   OH234729   6.340   4.509   0.172 -0.0484 -0.4841  0.0753
 4413TIP3    H134730   6.287   4.588   0.160 -0.5123 -0.7543  0.3091
 4413TIP3    H234731   6.424   4.530   0.133 -0.3426 -0.0608 -0.3333
 4414TIP3   OH234732   4.559   5.772   2.786  0.0315  0.2238  0.4788
 4414TIP3    H134733   4.528   5.826   2.858  2.4016 -0.1543  1.8274
 4414TIP3    H234734   4.641   5.813   2.759  1.2097 -1.9141  0.6734
 4415TIP3   OH234735   3.703   1.762  11.201  0.2021 -0.0748  0.4506
 4415TIP3    H134736   3.719   1.681  11.152  0.6496  0.7902 -0.8473
 4415TIP3    H234737   3.608   1.776  11.192  0.3221  0.2149 -0.3825
 4416TIP3   OH234738   2.522   1.233   2.691  0.5380 -0.2051  0.3764
 4416TIP3    H134739   2.605   1.256   2.649  0.2294  0.9076  0.3830
 4416TIP3    H234740   2.465   1.308   2.676 -0.2567 -0.6794  0.9673
 4417TIP3   OH234741   0.509   2.327   1.274  0.3294  0.5074 -0.2114
 4417TIP3    H134742   0.459   2.256   1.314  0.5300  0.5404  0.1041
 4417TIP3    H234743   0.455   2.357   1.201  0.0830  0.2661 -0.1289
 4418TIP3   OH234744   6.665   6.666  13.727 -0.0212 -0.1058 -0.6730
 4418TIP3    H134745   6.690   6.757  13.741  0.2504 -0.0630 -1.4448
 4418TIP3    H234746   6.627   6.639  13.811 -1.2369  1.0854 -0.8209
 4419TIP3   OH234747   4.711   1.241  11.994  0.4348  0.1380  0.1394
 4419TIP3    H134748   4.748   1.273  12.077 -1.1944  0.1426  0.8769
 4419TIP3    H234749   4.765   1.166  11.971  2.1757  1.3498  0.1501
 4420TIP3   OH234750   4.667   3.544  13.952 -0.0318 -0.6604  0.2271
 4420TIP3    H134751   4.574   3.564  13.956 -0.0092 -0.5753  0.3202
 4420TIP3    H234752   4.671   3.448  13.957 -0.1128 -0.6629  0.2484
 4421TIP3   OH234753   0.634   5.367   2.646 -0.5342  0.3229  0.3298
 4421TIP3    H134754   0.587   5.441   2.607  0.9348  0.6282 -0.9314
 4421TIP3    H234755   0.651   5.393   2.736  0.2107  1.6717 -0.1778
 4422TIP3   OH234756   1.227   4.309   1.998  0.1689 -0.4014  0.1129
 4422TIP3    H134757   1.181   4.388   2.025  0.0195 -1.0250  1.7431
 4422TIP3    H234758   1.281   4.336   1.924  0.3354  1.2994  0.8319
 4423TIP3   OH234759   0.018   4.809   5.312 -0.4002 -0.7409 -0.4681
 4423TIP3    H134760  -0.071   4.817   5.346 -0.4906 -1.7269 -0.4820
 4423TIP3    H234761   0.011   4.751   5.237  0.1744 -0.3854 -0.8043
 4424TIP3   OH234762   2.035   2.231  14.141 -0.0191 -0.1998  0.3875
 4424TIP3    H134763   2.062   2.146  14.178 -1.6461 -0.6863  0.4979
 4424TIP3    H234764   1.954   2.211  14.093  0.3241  1.0437 -0.7296
 4425TIP3   OH234765   1.086   4.800  14.774  0.1792 -0.2511 -0.3192
 4425TIP3    H134766   1.053   4.843  14.853 -0.0213  1.0556 -1.0919
 4425TIP3    H234767   1.008   4.786  14.720  0.5362  0.4787 -1.0358
 4426TIP3   OH234768   5.466   2.488  13.536  0.0331  0.0052  0.2651
 4426TIP3    H134769   5.466   2.580  13.563  0.5956  0.2716 -0.6249
 4426TIP3    H234770   5.448   2.491  13.442  1.8762 -0.6785 -0.1364
 4427TIP3   OH234771   2.811   1.317   4.511  0.3810 -0.6172  1.2883
 4427TIP3    H134772   2.818   1.223   4.495 -1.3560 -0.4709 -0.5829
 4427TIP3    H234773   2.895   1.353   4.483  0.6450 -1.4931  0.9703
 4428TIP3   OH234774   2.529   0.597  15.587 -0.0586  0.0739 -0.2027
 4428TIP3    H134775   2.550   0.622  15.677 -0.1977  1.1013 -0.4587
 4428TIP3    H234776   2.435   0.580  15.589  0.0925 -0.7666  0.0455
 4429TIP3   OH234777   6.650   3.199   6.172 -0.6427 -0.1264  0.4087
 4429TIP3    H134778   6.576   3.224   6.227 -0.6532  0.4938  0.1171
 4429TIP3    H234779   6.714   3.163   6.233 -0.9846 -0.1984  0.7256
 4430TIP3   OH234780   1.496   1.265  11.451  0.5125 -0.1818  0.6732
 4430TIP3    H134781   1.429   1.202  11.477  0.2807  1.0465  3.2661
 4430TIP3    H234782   1.575   1.237  11.498  0.6428  0.9172  1.1348
 4431TIP3   OH234783   0.292   4.151   1.038 -0.8712  0.2720 -0.1419
 4431TIP3    H134784   0.224   4.115   0.981 -0.7214  0.8751 -0.7076
 4431TIP3    H234785   0.371   4.103   1.013 -1.5007 -1.9274  1.9823
 4432TIP3   OH234786   2.316   1.144  15.113 -0.2934  0.1490  0.4252
 4432TIP3    H134787   2.288   1.154  15.204 -1.9690 -1.8755  0.1457
 4432TIP3    H234788   2.381   1.074  15.115  0.5453  0.9071  0.2176
 4433TIP3   OH234789   4.640   3.410  11.684 -0.1479 -0.4198  0.0315
 4433TIP3    H134790   4.727   3.412  11.643 -0.5348  0.8698 -0.7637
 4433TIP3    H234791   4.580   3.392  11.612 -0.6183 -0.5007  0.4394
 4434TIP3   OH234792   2.176   0.508  16.563 -0.4495 -0.4451 -0.1835
 4434TIP3    H134793   2.227   0.574  16.515 -1.0701 -0.7513 -1.2735
 4434TIP3    H234794   2.200   0.522  16.655  1.4931 -0.4889 -0.6552
 4435TIP3   OH234795   2.160   3.448  14.856  0.1609  0.3263  0.1887
 4435TIP3    H134796   2.255   3.461  14.859  0.2063  0.3357 -1.0923
 4435TIP3    H234797   2.148   3.353  14.863  0.2130  0.3906  1.2585
 4436TIP3   OH234798   4.535   2.327  16.129  0.5556  0.0864  0.4750
 4436TIP3    H134799   4.610   2.275  16.100  0.1253 -0.9495  1.1858
 4436TIP3    H234800   4.494   2.273  16.198 -1.0669  0.4570 -0.1867
 4437TIP3   OH234801   3.870   6.733  14.626 -0.0677  0.0221  0.0010
 4437TIP3    H134802   3.801   6.778  14.674  0.9804  0.8998  0.6951
 4437TIP3    H234803   3.885   6.787  14.549  1.4284  1.0696  1.0072
 4438TIP3   OH234804   3.746   3.768  11.379 -0.2434 -0.3422  0.2616
 4438TIP3    H134805   3.682   3.785  11.310 -0.0541 -1.7308 -0.2883
 4438TIP3    H234806   3.712   3.692  11.426 -0.1866  0.3779  1.4761
 4439TIP3   OH234807   3.154   5.922   6.220 -0.0006 -0.6213  0.1412
 4439TIP3    H134808   3.184   6.012   6.209  1.7083 -1.1725  0.0578
 4439TIP3    H234809   3.225   5.879   6.269 -0.1083 -2.2875 -1.1016
 4440TIP3   OH234810   2.184   0.576   4.472  0.0172 -0.0626  0.1500
 4440TIP3    H134811   2.151   0.510   4.410  3.4088 -1.0322 -0.7356
 4440TIP3    H234812   2.131   0.654   4.455 -2.3306 -1.7571 -0.5852
 4441TIP3   OH234813   5.681   0.463   5.534 -0.6185  0.2978  0.1083
 4441TIP3    H134814   5.610   0.504   5.484  0.4713 -0.1617 -1.8924
 4441TIP3    H234815   5.703   0.527   5.602 -2.1663  0.9354  0.0293
 4442TIP3   OH234816   1.377   2.308   4.046  0.9406  0.6296 -0.2637
 4442TIP3    H134817   1.409   2.278   4.131 -0.1819  0.3980  0.0933
 4442TIP3    H234818   1.427   2.258   3.982  0.2825 -0.7782  0.3000
 4443TIP3   OH234819   4.575   2.535  12.470 -0.5421  0.1145 -0.6470
 4443TIP3    H134820   4.528   2.610  12.435  0.8160  0.2969 -2.1839
 4443TIP3    H234821   4.634   2.508  12.398 -1.2951 -2.6709 -0.2907
 4444TIP3   OH234822   0.634   3.610   0.858 -0.0163  0.0595  0.2516
 4444TIP3    H134823   0.649   3.616   0.764 -0.6965 -0.1938  0.1195
 4444TIP3    H234824   0.719   3.626   0.898 -0.1125  2.2753 -0.3437
 4445TIP3   OH234825   2.536   5.313  14.495 -0.2246  0.1118 -0.1421
 4445TIP3    H134826   2.531   5.245  14.563  0.5662  0.0658 -0.1235
 4445TIP3    H234827   2.533   5.396  14.544 -0.5787  0.0871 -0.1198
 4446TIP3   OH234828   4.933   1.788  16.029 -0.3514  0.8827  0.4082
 4446TIP3    H134829   4.870   1.716  16.039 -1.4246  1.8650  0.8158
 4446TIP3    H234830   4.897   1.841  15.957 -0.4393  1.8990  1.1872
 4447TIP3   OH234831   6.647   6.635  12.180 -0.2812 -0.3814 -0.2202
 4447TIP3    H134832   6.701   6.625  12.258 -0.8285  0.6011  0.2966
 4447TIP3    H234833   6.673   6.720  12.143  0.2532 -1.0164 -1.3238
 4448TIP3   OH234834   5.303   3.436  16.102 -0.5192  0.1787 -0.5041
 4448TIP3    H134835   5.351   3.401  16.027  1.0754  0.1980  0.4980
 4448TIP3    H234836   5.211   3.436  16.074  0.2214  1.6821 -3.0354
 4449TIP3   OH234837   4.325   2.060  15.090 -0.0674  0.0664 -0.3356
 4449TIP3    H134838   4.250   2.007  15.115 -1.2014  2.0034  0.4206
 4449TIP3    H234839   4.372   2.076  15.172  1.0339 -0.9185 -0.7670
 4450TIP3   OH234840   4.495   3.413  16.657 -0.4544 -0.6421 -0.0359
 4450TIP3    H134841   4.521   3.324  16.682 -2.5172 -0.7071  2.0498
 4450TIP3    H234842   4.473   3.455  16.739 -1.8610  1.0298 -1.2421
 4451TIP3   OH234843   2.379   5.562  13.042  0.5405 -0.2653  0.6463
 4451TIP3    H134844   2.330   5.482  13.057 -0.4892  0.3966  0.8952
 4451TIP3    H234845   2.389   5.602  13.129  0.1053  0.4059  0.3955
 4452TIP3   OH234846   2.762   4.708  12.765 -0.1755  0.0289  0.2097
 4452TIP3    H134847   2.720   4.631  12.727 -1.2755 -0.0804  1.6127
 4452TIP3    H234848   2.764   4.691  12.859  0.4831  1.2685  0.4317
 4453TIP3   OH234849   5.456   0.945  13.113 -0.3090 -0.2716  0.2320
 4453TIP3    H134850   5.418   1.030  13.139 -0.3072  0.1198 -1.0328
 4453TIP3    H234851   5.522   0.967  13.047  1.2892 -1.0713  1.5368
 4454TIP3   OH234852   0.385   1.286   1.710  0.5841 -0.3212  0.1612
 4454TIP3    H134853   0.475   1.263   1.733 -0.0222 -1.5615  1.3756
 4454TIP3    H234854   0.332   1.217   1.750 -0.9054  0.3665 -0.5947
 4455TIP3   OH234855   5.726   2.258   3.152  0.6704 -0.2053 -0.8455
 4455TIP3    H134856   5.653   2.310   3.118  1.5690  2.2278  0.7716
 4455TIP3    H234857   5.689   2.213   3.228  0.2637 -0.8113 -1.3964
 4456TIP3   OH234858   4.916   3.998  12.369  0.2812 -0.4146  0.4190
 4456TIP3    H134859   4.951   4.087  12.359 -0.1164 -0.0265  2.2007
 4456TIP3    H234860   4.983   3.941  12.332  1.7855  0.4669  1.6992
 4457TIP3   OH234861   3.760   2.998  14.120 -0.6096 -0.3949 -0.7265
 4457TIP3    H134862   3.672   3.032  14.137 -0.8991  0.1259 -3.1548
 4457TIP3    H234863   3.767   2.993  14.025  2.0780 -0.2018 -0.5902
 4458TIP3   OH234864   1.280   4.412   0.101  0.1427  0.1754 -0.2659
 4458TIP3    H134865   1.348   4.356   0.065 -0.2071  0.1114 -0.8478
 4458TIP3    H234866   1.321   4.499   0.106  0.0605  0.2847 -1.2700
 4459TIP3   OH234867   4.775   5.319  13.169 -0.4480  0.4185 -0.0298
 4459TIP3    H134868   4.752   5.249  13.108 -1.5132  0.1223  0.6897
 4459TIP3    H234869   4.850   5.362  13.128 -1.0582  0.1512 -1.4914
 4460TIP3   OH234870   5.561   4.155   3.437 -0.2128  0.5760  0.1688
 4460TIP3    H134871   5.542   4.111   3.519  0.2093 -2.5412 -1.3452
 4460TIP3    H234872   5.623   4.098   3.392 -1.8956  1.2075 -3.1444
 4461TIP3   OH234873   5.485   4.654  15.020  0.0625 -0.5944  0.3242
 4461TIP3    H134874   5.537   4.734  15.031 -0.3519 -0.6790  3.3627
 4461TIP3    H234875   5.396   4.684  15.004  0.1596 -0.4442  0.0750
 4462TIP3   OH234876   6.220   4.577   0.649 -0.0020 -0.2533  0.0834
 4462TIP3    H134877   6.290   4.591   0.586  1.3589  0.2782  1.6738
 4462TIP3    H234878   6.140   4.580   0.597  1.1137 -0.2997 -1.6723
 4463TIP3   OH234879   3.809   6.467  12.261  0.2684 -0.2322 -0.7204
 4463TIP3    H134880   3.895   6.488  12.298  0.1758  0.2165 -0.7544
 4463TIP3    H234881   3.787   6.543  12.207 -0.1278 -0.3698 -0.7558
 4464TIP3   OH234882   1.870   2.323  13.348 -0.0910 -0.2809 -0.2877
 4464TIP3    H134883   1.958   2.360  13.348 -0.0554 -0.3311  2.1388
 4464TIP3    H234884   1.880   2.238  13.305  0.0219  1.8795 -4.9293
 4465TIP3   OH234885   2.440   3.132  11.070  0.4492 -0.5929 -0.3840
 4465TIP3    H134886   2.428   3.202  11.134  1.2687  0.3208 -1.2095
 4465TIP3    H234887   2.356   3.085  11.069 -0.5107  1.1137 -0.6932
 4466TIP3   OH234888   4.632   0.175  10.915  0.5617  0.1289 -0.1588
 4466TIP3    H134889   4.703   0.219  10.962 -1.4674  2.4152  0.9348
 4466TIP3    H234890   4.657   0.180  10.823  1.5651  1.3864  0.1625
 4467TIP3   OH234891   5.490   3.191  14.422  0.0329  0.0053  0.6403
 4467TIP3    H134892   5.443   3.202  14.504 -1.2452  2.3524 -0.3326
 4467TIP3    H234893   5.530   3.105  14.428 -0.4626 -0.0734  3.4903
 4468TIP3   OH234894   4.189   5.970  12.106 -0.0100  0.6757 -0.6452
 4468TIP3    H134895   4.249   5.895  12.106  1.3379  1.7153  0.3174
 4468TIP3    H234896   4.106   5.935  12.074  0.5535 -1.2603 -0.0502
 4469TIP3   OH234897   0.271   0.359   5.660  0.1425 -0.1358  0.0342
 4469TIP3    H134898   0.343   0.297   5.652 -0.5264 -1.1219  1.4551
 4469TIP3    H234899   0.313   0.443   5.678  1.0074 -0.3654 -0.8820
 4470TIP3   OH234900   5.088   5.862   2.341 -0.0250  0.4814 -0.0942
 4470TIP3    H134901   5.044   5.903   2.267 -1.7179 -1.7456 -0.3435
 4470TIP3    H234902   5.079   5.926   2.412 -1.3787  1.1694 -0.8610
 4471TIP3   OH234903   6.058   1.120  16.973  0.1705  0.3649 -0.0172
 4471TIP3    H134904   6.109   1.041  16.956  0.9439  1.0474 -0.9054
 4471TIP3    H234905   6.121   1.191  16.964 -0.3848  1.0564  1.3501
 4472TIP3   OH234906   1.950   6.709   2.517  0.9018 -0.1605  0.7823
 4472TIP3    H134907   1.950   6.792   2.469  1.9417 -0.6248 -0.0428
 4472TIP3    H234908   2.023   6.660   2.480  0.1477 -1.5527  1.0966
 4473TIP3   OH234909   4.337   2.693   2.564  0.0789 -0.0135  0.4486
 4473TIP3    H134910   4.326   2.751   2.488 -1.3650 -0.3253  0.4017
 4473TIP3    H234911   4.312   2.607   2.532  0.0529 -0.2548  1.1158
 4474TIP3   OH234912   1.947   5.807   4.893 -0.0522  0.3230  0.1202
 4474TIP3    H134913   1.937   5.847   4.807 -1.2780  0.9501  0.5397
 4474TIP3    H234914   1.863   5.763   4.909  0.6415 -0.9137  0.4286
 4475TIP3   OH234915   2.531   1.251   5.800 -0.0811 -0.5358  0.2922
 4475TIP3    H134916   2.481   1.259   5.718 -0.2245 -2.0936  0.2083
 4475TIP3    H234917   2.466   1.222   5.864 -0.1280  1.3931  1.1539
 4476TIP3   OH234918   6.551   0.480  16.979 -0.3706 -0.3298  0.0386
 4476TIP3    H134919   6.466   0.464  16.938 -0.0298 -2.6040  0.1491
 4476TIP3    H234920   6.551   0.427  17.058  0.8478  0.2517  0.4497
 4477TIP3   OH234921   2.312   0.882   0.659 -0.0755  0.2773  0.7718
 4477TIP3    H134922   2.323   0.899   0.565 -0.8175  0.3654  0.6975
 4477TIP3    H234923   2.313   0.787   0.667  0.2164  0.2744  0.7035
 4478TIP3   OH234924   0.878   2.889   5.531  0.4609  0.2963 -0.0468
 4478TIP3    H134925   0.943   2.845   5.586  1.5532  1.8324 -0.0857
 4478TIP3    H234926   0.930   2.938   5.466 -0.7406  1.0638 -0.4472
 4479TIP3   OH234927   0.122   1.957  12.634  0.3529  0.1052 -0.0329
 4479TIP3    H134928   0.059   2.007  12.582  0.1441 -1.4052 -1.2465
 4479TIP3    H234929   0.068   1.898  12.687  0.6673  0.0992  0.2835
 4480TIP3   OH234930   6.690   2.430   5.083 -0.3702  0.0993 -0.2306
 4480TIP3    H134931   6.771   2.436   5.032 -0.7533  1.1052 -0.7503
 4480TIP3    H234932   6.673   2.520   5.111 -2.3696  0.2832 -1.8418
 4481TIP3   OH234933   6.665   3.497   1.981  0.0912  0.1798 -0.2457
 4481TIP3    H134934   6.719   3.431   2.025 -1.0929 -0.6212  0.0342
 4481TIP3    H234935   6.675   3.478   1.888 -0.1560 -0.3425 -0.1702
 4482TIP3   OH234936   2.632   2.026   1.107 -0.3935  0.3836  0.2809
 4482TIP3    H134937   2.591   1.940   1.095  0.6529 -0.0856  0.0397
 4482TIP3    H234938   2.566   2.088   1.077 -0.9683 -0.3578 -0.0073
 4483TIP3   OH234939   1.736   4.843   3.126 -0.7262 -0.2107  0.0404
 4483TIP3    H134940   1.764   4.926   3.087 -1.1480 -0.4866 -0.8616
 4483TIP3    H234941   1.739   4.781   3.054 -1.8538 -0.6492  0.3662
 4484TIP3   OH234942   0.834   6.117   1.859  0.4996 -0.2009  0.4054
 4484TIP3    H134943   0.773   6.112   1.785  1.1542  0.0994 -0.1647
 4484TIP3    H234944   0.869   6.028   1.866 -1.9044 -1.0430  2.3932
 4485TIP3   OH234945   3.832   6.356  10.726  0.1777  0.2166 -0.2786
 4485TIP3    H134946   3.874   6.356  10.640  0.3916  1.1978 -0.1784
 4485TIP3    H234947   3.901   6.332  10.787 -0.0589 -0.8302 -0.4171
 4486TIP3   OH234948   1.904   1.197   1.117 -0.2933 -0.2477 -0.3705
 4486TIP3    H134949   1.838   1.164   1.055  0.1295 -0.3371 -0.7741
 4486TIP3    H234950   1.852   1.230   1.191 -0.7224 -1.6526 -0.0301
 4487TIP3   OH234951   3.304   6.325   2.596  0.5434 -0.2148  0.3994
 4487TIP3    H134952   3.229   6.310   2.538  0.5022 -0.8611  0.6151
 4487TIP3    H234953   3.373   6.357   2.538  0.3880 -0.5034  0.0499
 4488TIP3   OH234954   1.723   4.236   6.295  0.2149  0.0452 -0.0065
 4488TIP3    H134955   1.723   4.233   6.391 -1.4330 -0.7583 -0.0015
 4488TIP3    H234956   1.743   4.146   6.269 -0.0466  0.0993 -0.3995
 4489TIP3   OH234957   4.088   2.290   5.357  0.0704 -0.3203  0.1096
 4489TIP3    H134958   4.183   2.294   5.343 -0.1425 -0.5892 -1.5015
 4489TIP3    H234959   4.056   2.373   5.323 -0.3787 -0.6018 -0.1489
 4490TIP3   OH234960   4.234   5.345   5.482  0.0511  0.6756  0.5620
 4490TIP3    H134961   4.253   5.300   5.399  1.8141  0.4335  1.0802
 4490TIP3    H234962   4.278   5.292   5.549  0.9127  2.3489  1.3440
 4491TIP3   OH234963   2.378   2.042   3.477  0.0618 -0.1059 -0.0197
 4491TIP3    H134964   2.451   2.062   3.419 -0.7328  0.8927 -0.6925
 4491TIP3    H234965   2.302   2.081   3.434 -0.6455  0.0715  1.3637
 4492TIP3   OH234966   6.530   4.192  16.456 -0.1729  0.0646 -0.1625
 4492TIP3    H134967   6.519   4.264  16.518 -0.0294 -0.8296  0.9221
 4492TIP3    H234968   6.453   4.136  16.471  0.1810 -0.4765 -0.3489
 4493TIP3   OH234969   0.312   2.962   3.412 -0.0417  0.1361 -0.2866
 4493TIP3    H134970   0.254   3.012   3.354 -1.5770 -0.0818  1.0468
 4493TIP3    H234971   0.254   2.925   3.478  1.7911  1.0626  1.8909
 4494TIP3   OH234972   1.280   0.257   2.348  0.3525  1.0199 -0.2900
 4494TIP3    H134973   1.267   0.297   2.262 -0.6553  1.8408  0.2352
 4494TIP3    H234974   1.256   0.165   2.334  1.4635  0.8575 -1.1969
 4495TIP3   OH234975   0.204   5.719  14.217  0.2978  0.0639  0.1569
 4495TIP3    H134976   0.209   5.804  14.173  0.9772 -0.2325 -0.3512
 4495TIP3    H234977   0.253   5.731  14.298  1.0774 -0.0656 -0.2888
 4496TIP3   OH234978   4.678   1.176  16.958 -0.3146 -0.2885 -0.0632
 4496TIP3    H134979   4.710   1.256  17.000  0.8998 -0.2909 -0.9648
 4496TIP3    H234980   4.630   1.206  16.881  0.5680 -0.4483 -0.6780
 4497TIP3   OH234981   0.206   2.503   2.311  0.0552  0.2280 -0.1506
 4497TIP3    H134982   0.157   2.547   2.381  0.9226  1.3290 -0.2273
 4497TIP3    H234983   0.160   2.528   2.230 -1.3108 -1.5302  0.0471
 4498TIP3   OH234984   3.023   5.550  15.332 -0.5057  0.3358  0.0772
 4498TIP3    H134985   3.027   5.506  15.417 -0.3032  0.0474 -0.0837
 4498TIP3    H234986   3.006   5.481  15.269 -3.4876  0.9005  0.1811
 4499TIP3   OH234987   0.571   1.531  13.635  0.3771 -0.3288  0.2531
 4499TIP3    H134988   0.484   1.490  13.638  0.0886  0.2475 -0.0750
 4499TIP3    H234989   0.620   1.488  13.705  0.0589 -1.1692 -0.0314
 4500TIP3   OH234990   6.426   4.526  11.725  0.5965  0.1589 -0.8123
 4500TIP3    H134991   6.340   4.516  11.684  0.5368 -0.4559 -0.5332
 4500TIP3    H234992   6.448   4.439  11.758 -0.1190  1.0018  2.0170
 4501TIP3   OH234993   0.898   3.276   3.603  0.2204 -0.4885  0.0798
 4501TIP3    H134994   0.954   3.206   3.637 -0.2442 -0.4151  0.9958
 4501TIP3    H234995   0.811   3.237   3.600 -0.0455  0.0707  0.6266
 4502TIP3   OH234996   6.724   1.395  16.262  0.0115  0.3444 -0.3561
 4502TIP3    H134997   6.738   1.322  16.322  0.7918  0.6228 -0.1879
 4502TIP3    H234998   6.720   1.355  16.175  1.2154  0.1799 -0.3407
 4503TIP3   OH234999   3.741   5.214  14.508 -0.5118 -0.4538 -0.2805
 4503TIP3    H135000   3.687   5.284  14.545  0.0355  0.3965 -1.0884
 4503TIP3    H235001   3.679   5.143  14.490 -0.9895 -0.3852  1.0357
 4504TIP3   OH235002   5.328   0.626   0.745  0.2993 -0.3156 -0.3926
 4504TIP3    H135003   5.314   0.720   0.735  0.6534 -0.0366  1.4984
 4504TIP3    H235004   5.421   0.618   0.767 -0.0787 -0.9440  1.0863
 4505TIP3   OH235005   1.908   2.165  17.082  0.5553  0.6316  0.3788
 4505TIP3    H135006   1.989   2.197  17.122  0.6397  1.5406 -0.5085
 4505TIP3    H235007   1.930   2.077  17.051  1.8850  1.6871 -1.8222
 4506TIP3   OH235008   6.776   3.554  10.297  0.4178 -0.4168  0.1000
 4506TIP3    H135009   6.700   3.563  10.240 -0.2504  0.3366  1.0918
 4506TIP3    H235010   6.765   3.621  10.363  1.1070 -1.3711  1.2161
 4507TIP3   OH235011   6.657   3.044  13.665 -0.9834  0.1141  0.6363
 4507TIP3    H135012   6.659   2.981  13.593 -0.0292 -0.6435  1.3308
 4507TIP3    H235013   6.654   2.991  13.744 -0.2459  0.9258  1.2194
 4508TIP3   OH235014   0.850   0.927   3.685 -0.0536  0.0941  0.1217
 4508TIP3    H135015   0.879   0.909   3.596  0.5583  0.2604  0.2870
 4508TIP3    H235016   0.835   0.841   3.724 -0.0172  0.0166 -0.0369
 4509TIP3   OH235017   6.243   1.017  10.995 -0.0393  0.5251 -0.3170
 4509TIP3    H135018   6.256   0.997  11.088 -0.8713  1.5439  0.0294
 4509TIP3    H235019   6.296   1.095  10.980 -0.5393  0.8307 -0.5031
 4510TIP3   OH235020   5.415   6.062  16.724  0.2442 -0.0463  0.1494
 4510TIP3    H135021   5.441   6.063  16.816 -1.8684 -0.0804  0.7808
 4510TIP3    H235022   5.359   6.139  16.715 -1.1466 -1.1304 -0.6166
 4511TIP3   OH235023   4.525   0.283   5.511 -0.5800  0.2919  0.2092
 4511TIP3    H135024   4.462   0.355   5.507  0.4391  1.1196 -0.9806
 4511TIP3    H235025   4.473   0.205   5.491 -1.4073  0.8491  0.1662
 4512TIP3   OH235026   5.909   3.718   5.637 -0.1626 -0.5906 -0.3367
 4512TIP3    H135027   5.890   3.646   5.697 -2.1195  0.0108 -0.2006
 4512TIP3    H235028   5.980   3.766   5.680 -0.8072 -0.7880  0.9930
 4513TIP3   OH235029   4.284   5.544  16.375 -0.7748  0.2154 -0.1777
 4513TIP3    H135030   4.298   5.638  16.389 -3.2296  0.6719 -0.5251
 4513TIP3    H235031   4.342   5.521  16.302  1.1778  1.0466  1.0810
 4514TIP3   OH235032   0.419   1.796  15.276  0.9944 -0.3831 -0.1510
 4514TIP3    H135033   0.421   1.886  15.244 -0.1558 -0.9506 -1.8882
 4514TIP3    H235034   0.511   1.772  15.289  1.2945  1.1230  0.6347
 4515TIP3   OH235035   3.659   3.914  15.021 -0.6875  0.1070 -0.1738
 4515TIP3    H135036   3.668   3.819  15.026  0.8594  0.2324 -0.0175
 4515TIP3    H235037   3.613   3.930  14.939 -0.0586 -0.7495 -0.7129
 4516TIP3   OH235038   1.320   5.820   1.559 -0.3489  0.0505  0.0739
 4516TIP3    H135039   1.389   5.863   1.508 -0.5586  1.6957  1.1289
 4516TIP3    H235040   1.363   5.744   1.598  0.2094 -0.3521 -1.2990
 4517TIP3   OH235041   3.053   0.877   1.357 -0.7913 -0.4837  0.0522
 4517TIP3    H135042   3.024   0.914   1.440 -0.5324  0.7829 -0.4123
 4517TIP3    H235043   3.127   0.931   1.330 -1.2165 -0.5222 -1.2692
 4518TIP3   OH235044   0.369   2.843   2.429  0.4350 -0.3393  0.5053
 4518TIP3    H135045   0.309   2.841   2.355  0.1407  1.6396  0.6707
 4518TIP3    H235046   0.338   2.774   2.488 -1.2996  0.2421  0.2954
 4519TIP3   OH235047   2.857   4.716  16.847  0.0141  0.3019  0.3869
 4519TIP3    H135048   2.909   4.795  16.861 -0.4943  0.3519  2.2205
 4519TIP3    H235049   2.797   4.739  16.776  1.7940  0.5857 -1.0367
 4520TIP3   OH235050   1.539   3.760   0.586 -0.3851 -0.3054 -0.1964
 4520TIP3    H135051   1.470   3.825   0.596  1.2720  1.2880  1.3646
 4520TIP3    H235052   1.567   3.767   0.495 -0.1352  1.2863 -0.0033
 4521TIP3   OH235053   1.956   3.976  13.424 -0.2047 -0.3304 -0.5852
 4521TIP3    H135054   2.025   4.036  13.451 -0.3473  0.4294 -1.8715
 4521TIP3    H235055   1.998   3.915  13.364  0.1732 -2.1879  1.4955
 4522TIP3   OH235056   2.955   0.967   1.876  0.1223 -0.5334 -0.6658
 4522TIP3    H135057   3.045   0.997   1.891 -0.6036  1.8443 -0.9821
 4522TIP3    H235058   2.907   0.996   1.953 -0.4038 -1.8491 -0.4761
 4523TIP3   OH235059   3.274   6.114   4.325 -0.2590  0.4638  0.0623
 4523TIP3    H135060   3.295   6.044   4.388 -0.3595  0.6299  0.2836
 4523TIP3    H235061   3.179   6.107   4.314 -0.1084 -0.2084 -0.8421
 4524TIP3   OH235062   6.361   0.112   3.712  0.1855 -0.2577  0.7690
 4524TIP3    H135063   6.409   0.031   3.697 -0.2019 -0.6332  1.5231
 4524TIP3    H235064   6.342   0.146   3.624  1.3826 -0.3654  0.4644
 4525TIP3   OH235065   0.164   1.152  12.735 -0.1895 -0.2610 -0.0964
 4525TIP3    H135066   0.110   1.227  12.760 -0.2650 -0.0041 -1.0178
 4525TIP3    H235067   0.148   1.087  12.803  0.2326  0.7306  0.9703
 4526TIP3   OH235068   0.349   4.872   6.180 -0.3088  0.3903 -0.0246
 4526TIP3    H135069   0.364   4.890   6.087  0.5095  1.6807  0.3459
 4526TIP3    H235070   0.426   4.820   6.206 -0.1568  0.6925  0.1222
 4527TIP3   OH235071   5.944   1.122   0.634 -0.5367 -0.1364 -0.4062
 4527TIP3    H135072   5.974   1.212   0.640  0.0641 -0.4205  1.1524
 4527TIP3    H235073   5.848   1.128   0.635 -0.4974  0.4895 -0.4599
 4528TIP3   OH235074   6.308   1.400   3.827  0.7275  0.4991  0.0256
 4528TIP3    H135075   6.396   1.390   3.865  0.1552  0.0748  1.2827
 4528TIP3    H235076   6.253   1.423   3.902 -0.8283 -2.4899 -0.1109
 4529TIP3   OH235077   4.854   4.527  16.505  1.0209  0.4393 -0.1114
 4529TIP3    H135078   4.779   4.586  16.509  0.2900 -0.4359 -0.9140
 4529TIP3    H235079   4.915   4.569  16.444 -0.9883 -1.3077 -3.4544
 4530TIP3   OH235080   5.884   0.606  14.251 -0.3838 -0.2233  0.6738
 4530TIP3    H135081   5.893   0.639  14.162  0.2478 -0.2041  0.7486
 4530TIP3    H235082   5.824   0.668  14.293 -0.8271 -0.3323  0.2129
 4531TIP3   OH235083   6.667   5.657  13.167  0.0849 -0.7187  1.3696
 4531TIP3    H135084   6.608   5.698  13.230  0.4905  0.6459  0.8747
 4531TIP3    H235085   6.660   5.563  13.185 -1.9150 -0.5470  1.5765
 4532TIP3   OH235086   4.396   0.559   3.999 -0.5368 -0.0509 -0.0642
 4532TIP3    H135087   4.331   0.621   3.967 -1.3713 -0.0599  1.5360
 4532TIP3    H235088   4.465   0.560   3.934 -1.5023  1.0129 -1.0904
 4533TIP3   OH235089   5.920   0.697   1.575  0.0624 -0.0958 -0.2646
 4533TIP3    H135090   5.948   0.656   1.493 -0.3194 -0.6621 -0.1161
 4533TIP3    H235091   5.977   0.773   1.585  0.0782  0.0037 -1.0816
 4534TIP3   OH235092   2.668   5.383   5.225  0.2540  0.4736  0.6180
 4534TIP3    H135093   2.715   5.398   5.307  0.7169 -2.7156  1.0388
 4534TIP3    H235094   2.734   5.345   5.167 -1.5505 -3.6345  1.0567
 4535TIP3   OH235095   0.908   0.661  10.959 -0.6372  0.0604 -0.2205
 4535TIP3    H135096   0.823   0.705  10.960 -0.4662  0.3686  0.4305
 4535TIP3    H235097   0.971   0.729  10.983 -0.1287 -0.0037 -1.3400
 4536TIP3   OH235098   1.909   3.101  14.686  0.4482  0.1212  0.0706
 4536TIP3    H135099   1.869   3.126  14.602  1.3871 -2.0748 -1.0559
 4536TIP3    H235100   1.863   3.020  14.710  1.4847 -0.2646  0.7354
 4537TIP3   OH235101   0.231   6.767   0.917  0.0544  0.5979 -0.3425
 4537TIP3    H135102   0.191   6.837   0.969  1.2377  1.8420 -1.0772
 4537TIP3    H235103   0.246   6.697   0.980  0.0887  1.5139  0.6968
 4538TIP3   OH235104   0.986   0.416  12.517 -0.4256 -0.1879 -0.9313
 4538TIP3    H135105   1.031   0.496  12.489  2.4506 -1.3366  0.2528
 4538TIP3    H235106   1.025   0.395  12.602 -4.9994  0.1060  1.3779
 4539TIP3   OH235107   2.484   6.738   0.675 -0.6050  0.1368  0.5287
 4539TIP3    H135108   2.571   6.775   0.662  0.1129 -1.8032 -0.3742
 4539TIP3    H235109   2.475   6.731   0.770  0.3285  0.1137  0.6236
 4540TIP3   OH235110   3.437   2.550  11.609 -0.4707 -0.8484 -0.1023
 4540TIP3    H135111   3.353   2.590  11.628  0.2131  1.1372 -1.1421
 4540TIP3    H235112   3.441   2.547  11.513  1.5110  1.0160 -0.1133
 4541TIP3   OH235113   5.867   3.872  14.326 -0.5282  0.6103 -0.5418
 4541TIP3    H135114   5.825   3.801  14.374  0.1539  0.8173  0.3765
 4541TIP3    H235115   5.812   3.948  14.342 -0.0923  0.7706  0.2641
 4542TIP3   OH235116   3.114   5.837  11.134 -0.4264 -0.2455  0.0640
 4542TIP3    H135117   3.089   5.925  11.104  0.4685 -0.3017 -0.8406
 4542TIP3    H235118   3.034   5.802  11.174 -1.0922  0.5586 -0.5505
 4543TIP3   OH235119   2.711   1.699  14.889 -0.4829 -0.2154 -0.4862
 4543TIP3    H135120   2.683   1.755  14.816 -0.1985  0.9338  0.2866
 4543TIP3    H235121   2.794   1.661  14.859 -0.3519  0.2767 -0.7431
 4544TIP3   OH235122   0.198   1.207  16.366  0.3477  0.1462  0.1002
 4544TIP3    H135123   0.105   1.211  16.344  0.5394 -0.1357 -0.7910
 4544TIP3    H235124   0.227   1.298  16.367 -0.1876  0.3171  1.5177
 4545TIP3   OH235125   3.596   4.268   6.571  0.7159 -0.2938  0.1476
 4545TIP3    H135126   3.618   4.175   6.578  0.9585 -0.2383  0.1260
 4545TIP3    H235127   3.507   4.274   6.603  0.7732 -0.5028  0.3460
 4546TIP3   OH235128   4.327   1.590  11.463 -0.3869 -0.1371 -0.1802
 4546TIP3    H135129   4.255   1.535  11.495 -0.2342 -1.0620 -1.3757
 4546TIP3    H235130   4.319   1.586  11.368  0.4767  0.8020 -0.2957
 4547TIP3   OH235131   5.478   6.294   6.279  0.0987  0.5382  0.1396
 4547TIP3    H135132   5.511   6.254   6.360  0.0232  0.6620  0.2323
 4547TIP3    H235133   5.445   6.220   6.228 -1.4264  0.6168  0.9623
 4548TIP3   OH235134   5.740   4.403   1.963  0.0458 -0.2376  0.0693
 4548TIP3    H135135   5.728   4.493   1.992 -1.3604  0.5566 -2.8286
 4548TIP3    H235136   5.819   4.405   1.909  0.2829 -0.8588  0.3783
 4549TIP3   OH235137   2.364   1.580  14.553 -0.0111  0.3641 -0.3154
 4549TIP3    H135138   2.427   1.648  14.530 -1.1461  1.8916  0.9799
 4549TIP3    H235139   2.398   1.541  14.633  1.0837 -1.2100 -1.5178
 4550TIP3   OH235140   3.168   1.801  13.372 -0.0869  0.4952 -0.5194
 4550TIP3    H135141   3.254   1.807  13.332  0.2081 -1.5953 -0.2840
 4550TIP3    H235142   3.167   1.715  13.414 -1.4212  1.4798  1.5594
 4551TIP3   OH235143   0.847   1.184  13.585 -0.4333  0.3968 -0.3678
 4551TIP3    H135144   0.902   1.226  13.651 -0.5370 -0.9529  0.6110
 4551TIP3    H235145   0.799   1.255  13.544  1.0901  1.4673 -0.3371
 4552TIP3   OH235146   2.575   4.275  14.772  0.8571 -0.5206 -0.3363
 4552TIP3    H135147   2.590   4.184  14.746  0.3400 -0.5617 -0.5109
 4552TIP3    H235148   2.553   4.270  14.865 -1.0718 -0.7919 -0.7748
 4553TIP3   OH235149   5.729   4.684   1.257  0.4218  0.4486 -0.0503
 4553TIP3    H135150   5.696   4.662   1.170  0.0388  0.7582  0.0164
 4553TIP3    H235151   5.766   4.602   1.290  1.0339  0.4555 -0.7092
 4554TIP3   OH235152   1.300   2.536  12.371 -0.0683 -0.1294  0.9450
 4554TIP3    H135153   1.338   2.512  12.455  0.0764  2.4835  1.6501
 4554TIP3    H235154   1.212   2.566  12.392  0.1738  1.0887  0.2361
 4555TIP3   OH235155   4.113   4.486   5.833 -0.3222 -0.3223 -0.4304
 4555TIP3    H135156   4.035   4.535   5.859  0.2392 -0.4784  1.6971
 4555TIP3    H235157   4.096   4.397   5.863  0.3280 -0.5296 -0.6840
 4556TIP3   OH235158   4.947   0.428  15.038  0.2804 -0.1872 -0.3338
 4556TIP3    H135159   4.918   0.389  14.956  0.0630 -0.2789 -0.2148
 4556TIP3    H235160   4.969   0.354  15.094 -1.5483 -0.1897  0.4079
 4557TIP3   OH235161   4.538   5.827  16.099 -0.0413 -0.6626  1.2911
 4557TIP3    H135162   4.571   5.852  16.185  0.4093  2.0958  0.3388
 4557TIP3    H235163   4.555   5.902  16.043 -0.7253 -2.2453 -1.1342
 4558TIP3   OH235164   2.758   4.652   6.076  0.5592 -0.0974  0.6037
 4558TIP3    H135165   2.813   4.629   6.002  0.4892 -0.8554  0.7826
 4558TIP3    H235166   2.799   4.730   6.114  0.9602 -0.0959  0.1615
 4559TIP3   OH235167   1.510   6.409   2.728  0.0096  0.0827  0.2961
 4559TIP3    H135168   1.448   6.457   2.674 -0.0895 -0.7304 -0.3266
 4559TIP3    H235169   1.567   6.364   2.664 -0.5349 -1.4312  0.8602
 4560TIP3   OH235170   0.177   6.400   0.118 -0.5528  0.1065 -0.4252
 4560TIP3    H135171   0.106   6.337   0.103  0.1538 -0.1734 -2.8607
 4560TIP3    H235172   0.135   6.485   0.112 -1.0855 -0.0918  0.4254
 4561TIP3   OH235173   6.418   4.526   5.037 -0.2760  0.5494 -0.3505
 4561TIP3    H135174   6.392   4.527   5.129 -0.8094  0.0946 -0.4937
 4561TIP3    H235175   6.354   4.469   4.994  1.3285 -1.1353 -0.6040
 4562TIP3   OH235176   5.862   4.332  13.115 -0.3970  0.2782  0.3766
 4562TIP3    H135177   5.886   4.256  13.062 -0.9592  1.3071 -1.3889
 4562TIP3    H235178   5.947   4.372  13.138 -0.1825  0.7325 -1.1289
 4563TIP3   OH235179   4.255   3.822  13.326 -0.3232  0.1122  0.3431
 4563TIP3    H135180   4.232   3.771  13.248 -2.0164 -0.1390  0.9919
 4563TIP3    H235181   4.350   3.832  13.321 -0.1356 -1.8569 -0.5598
 4564TIP3   OH235182   5.162   1.469  11.774  0.3916  0.4218  0.0988
 4564TIP3    H135183   5.194   1.380  11.761 -1.0160 -0.2379  0.9892
 4564TIP3    H235184   5.234   1.514  11.820  1.3419 -0.0613 -0.8923
 4565TIP3   OH235185   1.754   5.877  16.406 -0.3339  0.0324 -0.2129
 4565TIP3    H135186   1.723   5.967  16.396 -0.7503 -0.1002 -0.1181
 4565TIP3    H235187   1.677   5.823  16.387 -0.1992 -0.2950  0.1714
 4566TIP3   OH235188   1.533   6.125   1.568  0.3103  0.2573 -0.3762
 4566TIP3    H135189   1.587   6.086   1.637  1.1675  0.1598 -1.0874
 4566TIP3    H235190   1.484   6.194   1.612 -1.1123 -1.4839  0.8626
 4567TIP3   OH235191   1.196   2.272  12.858  0.2737  0.3127  0.6065
 4567TIP3    H135192   1.108   2.253  12.889 -0.2147 -0.2669 -1.0652
 4567TIP3    H235193   1.210   2.364  12.878 -1.6341  1.0345 -1.2304
 4568TIP3   OH235194   1.804   2.832  12.179  0.3825 -0.5991  0.5450
 4568TIP3    H135195   1.808   2.785  12.095  0.3117 -0.8185  0.6656
 4568TIP3    H235196   1.873   2.898  12.172 -1.0358  0.8173 -0.5567
 4569TIP3   OH235197   2.283   0.231   0.984 -0.0213 -0.2755 -0.1411
 4569TIP3    H135198   2.203   0.180   0.972  0.8535 -1.5611 -0.6106
 4569TIP3    H235199   2.349   0.166   1.011  0.6947  0.8705  0.9054
 4570TIP3   OH235200   5.241   6.783   6.191  0.4585  0.1004  0.3889
 4570TIP3    H135201   5.263   6.831   6.111 -0.6515 -0.2555 -0.1438
 4570TIP3    H235202   5.149   6.758   6.179  0.5126 -0.6246  1.4395
 4571TIP3   OH235203   1.606   5.359   0.811  0.4154  0.0557 -0.6165
 4571TIP3    H135204   1.635   5.354   0.720  3.5154  0.1212  0.3090
 4571TIP3    H235205   1.645   5.283   0.853 -0.7667  0.1773  0.7399
 4572TIP3   OH235206   4.274   5.723  14.523  0.5872  0.2020  0.1838
 4572TIP3    H135207   4.300   5.814  14.539  0.6711  0.4484 -1.2863
 4572TIP3    H235208   4.184   5.730  14.492  0.4578 -0.2573  0.4540
 4573TIP3   OH235209   5.803   1.038   4.233  0.3810  0.1976 -0.1638
 4573TIP3    H135210   5.772   1.093   4.161 -1.4360 -0.1473  0.3117
 4573TIP3    H235211   5.724   0.992   4.263  1.0745  0.3673  2.0491
 4574TIP3   OH235212   0.485   4.510   1.211 -0.4560 -0.3556  0.5735
 4574TIP3    H135213   0.403   4.485   1.252  0.4734 -0.7767  2.1906
 4574TIP3    H235214   0.533   4.558   1.279  1.3983 -1.6698  0.2309
 4575TIP3   OH235215   1.995   0.739  11.253 -0.4424  0.2127  0.0389
 4575TIP3    H135216   2.002   0.832  11.275  0.9548  0.5719 -1.8328
 4575TIP3    H235217   1.912   0.732  11.206 -0.5029  0.5470  0.0947
 4576TIP3   OH235218   6.634   4.127  13.680  0.5018 -0.0714  0.0623
 4576TIP3    H135219   6.538   4.128  13.684  0.5201  1.8844  0.5287
 4576TIP3    H235220   6.659   4.047  13.727 -0.8215  0.9731  2.6506
 4577TIP3   OH235221   2.990   3.692  11.474  0.3640 -0.0238  0.1064
 4577TIP3    H135222   3.070   3.742  11.487 -0.2013  1.2063 -0.9610
 4577TIP3    H235223   2.972   3.652  11.558  1.7445  0.2228  0.5298
 4578TIP3   OH235224   1.445   0.232   2.689 -0.1002  0.2890  0.0465
 4578TIP3    H135225   1.478   0.236   2.600 -0.2170  0.5904  0.0134
 4578TIP3    H235226   1.518   0.200   2.741  0.6139  2.0378  0.1519
 4579TIP3   OH235227   2.518   6.710   0.941  0.0216 -0.2834 -0.0561
 4579TIP3    H135228   2.563   6.790   0.968  0.3340 -1.9304  4.6773
 4579TIP3    H235229   2.440   6.707   0.997  1.0203 -4.2502  1.2310
 4580TIP3   OH235230   2.052   4.541   4.589 -1.1288  0.0808 -0.5234
 4580TIP3    H135231   2.034   4.536   4.495  0.7752 -1.1162 -0.8715
 4580TIP3    H235232   2.070   4.633   4.606 -1.2739  0.2701 -1.3814
 4581TIP3   OH235233   4.040   1.604   5.879  0.6371 -0.8116  0.0070
 4581TIP3    H135234   3.994   1.520   5.874 -0.1653 -0.3702  0.0347
 4581TIP3    H235235   4.109   1.596   5.812 -0.1972 -1.0236 -0.8506
 4582TIP3   OH235236   5.336   0.834  15.630  0.0076  0.5210  0.4818
 4582TIP3    H135237   5.310   0.905  15.572 -1.0226 -0.9711 -0.9472
 4582TIP3    H235238   5.261   0.775  15.631  1.1960 -1.0435  0.8287
 4583TIP3   OH235239   6.352   4.377  12.312  0.0849 -0.4133  0.3755
 4583TIP3    H135240   6.288   4.393  12.382 -0.6377 -1.5207 -0.0132
 4583TIP3    H235241   6.398   4.298  12.340 -0.8040 -1.3700 -0.7993
 4584TIP3   OH235242   4.082   0.278  11.620 -0.1555 -0.1475  0.0349
 4584TIP3    H135243   4.147   0.209  11.626 -0.1983 -0.3778 -1.6928
 4584TIP3    H235244   4.080   0.318  11.707  0.7989 -1.4668  0.6778
 4585TIP3   OH235245   1.006   5.882  11.499 -0.3164 -0.1894  0.0489
 4585TIP3    H135246   1.055   5.905  11.577  0.2444  0.8220 -0.5934
 4585TIP3    H235247   0.916   5.868  11.530 -0.2997  1.1522  0.7242
 4586TIP3   OH235248   2.090   6.037   4.611  0.2759 -0.1289  0.1634
 4586TIP3    H135249   2.185   6.039   4.601  0.2981  0.8114  0.5249
 4586TIP3    H235250   2.061   5.967   4.552  0.9968  1.0596 -1.6362
 4587TIP3   OH235251   3.698   2.064   0.158 -0.1581  0.0483 -0.0805
 4587TIP3    H135252   3.712   2.149   0.201 -1.8523  0.9140 -1.1776
 4587TIP3    H235253   3.780   2.046   0.113 -0.3169  1.9457 -1.2238
 4588TIP3   OH235254   1.719   4.826  11.678  0.6147 -0.2113  0.2278
 4588TIP3    H135255   1.806   4.794  11.652  0.1092  0.6839 -2.6763
 4588TIP3    H235256   1.680   4.859  11.598 -2.1851  0.0345  1.6275
 4589TIP3   OH235257   2.950   5.836  10.789  0.3434 -0.2088 -0.3275
 4589TIP3    H135258   3.016   5.772  10.815 -1.1419 -0.6692  2.5519
 4589TIP3    H235259   2.868   5.787  10.788 -0.4923  1.1663 -0.2394
 4590TIP3   OH235260   0.140   5.582   3.046 -0.0567 -0.0049  0.0323
 4590TIP3    H135261   0.164   5.612   2.958 -0.8375  1.7431  0.3850
 4590TIP3    H235262   0.127   5.663   3.096  1.1076 -0.9868  1.9652
 4591TIP3   OH235263   0.510   5.616   5.597 -0.3169  0.5318  0.1247
 4591TIP3    H135264   0.588   5.561   5.590 -0.6873  0.0735 -0.4933
 4591TIP3    H235265   0.451   5.583   5.529 -1.7896 -0.3016  1.7777
 4592TIP3   OH235266   0.824   2.825  15.029  0.2074 -0.1567 -0.1325
 4592TIP3    H135267   0.902   2.773  15.047 -1.0537 -1.3180  2.2585
 4592TIP3    H235268   0.783   2.781  14.955 -0.4186 -2.1656  1.3413
 4593TIP3   OH235269   1.506   6.808   2.434 -0.5206 -0.1858 -0.2382
 4593TIP3    H135270   1.539   6.755   2.361  1.2443  1.2076 -0.4853
 4593TIP3    H235271   1.505   6.897   2.401  2.8740  0.8626  2.2411
 4594TIP3   OH235272   3.038   3.266  17.211 -0.0264  0.2791  0.1352
 4594TIP3    H135273   3.061   3.357  17.193 -1.1742  0.0713 -2.5996
 4594TIP3    H235274   2.943   3.261  17.196 -0.3349 -0.9508  2.1935
 4595TIP3   OH235275   3.546   4.016  15.502  0.2949  0.1560  0.0101
 4595TIP3    H135276   3.595   3.945  15.543  1.1393  0.3998 -0.5657
 4595TIP3    H235277   3.515   4.069  15.576  0.3101 -0.3788  0.4048
 4596TIP3   OH235278   6.631   5.730   3.236  0.1304 -0.4488 -0.1766
 4596TIP3    H135279   6.716   5.744   3.277  0.1550  0.1570 -0.4217
 4596TIP3    H235280   6.571   5.787   3.284 -0.6171 -2.6043  1.5222
 4597TIP3   OH235281   4.457   4.472   0.688 -0.0994 -0.3017  0.3707
 4597TIP3    H135282   4.542   4.435   0.712  1.0055  0.4878 -2.1495
 4597TIP3    H235283   4.396   4.398   0.691  0.8405 -1.0548  1.3101
 4598TIP3   OH235284   2.721   2.479   0.821  0.2692  0.1965 -0.4383
 4598TIP3    H135285   2.686   2.489   0.732  1.7768  0.1731 -1.0405
 4598TIP3    H235286   2.653   2.430   0.868 -0.3449 -0.1715 -1.6906
 4599TIP3   OH235287   4.088   1.776  11.270  0.0651 -0.0827 -0.1401
 4599TIP3    H135288   4.000   1.752  11.297 -1.2166  1.3654 -2.7330
 4599TIP3    H235289   4.113   1.848  11.329  1.7794 -3.9506  4.1145
 4600TIP3   OH235290   2.447   4.989  15.382 -0.3118  0.2705 -0.4522
 4600TIP3    H135291   2.453   5.042  15.302 -0.9569  0.5732 -0.3013
 4600TIP3    H235292   2.354   4.993  15.407 -0.6010 -1.7929 -1.0284
 4601TIP3   OH235293   0.330   1.498  11.513 -0.1936  0.9024 -0.1328
 4601TIP3    H135294   0.412   1.476  11.468 -0.5586 -0.2128 -0.2616
 4601TIP3    H235295   0.355   1.565  11.576  0.2989  2.5773 -2.0711
 4602TIP3   OH235296   6.602   4.330   6.066  0.0740  0.1645 -0.0203
 4602TIP3    H135297   6.566   4.392   6.003 -1.7515 -2.8477 -2.0814
 4602TIP3    H235298   6.688   4.306   6.030 -0.6061 -0.9173 -0.9336
 4603TIP3   OH235299   2.886   1.046   4.461 -0.0330  0.2238 -0.4239
 4603TIP3    H135300   2.977   1.029   4.437  1.1960  2.8081  2.0462
 4603TIP3    H235301   2.879   1.015   4.551 -1.6978 -0.1482 -0.6626
 4604TIP3   OH235302   2.715   6.118   3.288  0.4800  0.0708 -0.3695
 4604TIP3    H135303   2.709   6.210   3.312  2.0344 -0.0858  0.7426
 4604TIP3    H235304   2.630   6.096   3.251 -0.6289  1.4110  1.3283
 4605TIP3   OH235305   0.815   5.230   5.692 -0.4044  0.5143  0.4361
 4605TIP3    H135306   0.818   5.295   5.762 -0.3406  0.4297  0.5119
 4605TIP3    H235307   0.898   5.239   5.646  0.0831 -0.2813  1.1430
 4606TIP3   OH235308   0.763   3.183  16.689 -0.4500  0.2818 -0.1972
 4606TIP3    H135309   0.815   3.114  16.649  1.2886  0.8405  1.0284
 4606TIP3    H235310   0.726   3.232  16.616  1.4850  0.4068 -1.1187
 4607TIP3   OH235311   4.551   4.938   4.440 -0.4534  0.3400  0.2386
 4607TIP3    H135312   4.579   4.928   4.531  0.5488  2.5330  0.2056
 4607TIP3    H235313   4.598   4.868   4.393 -0.0361 -0.0416  1.2120
 4608TIP3   OH235314   3.273   4.915  12.116  0.5115  0.3409 -0.4822
 4608TIP3    H135315   3.331   4.982  12.151 -1.5835  2.3586 -0.8003
 4608TIP3    H235316   3.267   4.935  12.023 -2.1965  1.3573 -0.1307
 4609TIP3   OH235317   5.267   3.082  15.281  0.2935 -0.1131  0.2553
 4609TIP3    H135318   5.182   3.047  15.307 -0.0610  0.0429 -0.6568
 4609TIP3    H235319   5.253   3.176  15.276  1.2723  0.2015  2.8041
 4610TIP3   OH235320   0.173   4.828   1.911 -0.0372  0.5624  0.6247
 4610TIP3    H135321   0.087   4.791   1.932  2.0638 -3.6652  2.3820
 4610TIP3    H235322   0.189   4.893   1.980 -2.4083  2.5232 -0.6055
 4611TIP3   OH235323   6.587   2.881  15.944  0.0257  0.7105 -0.2842
 4611TIP3    H135324   6.615   2.972  15.940  1.3451  0.4992  2.7405
 4611TIP3    H235325   6.669   2.831  15.939 -0.4507 -0.1973  0.8121
 4612TIP3   OH235326   0.816   0.013  13.819 -0.3173  0.3528  0.1550
 4612TIP3    H135327   0.721   0.021  13.831 -0.4163  0.8273 -0.9506
 4612TIP3    H235328   0.851   0.019  13.908 -1.5231 -2.9451  0.9156
 4613TIP3   OH235329   4.344   0.521   0.093  0.2277  0.3829  0.0787
 4613TIP3    H135330   4.401   0.475   0.030  0.3182 -0.5481  0.8316
 4613TIP3    H235331   4.389   0.603   0.110  0.6790  0.2304 -0.3536
 4614TIP3   OH235332   3.853   6.381   2.474  0.1208  0.1825  0.3579
 4614TIP3    H135333   3.934   6.424   2.502  0.0840  0.9028 -0.6377
 4614TIP3    H235334   3.783   6.441   2.499 -0.0829 -0.2447  0.8295
 4615TIP3   OH235335   3.032   2.301   2.250 -0.6569 -0.1506 -0.1657
 4615TIP3    H135336   3.017   2.211   2.279 -1.0847 -0.1123 -0.2712
 4615TIP3    H235337   3.062   2.293   2.159 -4.0104 -0.0058 -1.3374
 4616TIP3   OH235338   5.248   3.990  14.744 -0.0872  0.4882  0.2275
 4616TIP3    H135339   5.169   3.939  14.727 -0.2229  0.3932  1.1277
 4616TIP3    H235340   5.224   4.080  14.721 -0.1705  0.3180 -0.3634
 4617TIP3   OH235341   6.579   2.168   2.177 -0.0325 -0.0794  0.2511
 4617TIP3    H135342   6.540   2.134   2.258 -0.3699 -1.4549 -0.4677
 4617TIP3    H235343   6.508   2.163   2.113  0.4128  0.4473 -0.2847
 4618TIP3   OH235344   6.660   2.340  16.729 -0.7690  0.3837  0.3411
 4618TIP3    H135345   6.637   2.374  16.643  0.8593 -1.0240 -0.6887
 4618TIP3    H235346   6.705   2.413  16.773  2.3653 -0.2295 -1.7027
 4619TIP3   OH235347   0.479   5.790  13.329  0.0323 -0.3327  0.1641
 4619TIP3    H135348   0.501   5.748  13.412  0.9555 -0.5950 -0.2059
 4619TIP3    H235349   0.423   5.864  13.353 -0.5590 -1.0159  0.9248
 4620TIP3   OH235350   5.709   1.620  12.582  0.3417 -0.3879  0.1233
 4620TIP3    H135351   5.715   1.675  12.503 -0.3527 -0.3181  0.1132
 4620TIP3    H235352   5.774   1.657  12.641  1.7576 -1.2280 -0.8808
 4621TIP3   OH235353   5.001   4.592   4.201 -0.4508  0.7193 -0.0205
 4621TIP3    H135354   4.951   4.644   4.263 -1.6719 -0.7864  0.2961
 4621TIP3    H235355   4.982   4.501   4.224  1.4905  0.1071 -0.6647
 4622TIP3   OH235356   3.910   1.011   3.837  0.3864 -0.4748 -0.4124
 4622TIP3    H135357   3.993   1.046   3.805  0.8369 -1.2684 -0.1138
 4622TIP3    H235358   3.845   1.046   3.777  0.7371  1.5209  0.3204
 4623TIP3   OH235359   3.025   2.714   3.795 -0.2291 -0.1272 -0.5098
 4623TIP3    H135360   3.089   2.740   3.861  0.2547 -0.6152 -0.7832
 4623TIP3    H235361   3.048   2.624   3.773 -1.2324 -0.4257 -0.3536
 4624TIP3   OH235362   3.076   3.684  15.992  0.0437  0.0789  0.0043
 4624TIP3    H135363   3.074   3.639  16.077 -0.9513 -0.1437 -0.1344
 4624TIP3    H235364   3.150   3.744  15.999  0.4848 -0.5376  0.7251
 4625TIP3   OH235365   1.933   6.217   4.455 -0.3410 -0.4729 -0.2218
 4625TIP3    H135366   1.979   6.205   4.538 -0.2440  1.4083  0.0194
 4625TIP3    H235367   1.979   6.161   4.393  0.1281 -1.2224  0.8073
 4626TIP3   OH235368   4.426   2.225   2.170 -0.3153 -0.3720  0.2796
 4626TIP3    H135369   4.365   2.206   2.099  0.3114 -2.1759  0.2077
 4626TIP3    H235370   4.403   2.162   2.239 -0.7293  1.1613  1.5867
 4627TIP3   OH235371   3.633   1.966   2.542 -0.4880 -0.1024  0.0408
 4627TIP3    H135372   3.559   2.009   2.585  0.0958  2.4712 -1.4040
 4627TIP3    H235373   3.602   1.948   2.454  0.2608  0.0678 -0.2630
 4628TIP3   OH235374   1.759   5.027   5.432 -0.4904 -0.0548 -0.5216
 4628TIP3    H135375   1.685   5.080   5.460 -1.8331 -1.1044 -1.9719
 4628TIP3    H235376   1.800   5.077   5.362  0.0925  0.4789  0.2092
 4629TIP3   OH235377   0.210   0.745   1.254 -0.1526  0.4387 -0.0885
 4629TIP3    H135378   0.201   0.663   1.206 -1.4247  0.2345  0.4604
 4629TIP3    H235379   0.157   0.808   1.204  0.9427  0.9637 -0.5920
 4630TIP3   OH235380   4.198   1.234  12.277 -0.1364 -0.1176 -0.2713
 4630TIP3    H135381   4.284   1.276  12.283 -0.1341 -0.4338  2.1401
 4630TIP3    H235382   4.148   1.270  12.350 -1.9565 -0.2233 -1.4153
 4631TIP3   OH235383   6.659   0.867   4.900  0.5251 -0.3802 -0.1081
 4631TIP3    H135384   6.712   0.789   4.915  2.2617  0.9988  1.1723
 4631TIP3    H235385   6.656   0.912   4.984  2.7686  2.8322 -1.6144
 4632TIP3   OH235386   4.404   4.313   6.616  0.3154 -0.2269  0.1876
 4632TIP3    H135387   4.467   4.323   6.545  0.8755  0.3148  0.7558
 4632TIP3    H235388   4.322   4.346   6.580  0.6527  0.2823 -0.1326
 4633TIP3   OH235389   0.128   3.301   3.513 -0.1066  0.2838 -0.0502
 4633TIP3    H135390   0.136   3.289   3.607 -0.0453  2.0326  0.1903
 4633TIP3    H235391   0.075   3.226   3.483 -0.1693 -0.2475  1.3658
 4634TIP3   OH235392   2.783   1.149  16.533 -0.5053 -0.2767  0.7461
 4634TIP3    H135393   2.797   1.094  16.457  1.6550  0.8612  0.2613
 4634TIP3    H235394   2.760   1.235  16.497 -1.1806 -0.1724  1.4156
 4635TIP3   OH235395   5.837   4.300  15.385 -0.1240 -0.3908  0.3398
 4635TIP3    H135396   5.860   4.207  15.384  0.9108 -0.1475  0.3993
 4635TIP3    H235397   5.746   4.303  15.413  0.1107 -1.3362  1.2092
 4636TIP3   OH235398   2.239   0.750  14.486 -0.0299 -0.6428 -0.2874
 4636TIP3    H135399   2.189   0.671  14.466 -0.7132  0.0813 -1.5250
 4636TIP3    H235400   2.322   0.737  14.440  0.3818 -1.2063  0.5877
 4637TIP3   OH235401   1.930   5.976  10.829 -0.0730 -0.1710 -0.0013
 4637TIP3    H135402   1.927   6.061  10.785  0.8557 -0.0398  0.1789
 4637TIP3    H235403   2.023   5.962  10.849 -0.3398 -0.7500  0.8901
 4638TIP3   OH235404   3.097   1.386  12.830  0.0658  0.1109 -1.0579
 4638TIP3    H135405   3.035   1.447  12.868  0.1468 -1.7494  2.2199
 4638TIP3    H235406   3.183   1.417  12.861  0.0954 -1.6626  0.7171
 4639TIP3   OH235407   2.091   1.070   0.490 -0.6270 -0.6963 -0.7671
 4639TIP3    H135408   2.097   1.054   0.584 -2.3353 -1.2496 -0.7304
 4639TIP3    H235409   2.182   1.076   0.461 -0.0920  0.2124  1.0280
 4640TIP3   OH235410   5.996   3.405  10.422  0.0638  1.0329 -0.2405
 4640TIP3    H135411   5.990   3.337  10.490  1.1807  0.8035 -0.3695
 4640TIP3    H235412   5.908   3.409  10.385 -0.4196  0.7782  0.8584
 4641TIP3   OH235413   3.011   2.028   2.972  0.1300 -0.1596  0.4484
 4641TIP3    H135414   2.940   2.052   2.913  1.5450  4.1645  0.3600
 4641TIP3    H235415   2.968   1.976   3.040 -2.1324 -2.1415 -2.3636
 4642TIP3   OH235416   4.008   3.995   1.512 -0.2451  0.2383  0.1409
 4642TIP3    H135417   3.973   3.906   1.523 -3.4215  1.3478 -0.4034
 4642TIP3    H235418   4.011   4.030   1.601  1.0059 -0.3987  0.3560
 4643TIP3   OH235419   3.121   2.258   1.477 -0.7844  0.7280 -0.0609
 4643TIP3    H135420   3.180   2.326   1.511  0.1165 -0.1121  0.0675
 4643TIP3    H235421   3.051   2.308   1.434 -0.6842  1.7546  0.9349
 4644TIP3   OH235422   3.102   4.436   2.756  0.5714 -0.1870  0.0890
 4644TIP3    H135423   3.170   4.442   2.689  0.5982 -0.6804  0.0760
 4644TIP3    H235424   3.149   4.454   2.838  0.5928  0.1252  0.0102
 4645TIP3   OH235425   5.597   4.595  11.274  0.5195  0.7753 -0.1510
 4645TIP3    H135426   5.650   4.595  11.194  1.1389  2.9623  0.2373
 4645TIP3    H235427   5.583   4.687  11.293 -1.2027  0.2315  1.2468
 4646TIP3   OH235428   1.406   2.185   2.697  0.1470 -0.0148 -0.4967
 4646TIP3    H135429   1.404   2.236   2.778  2.3616  0.2667 -0.6045
 4646TIP3    H235430   1.326   2.212   2.650 -0.2098  1.1763  0.7533
 4647TIP3   OH235431   3.421   3.987   4.975  0.1408 -0.0992  0.3230
 4647TIP3    H135432   3.460   4.073   4.993  2.6796 -1.0272 -0.5169
 4647TIP3    H235433   3.456   3.963   4.889 -1.0321 -1.6979  0.2869
 4648TIP3   OH235434   0.350   4.080   2.131  0.1522 -0.1020 -0.4699
 4648TIP3    H135435   0.416   4.065   2.198 -0.3971 -1.4190 -0.1891
 4648TIP3    H235436   0.268   4.090   2.180 -0.1947 -0.7224 -0.9075
 4649TIP3   OH235437   5.771   6.567   2.613 -0.2319 -0.4821 -0.0536
 4649TIP3    H135438   5.808   6.520   2.538  0.6308 -0.1634  0.1630
 4649TIP3    H235439   5.845   6.616   2.649 -1.2221  1.5003 -0.6257
 4650TIP3   OH235440   5.128   0.487  13.885 -0.1118 -0.0987 -0.1121
 4650TIP3    H135441   5.122   0.498  13.790  1.5883  1.4503 -0.0750
 4650TIP3    H235442   5.148   0.394  13.898  1.8240  0.1161 -1.3920
 4651TIP3   OH235443   5.226   2.302   3.718  0.2452  0.0174 -0.6532
 4651TIP3    H135444   5.299   2.247   3.687  0.6801  0.1775  0.0625
 4651TIP3    H235445   5.169   2.310   3.642  0.1859 -1.4095 -0.7855
 4652TIP3   OH235446   5.169   1.932   4.501 -0.4718  0.0403 -0.3184
 4652TIP3    H135447   5.143   1.841   4.492 -2.3958  0.5986 -0.7058
 4652TIP3    H235448   5.171   1.947   4.596 -0.7819 -0.2286 -0.2704
 4653TIP3   OH235449   2.852   1.747  16.067  0.4262  0.2763  0.2237
 4653TIP3    H135450   2.791   1.740  15.993  0.3940 -0.4050  0.3123
 4653TIP3    H235451   2.828   1.829  16.110 -0.3188  0.1016  0.1564
 4654TIP3   OH235452   1.946   3.743   0.899  0.4888  0.9010  0.4505
 4654TIP3    H135453   1.902   3.766   0.980  0.0367 -2.2225  1.1667
 4654TIP3    H235454   1.884   3.687   0.853  0.8715  2.3717 -1.9479
 4655TIP3   OH235455   5.983   0.048  14.245 -0.1631  0.1728  0.0031
 4655TIP3    H135456   6.051   0.066  14.311 -0.6133 -1.2599  0.8674
 4655TIP3    H235457   5.901   0.071  14.289 -0.3293  0.9509 -0.6989
 4656TIP3   OH235458   6.267   3.462   2.912  0.0363 -0.3950  0.0418
 4656TIP3    H135459   6.283   3.473   2.818 -1.5948  0.4433 -0.1708
 4656TIP3    H235460   6.236   3.372   2.921  0.6790 -0.6369 -0.1484
 4657TIP3   OH235461   4.361   6.293  11.404 -0.1811 -0.7893 -0.0827
 4657TIP3    H135462   4.290   6.283  11.341 -0.9007  0.2063  0.5616
 4657TIP3    H235463   4.419   6.219  11.387  0.2364  0.0912 -2.6797
 4658TIP3   OH235464   5.090   2.965  17.008  0.0812 -0.1362 -0.2272
 4658TIP3    H135465   4.999   2.986  17.029  1.4391  2.4144  3.7167
 4658TIP3    H235466   5.098   2.871  17.027 -2.1202 -0.7947 -2.3902
 4659TIP3   OH235467   4.800   6.747  13.745  0.3341 -0.5574  0.2654
 4659TIP3    H135468   4.876   6.778  13.694  0.8135 -1.8013  0.2068
 4659TIP3    H235469   4.736   6.720  13.679 -2.1383  4.8728  0.1726
 4660TIP3   OH235470   3.238   4.153  17.209  0.6058 -0.1482  0.0352
 4660TIP3    H135471   3.160   4.206  17.222  1.4451  1.7718 -2.3755
 4660TIP3    H235472   3.209   4.063  17.224 -1.5406  0.7314  1.2859
 4661TIP3   OH235473   5.853   0.406  13.221  0.0351 -0.0113 -0.6466
 4661TIP3    H135474   5.872   0.477  13.160  0.5045  0.7518  0.3759
 4661TIP3    H235475   5.800   0.344  13.170  1.9044 -0.2628 -2.3672
 4662TIP3   OH235476   3.522   4.447   3.621  0.1348  0.3460  0.4290
 4662TIP3    H135477   3.586   4.395   3.670  0.8107  0.3219 -0.4451
 4662TIP3    H235478   3.523   4.533   3.663 -0.9793 -0.3297  1.8746
 4663TIP3   OH235479   3.821   5.937   1.861 -0.2444  0.1053 -0.4256
 4663TIP3    H135480   3.873   5.989   1.801 -2.8394  2.3989 -0.7581
 4663TIP3    H235481   3.849   5.965   1.948  1.0262 -0.7164 -0.5483
 4664TIP3   OH235482   3.707   0.893  11.509 -0.0159  0.3631 -0.0581
 4664TIP3    H135483   3.741   0.981  11.492 -1.6333  1.3149  1.3917
 4664TIP3    H235484   3.748   0.867  11.591  1.1772 -0.6404 -0.9609
 4665TIP3   OH235485   6.144   5.713   6.677  0.1720  0.1126 -0.0335
 4665TIP3    H135486   6.180   5.666   6.603 -1.6249 -0.1976 -0.7404
 4665TIP3    H235487   6.051   5.725   6.656  0.0770  1.8891  1.1914
 4666TIP3   OH235488   6.438   4.166   4.418  0.2493  0.4592 -0.2945
 4666TIP3    H135489   6.464   4.075   4.399  0.3113  0.2251  0.9130
 4666TIP3    H235490   6.344   4.167   4.402  0.3961  0.4142 -1.2023
 4667TIP3   OH235491   5.481   4.938  16.581  0.4766  0.0644 -0.2146
 4667TIP3    H135492   5.484   4.849  16.616  0.8033  1.0654  2.4702
 4667TIP3    H235493   5.399   4.974  16.614  0.5947  0.9286 -0.8494
 4668TIP3   OH235494   2.764   3.943  12.716 -0.2832 -0.3716 -0.0604
 4668TIP3    H135495   2.670   3.940  12.733  0.0138  0.0244  1.7809
 4668TIP3    H235496   2.783   3.859  12.673 -1.4666 -0.4460 -0.4712
 4669TIP3   OH235497   1.468   3.162  16.565 -0.1650 -0.4039 -0.3507
 4669TIP3    H135498   1.413   3.112  16.625 -0.8674  1.5499  0.6858
 4669TIP3    H235499   1.427   3.248  16.561  2.8549  1.1604  0.5318
 4670TIP3   OH235500   4.899   1.953  15.794  0.3490  0.3303 -0.4920
 4670TIP3    H135501   4.977   1.952  15.850  0.5298 -0.1619 -0.7455
 4670TIP3    H235502   4.924   2.007  15.719  1.6401 -2.6060 -2.2418
 4671TIP3   OH235503   0.744   6.353   2.347 -0.4638 -0.0580  0.6204
 4671TIP3    H135504   0.796   6.344   2.268 -0.9544  1.5942  0.0891
 4671TIP3    H235505   0.695   6.271   2.353 -1.2436  0.2247 -1.3993
 4672TIP3   OH235506   4.303   2.492  15.062 -0.4617  0.7094 -0.4301
 4672TIP3    H135507   4.265   2.520  15.146  1.3164  1.3444  0.1815
 4672TIP3    H235508   4.385   2.541  15.055  0.2842 -0.6809 -1.6973
 4673TIP3   OH235509   5.311   2.681   5.244 -0.0719 -0.3024 -0.1740
 4673TIP3    H135510   5.240   2.645   5.191 -0.1955  0.5510 -0.5890
 4673TIP3    H235511   5.348   2.605   5.289 -3.8705 -0.2579  3.2404
 4674TIP3   OH235512   0.619   6.019  12.340  0.2858  0.0640 -0.1812
 4674TIP3    H135513   0.528   6.037  12.319  0.1222 -0.9452 -0.3951
 4674TIP3    H235514   0.615   5.960  12.415  0.7104 -1.0092 -0.9750
 4675TIP3   OH235515   4.682   3.141  14.453 -0.0405  0.3722  0.2282
 4675TIP3    H135516   4.696   3.065  14.398 -0.2417  1.0771 -0.8021
 4675TIP3    H235517   4.684   3.106  14.543  0.2002 -0.7806 -0.2183
 4676TIP3   OH235518   4.640   4.037  13.653 -0.0986  0.2655  0.0498
 4676TIP3    H135519   4.707   4.104  13.671 -0.0929  0.8565 -2.0212
 4676TIP3    H235520   4.571   4.085  13.607 -0.8900 -0.8156  0.1073
 4677TIP3   OH235521   6.113   3.790  14.947  0.1507  0.5992  0.7032
 4677TIP3    H135522   6.177   3.752  14.886 -0.7607  0.4695 -0.1771
 4677TIP3    H235523   6.162   3.857  14.994  0.6318  1.3353 -0.8203
 4678TIP3   OH235524   3.415   5.021   3.795 -0.1583 -0.3687 -0.4555
 4678TIP3    H135525   3.450   5.003   3.707 -0.9668  1.4052 -1.1672
 4678TIP3    H235526   3.358   5.097   3.783 -1.2296 -0.8457  1.4022
 4679TIP3   OH235527   1.828   4.656   2.946  0.2105 -0.1715  0.3249
 4679TIP3    H135528   1.749   4.605   2.931 -0.5116  0.9364  0.2560
 4679TIP3    H235529   1.893   4.621   2.885 -0.4414 -0.6283 -0.0977
 4680TIP3   OH235530   3.909   0.566  15.465  1.2264  0.4586  0.2449
 4680TIP3    H135531   3.945   0.594  15.549  1.2608 -1.0150  0.7363
 4680TIP3    H235532   3.850   0.494  15.486  0.4868  0.6983 -0.9030
 4681TIP3   OH235533   2.224   3.867  12.453 -0.1519  0.0594 -0.0964
 4681TIP3    H135534   2.307   3.866  12.501  0.3724  0.7305 -0.9829
 4681TIP3    H235535   2.205   3.959  12.439 -0.8164 -0.1070 -0.2939
 4682TIP3   OH235536   6.239   0.451  13.640  0.2693 -0.5628  0.1146
 4682TIP3    H135537   6.164   0.453  13.700  0.9243  1.3337  0.9421
 4682TIP3    H235538   6.309   0.409  13.691  1.2776  2.4141  1.3312
 4683TIP3   OH235539   4.253   5.981  11.409 -0.1568 -0.2511 -0.0694
 4683TIP3    H135540   4.220   6.009  11.324  0.9258 -0.3760 -0.5482
 4683TIP3    H235541   4.338   6.026  11.417 -0.2845 -0.1898  0.9664
 4684TIP3   OH235542   5.500   4.953   6.129  0.0266  0.0640 -0.6803
 4684TIP3    H135543   5.451   5.035   6.118 -0.2763  0.2511  1.7368
 4684TIP3    H235544   5.566   4.974   6.195 -0.7551 -1.9454  0.7786
 4685TIP3   OH235545   0.569   6.057  13.286  0.2505 -0.3075 -0.4322
 4685TIP3    H135546   0.569   5.975  13.335  0.5159 -0.6400 -0.9861
 4685TIP3    H235547   0.615   6.119  13.343  1.0612 -0.8393 -0.5001
 4686TIP3   OH235548   5.641   3.453  14.852 -0.0671  0.0046  0.8249
 4686TIP3    H135549   5.697   3.468  14.928 -0.0919 -2.4296  1.3682
 4686TIP3    H235550   5.659   3.363  14.826 -1.9737 -0.0418 -0.4576
 4687TIP3   OH235551   1.588   0.977  13.560  0.2777  0.0162 -0.2787
 4687TIP3    H135552   1.633   1.026  13.629 -1.8183  1.4628  0.0865
 4687TIP3    H235553   1.548   0.903  13.606 -2.5464  1.9137  0.3676
 4688TIP3   OH235554   3.306   1.109  13.167 -0.2405  0.1223  0.2061
 4688TIP3    H135555   3.220   1.122  13.127  0.0166 -1.0127 -0.7378
 4688TIP3    H235556   3.364   1.093  13.093  1.0097  2.0381  0.7529
 4689TIP3   OH235557   6.541   3.882  12.351 -0.2651 -0.7223  0.3131
 4689TIP3    H135558   6.637   3.874  12.351 -0.2215 -0.3933 -1.4696
 4689TIP3    H235559   6.511   3.810  12.295 -0.8733  0.8359 -1.4250
 4690TIP3   OH235560   2.100   4.112   0.391 -0.3663  0.6596 -0.0091
 4690TIP3    H135561   2.007   4.089   0.385 -0.1497 -0.4308  0.7402
 4690TIP3    H235562   2.147   4.034   0.362  0.3236  1.1550 -0.2404
 4691TIP3   OH235563   4.704   1.428  13.664  0.3592 -0.4450  0.3479
 4691TIP3    H135564   4.637   1.496  13.675  0.4700 -0.2242 -0.3031
 4691TIP3    H235565   4.710   1.386  13.750  0.4332  0.5036  0.8124
 4692TIP3   OH235566   3.064   6.059  16.624  0.3267 -0.6583  0.3857
 4692TIP3    H135567   3.052   6.133  16.683  1.5063  0.4017 -0.6717
 4692TIP3    H235568   3.115   5.996  16.674  1.8608  0.4935  0.3174
 4693TIP3   OH235569   2.585   3.567  12.521  0.0657 -0.0824 -0.8140
 4693TIP3    H135570   2.545   3.513  12.452 -1.6052  1.1825 -0.8614
 4693TIP3    H235571   2.585   3.510  12.598 -0.7878 -0.4843 -1.1032
 4694TIP3   OH235572   0.631   2.257  15.816 -0.6363  0.0827 -0.7089
 4694TIP3    H135573   0.697   2.249  15.884 -0.6436 -1.6024 -0.8846
 4694TIP3    H235574   0.653   2.339  15.771  0.1776  0.5064  0.4364
 4695TIP3   OH235575   3.632   5.428   5.562  0.1357 -0.5050 -0.6584
 4695TIP3    H135576   3.552   5.376   5.575  0.4443 -1.1363 -1.2533
 4695TIP3    H235577   3.640   5.437   5.467 -0.1243  0.9751 -0.5485
 4696TIP3   OH235578   4.024   6.703  12.088 -0.4688 -0.0671  0.1662
 4696TIP3    H135579   4.041   6.788  12.129 -0.2732 -0.1510  0.2607
 4696TIP3    H235580   4.063   6.711  12.001  0.5450 -0.4527  0.5789
 4697TIP3   OH235581   1.708   3.317   4.414  0.2631  0.2995 -0.2843
 4697TIP3    H135582   1.673   3.231   4.390  0.2683 -0.0326  0.8927
 4697TIP3    H235583   1.695   3.323   4.508  2.7314  0.4652  0.0687
 4698TIP3   OH235584   6.218   6.258  10.623  0.9672 -0.2889  0.4841
 4698TIP3    H135585   6.294   6.202  10.606  0.8494  0.1345 -1.5124
 4698TIP3    H235586   6.143   6.199  10.617  0.8498  0.0598 -1.5312
 4699TIP3   OH235587   6.602   6.410  15.322  0.1129  0.1539  0.2007
 4699TIP3    H135588   6.524   6.390  15.270 -0.1166  0.9694  0.2363
 4699TIP3    H235589   6.617   6.330  15.372  0.9747 -1.0595 -1.9090
 4700TIP3   OH235590   6.706   3.745  15.525 -0.4625 -0.2878  0.2619
 4700TIP3    H135591   6.779   3.795  15.561 -1.0929  0.4386  0.5654
 4700TIP3    H235592   6.742   3.659  15.505  0.5609  0.1866  0.0457
 4701TIP3   OH235593   1.392   3.607  12.988  0.3982  0.3877  0.1395
 4701TIP3    H135594   1.380   3.598  13.082 -1.7153 -2.3828 -0.3205
 4701TIP3    H235595   1.310   3.646  12.957  1.0682  1.2554 -0.5938
 4702TIP3   OH235596   5.267   2.523   1.374  0.3814 -0.1505 -0.6768
 4702TIP3    H135597   5.221   2.605   1.391  1.8585  0.4316  0.5864
 4702TIP3    H235598   5.208   2.455   1.408  0.1194  0.5460  0.2908
 4703TIP3   OH235599   5.253   5.474  10.723 -0.3571 -0.2831 -0.2029
 4703TIP3    H135600   5.313   5.420  10.672 -0.1081  0.3100 -0.5415
 4703TIP3    H235601   5.198   5.412  10.771 -0.6734 -0.8445 -1.2874
 4704TIP3   OH235602   1.764   4.455   4.729  0.0443  0.2998 -0.2380
 4704TIP3    H135603   1.698   4.511   4.688 -0.4071 -0.4459 -0.5481
 4704TIP3    H235604   1.797   4.400   4.657 -0.2911 -0.5680  0.2633
 4705TIP3   OH235605   3.739   1.258  11.944 -0.2016  0.3399  0.0318
 4705TIP3    H135606   3.701   1.227  12.027  0.0923 -0.9604 -0.3049
 4705TIP3    H235607   3.676   1.230  11.878 -0.2401  1.0305 -0.2257
 4706TIP3   OH235608   6.437   1.332   0.372  0.3869  0.5020  0.0105
 4706TIP3    H135609   6.347   1.303   0.357  0.8760 -0.4792 -1.0917
 4706TIP3    H235610   6.486   1.251   0.387  1.0833  1.0374  0.6825
 4707TIP3   OH235611   3.316   3.080   6.094  0.1680 -0.3227  0.1116
 4707TIP3    H135612   3.369   3.160   6.102 -0.6160  0.1348  0.7362
 4707TIP3    H235613   3.228   3.112   6.073 -0.7224 -0.8811  2.8100
 4708TIP3   OH235614   6.691   2.651   3.271 -0.1520 -0.0303  1.0040
 4708TIP3    H135615   6.661   2.575   3.222  2.0775 -0.0461 -0.3933
 4708TIP3    H235616   6.712   2.716   3.204 -0.2195  1.1243  2.0919
 4709TIP3   OH235617   3.048   3.296  13.763  0.3965 -0.3814  0.1493
 4709TIP3    H135618   3.034   3.317  13.670  1.5725 -2.2980 -0.5001
 4709TIP3    H235619   2.963   3.267  13.794 -0.2062  1.0934 -0.0980
 4710TIP3   OH235620   5.952   1.054  12.795  0.3130  0.0231  0.4341
 4710TIP3    H135621   5.919   1.042  12.706  2.2219  0.9082 -0.4119
 4710TIP3    H235622   5.875   1.077  12.846 -0.5186  1.2508 -1.3292
 4711TIP3   OH235623   1.586   1.736   5.603  1.0041  0.2226 -0.4148
 4711TIP3    H135624   1.635   1.751   5.684  1.2586  1.6097 -0.8169
 4711TIP3    H235625   1.598   1.816   5.552  0.2489 -0.3527 -1.5222
 4712TIP3   OH235626   0.716   1.496   6.246 -0.0240 -0.1287  0.1332
 4712TIP3    H135627   0.766   1.451   6.314 -1.4278 -2.0148 -0.0589
 4712TIP3    H235628   0.754   1.584   6.244  1.3978 -0.6543  1.9352
 4713TIP3   OH235629   6.093   5.139  16.586  0.2477  0.3221 -0.2185
 4713TIP3    H135630   6.186   5.160  16.591  0.3957 -0.0180 -1.2605
 4713TIP3    H235631   6.062   5.185  16.508 -0.0206 -1.0987 -0.9788
 4714TIP3   OH235632   4.437   2.122   3.612  0.0863  0.1098 -0.0497
 4714TIP3    H135633   4.469   2.039   3.575  1.3593  0.3853  0.3970
 4714TIP3    H235634   4.454   2.186   3.543  2.2769  0.5888  0.9055
 4715TIP3   OH235635   1.545   1.888  13.372  0.8140  0.0765  0.3275
 4715TIP3    H135636   1.538   1.980  13.398 -1.5226 -0.1498  0.5721
 4715TIP3    H235637   1.586   1.891  13.285  0.8305  1.3279  0.3703
 4716TIP3   OH235638   4.240   1.758  14.243 -0.2779  0.3770 -0.3888
 4716TIP3    H135639   4.231   1.663  14.247  0.6495  0.3100  0.3960
 4716TIP3    H235640   4.166   1.791  14.294  0.2964  0.0196  0.7014
 4717TIP3   OH235641   0.863   0.469   2.446  0.1574 -0.2665 -0.1637
 4717TIP3    H135642   0.796   0.400   2.447 -0.0548 -0.0579  0.0456
 4717TIP3    H235643   0.871   0.495   2.538 -0.1962  0.4120 -0.3207
 4718TIP3   OH235644   0.344   6.441  15.046  0.2300 -0.0975  0.2155
 4718TIP3    H135645   0.340   6.426  14.951 -2.2144 -0.1678  0.3078
 4718TIP3    H235646   0.290   6.372  15.084 -2.0469  2.2487  1.3806
 4719TIP3   OH235647   5.115   2.855   0.047  0.4544 -0.4823  0.0053
 4719TIP3    H135648   5.094   2.947   0.030  2.8247  0.1121  0.1647
 4719TIP3    H235649   5.042   2.807   0.009 -0.4734  1.4410 -0.7117
 4720TIP3   OH235650   4.792   2.452   0.461 -0.0101  0.3590  0.1100
 4720TIP3    H135651   4.765   2.542   0.444  1.3243  0.6928 -0.2610
 4720TIP3    H235652   4.880   2.445   0.425 -1.0412 -1.8289 -2.1428
 4721TIP3   OH235653   0.475   0.783   1.130  0.1546  0.1532 -0.2808
 4721TIP3    H135654   0.402   0.771   1.190 -0.1637  1.2273 -0.4447
 4721TIP3    H235655   0.455   0.864   1.083  2.1707  1.2392  0.6929
 4722TIP3   OH235656   4.539   5.952   1.892  0.5432  0.6083 -0.3051
 4722TIP3    H135657   4.496   5.882   1.941 -1.6917  1.9291 -0.3337
 4722TIP3    H235658   4.616   5.910   1.854  1.4260 -0.8719  2.8959
 4723TIP3   OH235659   3.715   3.848  15.973  0.1629  0.2828  0.0570
 4723TIP3    H135660   3.767   3.887  15.903  1.3622  0.6956  1.1634
 4723TIP3    H235661   3.624   3.866  15.948  0.5817  0.6526 -1.2460
 4724TIP3   OH235662   3.525   0.321  15.833  0.3549 -0.1665  0.1045
 4724TIP3    H135663   3.465   0.329  15.907  0.6116 -4.0596  0.7952
 4724TIP3    H235664   3.601   0.373  15.858 -1.2986  2.1162  0.6285
 4725TIP3   OH235665   3.638   5.027  11.942  0.2228  0.1115 -0.6496
 4725TIP3    H135666   3.647   4.967  11.868  1.9783  0.5879 -0.8422
 4725TIP3    H235667   3.687   5.106  11.915  0.1612  0.6048  0.6588
 4726TIP3   OH235668   2.531   6.520  14.411  0.5223 -0.2035 -0.1511
 4726TIP3    H135669   2.513   6.514  14.317  1.4354  0.7179 -0.3941
 4726TIP3    H235670   2.494   6.440  14.448  0.0073 -0.4901 -1.2711
 4727TIP3   OH235671   2.390   0.159   2.793 -0.3967  0.7035 -0.1282
 4727TIP3    H135672   2.347   0.245   2.784 -1.1840  0.3248 -0.0230
 4727TIP3    H235673   2.379   0.118   2.708 -1.9063 -0.1482  0.4538
 4728TIP3   OH235674   0.112   1.512   2.552 -0.0592 -0.2861 -0.4497
 4728TIP3    H135675   0.139   1.427   2.588 -2.3064 -0.3989  1.0335
 4728TIP3    H235676   0.103   1.569   2.628  2.1077  1.5405 -1.4793
 4729TIP3   OH235677   6.740   1.257  14.153 -0.2794  0.0936 -0.0354
 4729TIP3    H135678   6.766   1.169  14.180  0.9862  0.0508 -1.2829
 4729TIP3    H235679   6.708   1.299  14.232 -0.9194 -1.5041  0.5654
 4730TIP3   OH235680   2.280   3.483   5.390  0.8407  0.4179 -0.5046
 4730TIP3    H135681   2.299   3.565   5.344 -1.3921  0.6141 -1.1398
 4730TIP3    H235682   2.212   3.442   5.337 -0.4830 -0.2298  1.6530
 4731TIP3   OH235683   4.756   6.391   1.789 -0.0225 -0.0773 -0.5120
 4731TIP3    H135684   4.750   6.319   1.851  1.3945  0.8214  0.7186
 4731TIP3    H235685   4.821   6.362   1.725  2.4857  1.0871  1.4218
 4732TIP3   OH235686   6.534   1.590   0.343  0.2994  0.0920  0.0474
 4732TIP3    H135687   6.516   1.498   0.363 -1.2931  0.2394 -0.6756
 4732TIP3    H235688   6.556   1.629   0.428  0.6168 -0.8701  0.4129
 4733TIP3   OH235689   3.545   5.594   0.960 -0.4149 -0.1682  0.6323
 4733TIP3    H135690   3.549   5.598   0.864 -2.1077  0.0352  0.5650
 4733TIP3    H235691   3.623   5.543   0.984 -0.2431 -0.6635 -0.8724
 4734TIP3   OH235692   1.380   3.968  15.413  0.6127 -0.3646 -0.1242
 4734TIP3    H135693   1.394   3.875  15.429 -0.4055 -0.6485 -0.8174
 4734TIP3    H235694   1.429   3.987  15.334 -0.7153 -0.7644 -1.0708
 4735TIP3   OH235695   5.254   0.920  17.176 -0.0513 -0.1546 -0.4800
 4735TIP3    H135696   5.275   0.837  17.132  0.9233  0.3076 -0.9060
 4735TIP3    H235697   5.307   0.985  17.130  0.6091  0.4158  1.0590
 4736TIP3   OH235698   3.454   0.028  13.669  0.0333 -0.3526  0.6355
 4736TIP3    H135699   3.439  -0.001  13.579 -0.5704  0.6566  0.4134
 4736TIP3    H235700   3.422  -0.044  13.723  2.8401 -2.1359  0.0215
 4737TIP3   OH235701   6.156   2.422  15.979 -0.6111  0.2796 -0.0957
 4737TIP3    H135702   6.106   2.484  15.926  0.5377  1.4642  0.1621
 4737TIP3    H235703   6.092   2.358  16.009 -1.4521  0.1362 -2.1005
 4738TIP3   OH235704   0.821   0.849   6.226 -0.5068 -0.6894 -0.1191
 4738TIP3    H135705   0.726   0.864   6.223 -0.6634 -1.4113  1.2432
 4738TIP3    H235706   0.830   0.754   6.218  0.1117 -0.6289 -0.1382
 4739TIP3   OH235707   5.011   3.805   1.386  0.4056 -0.1231 -0.2365
 4739TIP3    H135708   4.934   3.748   1.396  1.0178 -0.6374  1.8820
 4739TIP3    H235709   4.981   3.877   1.331 -1.6136 -0.3113  0.5717
 4740TIP3   OH235710   1.365   0.539  14.010  0.1928  0.1371  0.4286
 4740TIP3    H135711   1.349   0.470  13.946 -2.0019  1.7735 -0.8764
 4740TIP3    H235712   1.319   0.615  13.975  2.9518  2.4102  1.5977
 4741TIP3   OH235713   2.750   3.183   4.078  0.2703 -0.1063 -0.0089
 4741TIP3    H135714   2.709   3.096   4.083  2.2737 -1.1752 -1.3615
 4741TIP3    H235715   2.738   3.220   4.165 -1.1182 -1.5146  0.4253
 4742TIP3   OH235716   5.412   4.470   2.832 -0.0424  0.1828 -0.1242
 4742TIP3    H135717   5.439   4.474   2.924  1.1607 -0.4142 -0.4450
 4742TIP3    H235718   5.322   4.502   2.833 -0.4672 -0.9662  1.4394
 4743TIP3   OH235719   3.972   0.196   4.849 -0.2246 -0.7641  0.0419
 4743TIP3    H135720   4.035   0.262   4.878 -0.8270 -0.1585 -0.0218
 4743TIP3    H235721   3.982   0.193   4.754  2.8851 -3.8856  0.3486
 4744TIP3   OH235722   1.440   1.404   5.040 -0.4216  0.3933  0.3686
 4744TIP3    H135723   1.350   1.390   5.069  0.1548 -0.0926  1.9781
 4744TIP3    H235724   1.492   1.400   5.120  1.4656 -3.0357 -0.9630
 4745TIP3   OH235725   1.804   6.401  14.575  0.0179  0.4279  0.0381
 4745TIP3    H135726   1.765   6.467  14.632  0.8225 -1.0540  2.3547
 4745TIP3    H235727   1.732   6.344  14.550 -0.0445  0.0369  1.0690
 4746TIP3   OH235728   2.546   6.010  11.906  0.4053 -0.0300  0.5688
 4746TIP3    H135729   2.550   5.981  11.815 -0.6630  0.3097  0.4006
 4746TIP3    H235730   2.637   6.018  11.933  0.7306 -2.3259  0.2371
 4747TIP3   OH235731   3.572   0.744   1.361 -0.1076 -0.9187  0.6089
 4747TIP3    H135732   3.618   0.767   1.280  1.6478 -2.1146  1.2430
 4747TIP3    H235733   3.638   0.699   1.414 -1.8416 -2.0739  1.8136
 4748TIP3   OH235734   6.142   3.430   1.215  0.4878 -0.6065  0.4034
 4748TIP3    H135735   6.069   3.483   1.183  0.2008 -0.4827  1.2469
 4748TIP3    H235736   6.196   3.414   1.137  0.3993  0.6264  0.0728
 4749TIP3   OH235737   3.988   0.404  13.645  0.0573 -0.3465  0.2673
 4749TIP3    H135738   3.912   0.381  13.699 -1.1261  1.2938 -0.6737
 4749TIP3    H235739   3.983   0.343  13.571  1.1726 -1.9962  1.5143
 4750TIP3   OH235740   2.483   5.027   2.540 -0.2416 -0.1681 -0.7776
 4750TIP3    H135741   2.391   5.026   2.566 -0.2356 -2.1828 -0.7983
 4750TIP3    H235742   2.489   4.964   2.468  1.3195 -0.6935 -0.2080
 4751TIP3   OH235743   3.110   5.262  15.786 -0.3564  0.1460  0.6714
 4751TIP3    H135744   3.119   5.319  15.862 -1.4016 -0.0927  0.9726
 4751TIP3    H235745   3.158   5.183  15.809 -0.4275  0.1891  0.9701
 4752TIP3   OH235746   2.796   6.322  16.001  0.6042 -0.4268  0.0736
 4752TIP3    H135747   2.761   6.259  15.938  0.3572  2.0151 -2.3297
 4752TIP3    H235748   2.888   6.331  15.976  0.9665 -0.8463  1.2649
 4753TIP3   OH235749   1.710   0.306   1.263  0.0835 -0.0390  0.3953
 4753TIP3    H135750   1.745   0.345   1.182  0.1997  0.5300  0.7184
 4753TIP3    H235751   1.787   0.292   1.318 -0.0270 -0.1871  0.5131
 4754TIP3   OH235752   5.192   5.266   5.400  0.0680 -0.2609 -0.4448
 4754TIP3    H135753   5.183   5.308   5.314 -1.0085 -1.5855 -0.9930
 4754TIP3    H235754   5.278   5.225   5.397  0.2176  0.0667 -0.7232
 4755TIP3   OH235755   4.787   0.657   4.316 -0.5525 -0.2648 -0.2690
 4755TIP3    H135756   4.843   0.694   4.385 -1.7373  2.0628 -0.5007
 4755TIP3    H235757   4.821   0.696   4.235 -0.4022 -1.4736 -0.7972
 4756TIP3   OH235758   5.074   1.316  10.497  0.5694 -0.3105 -0.4481
 4756TIP3    H135759   5.168   1.331  10.504  0.9259 -2.6882  0.1708
 4756TIP3    H235760   5.064   1.251  10.428 -0.7941  1.2485 -1.7770
 4757TIP3   OH235761   1.949   4.713  14.750  0.1194  0.3406 -0.2533
 4757TIP3    H135762   1.904   4.725  14.667 -0.6778  0.6993  0.2283
 4757TIP3    H235763   2.034   4.677  14.726 -0.6596 -0.9532 -1.1177
 4758TIP3   OH235764   0.936   0.652  14.681 -0.5349 -0.2412 -0.2502
 4758TIP3    H135765   0.945   0.727  14.739 -2.1922 -1.3594  1.5157
 4758TIP3    H235766   1.022   0.645  14.638  0.6831  0.7574  1.9024
 4759TIP3   OH235767   3.176   3.097  15.411  0.3572 -0.2327 -0.4885
 4759TIP3    H135768   3.097   3.044  15.424  1.0531 -1.1225  0.1450
 4759TIP3    H235769   3.143   3.182  15.382 -0.9583 -0.0119  1.5051
 4760TIP3   OH235770   4.939   0.311   4.439  0.2090  0.5577 -0.6858
 4760TIP3    H135771   5.011   0.262   4.402  2.0993 -0.2174  3.7414
 4760TIP3    H235772   4.869   0.247   4.451  0.6479  0.1629 -0.2122
 4761TIP3   OH235773   0.541   1.048  13.231 -0.0122  0.3538  0.1866
 4761TIP3    H135774   0.556   1.039  13.137 -1.6383 -0.4523 -0.0055
 4761TIP3    H235775   0.616   1.004  13.272 -0.2641 -0.9657 -0.7409
 4762TIP3   OH235776   5.598   4.691  16.383  0.2633 -0.2485  0.2326
 4762TIP3    H135777   5.529   4.625  16.369  0.6483 -0.3202 -1.3605
 4762TIP3    H235778   5.627   4.715  16.295 -0.2963  2.5250  0.7563
 4763TIP3   OH235779   3.938   3.140  11.597 -0.3637 -0.2331 -0.2032
 4763TIP3    H135780   3.871   3.172  11.658 -0.3823  0.4226 -0.5639
 4763TIP3    H235781   4.021   3.167  11.636 -0.2917 -1.3812  0.4360
 4764TIP3   OH235782   0.433   1.994  17.113 -0.4937 -0.3036  0.1530
 4764TIP3    H135783   0.443   2.056  17.186  1.1757 -0.7201  0.2897
 4764TIP3    H235784   0.466   2.041  17.037 -0.1580 -0.6739  0.0693
 4765TIP3   OH235785   0.291   3.705   3.353 -0.3321  0.6303 -0.3178
 4765TIP3    H135786   0.327   3.616   3.349  0.9688  1.1085  0.1954
 4765TIP3    H235787   0.299   3.730   3.445 -0.4092  1.3783 -0.5092
 4766TIP3   OH235788   0.839   0.883  17.285  0.4705  0.2386 -0.7576
 4766TIP3    H135789   0.798   0.938  17.217 -2.2502  1.9512  2.1447
 4766TIP3    H235790   0.796   0.798  17.276 -1.2107  0.9885 -0.0599
 4767TIP3   OH235791   0.393   5.987   0.045 -0.1131 -0.3672  0.0758
 4767TIP3    H135792   0.488   5.996   0.048  0.0337 -1.8382  0.2368
 4767TIP3    H235793   0.371   5.995  -0.048  0.3245 -1.5134 -0.1224
 4768TIP3   OH235794   6.488   1.695  17.032  0.0714  0.4797 -0.0180
 4768TIP3    H135795   6.465   1.687  16.940 -1.2060  1.7609  0.1760
 4768TIP3    H235796   6.547   1.770  17.036 -1.0001  1.3183  0.3830
 4769TIP3   OH235797   1.943   0.141  14.700 -0.0100 -0.4089  0.4401
 4769TIP3    H135798   2.038   0.141  14.713 -0.0072  0.0324  0.4451
 4769TIP3    H235799   1.907   0.110  14.783  0.0906  0.4453  0.8139
 4770TIP3   OH235800   5.402   1.944   2.076 -0.0064 -0.4453  0.1763
 4770TIP3    H135801   5.307   1.934   2.084  0.2157 -0.9109  2.4645
 4770TIP3    H235802   5.432   1.963   2.164  1.8175  1.8673 -0.9008
 4771TIP3   OH235803   5.991   2.728  14.488 -0.0385 -0.2488 -0.1695
 4771TIP3    H135804   6.006   2.820  14.466  1.1194 -0.7580 -1.6037
 4771TIP3    H235805   6.069   2.702  14.537 -1.2244  0.0339  1.9170
 4772TIP3   OH235806   4.046   5.362   1.186  0.7543  0.1985  0.1139
 4772TIP3    H135807   4.025   5.281   1.233  0.6891  1.0167  1.5256
 4772TIP3    H235808   3.964   5.389   1.146  0.8977 -0.7106 -0.8226
 4773TIP3   OH235809   4.058   5.823   6.120 -0.0342  0.1412 -0.0357
 4773TIP3    H135810   4.064   5.778   6.204  0.7962  0.6316  0.1774
 4773TIP3    H235811   4.107   5.904   6.133 -0.2692  0.4190 -0.8585
 4774TIP3   OH235812   2.788   5.900  11.093  0.1966  0.4494 -0.1891
 4774TIP3    H135813   2.873   5.931  11.122  0.7026 -0.1657 -0.9995
 4774TIP3    H235814   2.780   5.812  11.131  0.1057  0.3428 -0.4488
 4775TIP3   OH235815   1.964   6.255  10.854  0.1685  0.4593 -0.6473
 4775TIP3    H135816   1.936   6.346  10.866  0.8676  0.5118  0.6073
 4775TIP3    H235817   2.037   6.244  10.914  0.6402 -0.6935 -1.4142
 4776TIP3   OH235818   5.255   2.504   3.168  0.5896 -0.0475  0.3111
 4776TIP3    H135819   5.239   2.426   3.220 -1.8808  0.8269  0.9430
 4776TIP3    H235820   5.224   2.577   3.223  1.9756  1.2891 -0.6297
 4777TIP3   OH235821   6.482   1.971  14.026 -0.4713  0.2185  0.0102
 4777TIP3    H135822   6.515   1.912  13.958 -1.2673 -0.1294 -0.0784
 4777TIP3    H235823   6.416   2.024  13.981  0.9070  1.8505 -0.1616
 4778TIP3   OH235824   5.623   3.329   6.071  0.1806  0.0021 -0.2052
 4778TIP3    H135825   5.543   3.281   6.091  0.0363  0.5154  0.4515
 4778TIP3    H235826   5.593   3.415   6.042  0.4319 -0.3578 -1.5814
 4779TIP3   OH235827   6.363   5.459   5.226 -0.2608 -0.2814 -0.3934
 4779TIP3    H135828   6.293   5.402   5.194 -1.3604  1.3459 -0.9821
 4779TIP3    H235829   6.339   5.479   5.316 -0.4590  0.1219 -0.5344
 4780TIP3   OH235830   3.942   0.447   3.083  0.3097 -0.1692  0.4799
 4780TIP3    H135831   4.007   0.490   3.139 -1.3580  2.3450  0.5501
 4780TIP3    H235832   3.922   0.512   3.015 -1.6805 -1.1239  0.1255
 4781TIP3   OH235833   5.653   5.804  14.104 -0.0696  0.0923 -0.2232
 4781TIP3    H135834   5.567   5.837  14.081 -0.5316  0.1463  1.4960
 4781TIP3    H235835   5.713   5.874  14.077 -0.6781  0.5832 -0.3196
 4782TIP3   OH235836   3.728   5.683   3.426 -0.8351  0.0643  0.0933
 4782TIP3    H135837   3.791   5.661   3.494  0.6605  1.7716 -0.7009
 4782TIP3    H235838   3.695   5.769   3.451 -0.9510  0.3019 -0.8590
 4783TIP3   OH235839   1.429   1.379  16.660 -0.0043 -0.2427  0.0024
 4783TIP3    H135840   1.340   1.352  16.639 -0.5436 -0.2209  2.1421
 4783TIP3    H235841   1.467   1.403  16.576 -2.4702  1.0530 -0.7939
 4784TIP3   OH235842   4.553   5.394  15.812  0.2821  0.1851  0.6737
 4784TIP3    H135843   4.543   5.482  15.848 -1.9443 -0.0957  0.8334
 4784TIP3    H235844   4.466   5.372  15.778  1.2805 -1.2234 -1.0772
 4785TIP3   OH235845   2.771   5.834  14.941  0.0807 -0.7286 -0.1846
 4785TIP3    H135846   2.745   5.745  14.966  0.4220 -0.9785 -0.7114
 4785TIP3    H235847   2.822   5.865  15.016  0.1812 -1.0723 -0.1085
 4786TIP3   OH235848   1.031   5.987  11.257  0.1557  0.0932 -0.0990
 4786TIP3    H135849   0.986   5.958  11.337  0.2513 -0.4926 -0.2499
 4786TIP3    H235850   1.048   6.080  11.271 -0.7921  0.2399  0.1061
 4787TIP3   OH235851   3.245   2.885   5.825 -0.1909  0.0730  0.4888
 4787TIP3    H135852   3.309   2.884   5.896 -0.2589 -0.8729  0.5388
 4787TIP3    H235853   3.231   2.978   5.808  2.0976  0.2896 -0.3549
 4788TIP3   OH235854   2.450   3.314   0.633 -0.5617  0.5757  0.1855
 4788TIP3    H135855   2.387   3.361   0.687 -1.2779 -0.7081  0.4732
 4788TIP3    H235856   2.499   3.383   0.588 -0.8147  1.6255  1.4902
 4789TIP3   OH235857   3.665   6.545  16.664 -0.0917 -0.0076  0.0851
 4789TIP3    H135858   3.579   6.503  16.670  0.8004 -1.7430  1.0550
 4789TIP3    H235859   3.652   6.631  16.703 -1.8237  0.4762 -1.4548
 4790TIP3   OH235860   0.153   3.557  13.818  0.3876  0.5309 -0.6574
 4790TIP3    H135861   0.064   3.563  13.850  0.4970 -1.4849  0.1449
 4790TIP3    H235862   0.151   3.485  13.754  1.5716 -0.1135 -0.0104
 4791TIP3   OH235863   1.485   3.440  11.933  0.0195 -0.6452  0.0073
 4791TIP3    H135864   1.552   3.400  11.988 -0.5851 -1.3711  0.2265
 4791TIP3    H235865   1.436   3.498  11.991 -0.7607 -1.5817  0.2945
 4792TIP3   OH235866   1.119   1.551  11.523  0.6252 -0.1158 -0.2273
 4792TIP3    H135867   1.083   1.557  11.434 -1.8156  2.3906  0.8380
 4792TIP3    H235868   1.212   1.534  11.510  0.1194 -0.9726 -3.2291
 4793TIP3   OH235869   5.430   1.994   2.360  0.0345  0.2552  0.6006
 4793TIP3    H135870   5.487   2.033   2.427  0.0809  0.8055  0.2383
 4793TIP3    H235871   5.344   1.989   2.402 -0.3275  2.1557  0.1272
 4794TIP3   OH235872   0.304   6.545  16.584 -0.4974 -0.2612  0.4627
 4794TIP3    H135873   0.254   6.512  16.659 -0.3302 -0.8868  0.3027
 4794TIP3    H235874   0.263   6.629  16.563 -0.6295 -0.1485  1.1709
 4795TIP3   OH235875   5.052   6.360  17.273  0.0846 -0.1729 -0.1079
 4795TIP3    H135876   5.142   6.377  17.300  0.4088 -1.4359 -0.3612
 4795TIP3    H235877   5.004   6.439  17.297  0.7910 -0.4175  2.1498
 4796TIP3   OH235878   6.617   0.496   2.679 -0.2402 -0.7346 -0.5328
 4796TIP3    H135879   6.670   0.487   2.599  1.0919 -0.8129  0.3494
 4796TIP3    H235880   6.605   0.590   2.689 -3.1642 -0.8189 -2.5876
 4797TIP3   OH235881   5.825   4.219   5.219  0.0445  0.1001  0.4479
 4797TIP3    H135882   5.870   4.135   5.213  0.7440  0.4284  0.9859
 4797TIP3    H235883   5.797   4.224   5.311 -0.8796  0.0049  0.1744
 4798TIP3   OH235884   0.558   0.704  16.074  0.2041 -0.4414 -0.6942
 4798TIP3    H135885   0.630   0.766  16.086  2.3816 -2.7482 -1.1634
 4798TIP3    H235886   0.534   0.678  16.163  0.0369  0.2497 -0.5389
 4799TIP3   OH235887   5.964   3.024   2.666 -0.1832 -0.3290 -0.2130
 4799TIP3    H135888   5.959   3.111   2.627 -3.0396  0.1162  1.0711
 4799TIP3    H235889   5.924   2.966   2.601 -2.7780  0.0725  0.9678
 4800TIP3   OH235890   4.710   2.318  15.440  0.0944  0.4300 -0.3503
 4800TIP3    H135891   4.647   2.266  15.489 -0.5831  1.7910  0.2540
 4800TIP3    H235892   4.787   2.323  15.496  0.2087 -0.0273 -0.4667
 4801TIP3   OH235893   3.510   2.229   5.486  0.3694  0.5327 -0.1052
 4801TIP3    H135894   3.601   2.216   5.513  0.5450 -0.5253 -1.1637
 4801TIP3    H235895   3.458   2.192   5.557  0.7778  0.1554 -0.0064
 4802TIP3   OH235896   1.826   0.855  11.689 -0.2705  0.1285 -0.0552
 4802TIP3    H135897   1.768   0.780  11.675 -0.6126  0.3310  0.2417
 4802TIP3    H235898   1.826   0.902  11.605  1.5619 -1.2997 -0.8748
 4803TIP3   OH235899   6.603   1.205   2.585 -0.4898 -0.1848  0.0904
 4803TIP3    H135900   6.645   1.143   2.525 -0.3385  0.6515 -0.6813
 4803TIP3    H235901   6.612   1.165   2.671  1.3921 -0.2830 -0.1342
 4804TIP3   OH235902   4.102   3.870  15.104  0.5073  0.1509 -0.0729
 4804TIP3    H135903   4.141   3.911  15.026 -3.2833  3.7751 -0.2333
 4804TIP3    H235904   4.030   3.817  15.069 -1.5221  2.1862  0.9146
 4805TIP3   OH235905   1.258   3.352   2.866  0.7552  0.0108  0.5106
 4805TIP3    H135906   1.248   3.288   2.795  2.6548 -0.9806  1.1165
 4805TIP3    H235907   1.173   3.351   2.910  0.2159 -0.8520 -0.5147
 4806TIP3   OH235908   6.743   4.261   3.791  0.0649 -0.0428  0.6252
 4806TIP3    H135909   6.770   4.171   3.806 -0.6009 -0.4498 -0.6200
 4806TIP3    H235910   6.706   4.262   3.703 -1.0501  1.1913  1.0841
 4807TIP3   OH235911   6.438   2.572   4.845  0.3583  0.3447  0.1622
 4807TIP3    H135912   6.408   2.515   4.916  1.5706 -2.6477 -1.6403
 4807TIP3    H235913   6.533   2.568   4.850  0.4575  0.3045 -1.4584
 4808TIP3   OH235914   0.823   1.422   4.154  0.1370 -0.2474  0.3724
 4808TIP3    H135915   0.775   1.347   4.188 -1.0056 -0.2013 -1.0736
 4808TIP3    H235916   0.783   1.440   4.069 -0.7537  3.0149  1.3895
 4809TIP3   OH235917   3.038   6.190  17.105 -0.3489 -0.1323 -0.1633
 4809TIP3    H135918   3.074   6.195  17.194  1.6709 -0.5538 -0.9275
 4809TIP3    H235919   2.943   6.199  17.117 -0.2190 -1.4869  2.1329
 4810TIP3   OH235920   1.977   3.509   0.208 -0.3670 -0.0491 -0.3064
 4810TIP3    H135921   2.054   3.454   0.221 -2.8286 -3.4972  0.1655
 4810TIP3    H235922   1.992   3.550   0.123  1.2939 -1.8555 -0.9317
 4811TIP3   OH235923   5.671   2.115  12.393 -0.1771  0.4096 -0.2343
 4811TIP3    H135924   5.621   2.184  12.437  0.1667  1.2045 -1.0826
 4811TIP3    H235925   5.664   2.136  12.300  0.5646 -0.2769 -0.4460
 4812TIP3   OH235926   5.737   2.920  11.347 -0.1465 -0.1507 -0.5846
 4812TIP3    H135927   5.726   2.873  11.265 -0.6812 -2.0490  0.5545
 4812TIP3    H235928   5.704   2.860  11.414 -0.2219  1.5778  0.9676
 4813TIP3   OH235929   1.271   0.704  14.771 -0.6247  0.6611 -0.2888
 4813TIP3    H135930   1.347   0.665  14.729  0.6910  2.3574  0.4430
 4813TIP3    H235931   1.239   0.637  14.831  0.7596  0.1930 -0.0606
 4814TIP3   OH235932   2.737   3.196   1.492 -0.2320 -0.1232 -0.4980
 4814TIP3    H135933   2.753   3.287   1.514 -0.6416 -0.1291 -0.1695
 4814TIP3    H235934   2.665   3.199   1.429  0.1027 -0.1869 -0.8867
 4815TIP3   OH235935   5.686   2.933   4.800 -0.3469 -0.0698  0.3779
 4815TIP3    H135936   5.608   2.989   4.798 -0.7639 -0.6691 -0.7449
 4815TIP3    H235937   5.758   2.994   4.784 -0.8902  0.0390 -1.8384
 4816TIP3   OH235938   2.391   4.066  15.903 -0.0387 -0.3417 -0.1509
 4816TIP3    H135939   2.359   4.123  15.972 -1.0432  0.1823 -1.0427
 4816TIP3    H235940   2.396   3.980  15.944 -1.0694 -0.1261  0.4531
 4817TIP3   OH235941   1.758   3.389   4.026 -0.0195 -0.0959  0.3482
 4817TIP3    H135942   1.778   3.446   4.100  1.5951 -0.6498  0.3607
 4817TIP3    H235943   1.762   3.446   3.949 -0.7214  0.2735  0.5767
 4818TIP3   OH235944   6.456   5.840  11.278  0.5239  0.0152 -0.5972
 4818TIP3    H135945   6.525   5.788  11.238 -0.7206 -1.8239 -0.4252
 4818TIP3    H235946   6.430   5.791  11.356  0.4711  1.7518  0.4997
 4819TIP3   OH235947   2.692   5.356   0.730  0.3805  0.4051  0.3290
 4819TIP3    H135948   2.783   5.346   0.758  0.0845 -0.8525  0.8854
 4819TIP3    H235949   2.677   5.282   0.671 -0.9788 -0.7862  2.1062
 4820TIP3   OH235950   4.887   4.291   3.014 -0.6351 -0.4676 -0.0170
 4820TIP3    H135951   4.964   4.349   3.011  0.0730 -1.3003  1.5567
 4820TIP3    H235952   4.923   4.205   3.037 -1.8850 -1.1749 -0.6514
 4821TIP3   OH235953   2.105   1.901   3.857 -0.6208 -0.6344  0.0774
 4821TIP3    H135954   2.180   1.934   3.807 -1.2730  2.7457  1.1677
 4821TIP3    H235955   2.029   1.924   3.803 -1.1364  0.2705  1.1839
 4822TIP3   OH235956   5.860   1.720  11.166  0.6869 -0.2633  0.2782
 4822TIP3    H135957   5.936   1.686  11.214  2.1247  3.3153  0.6561
 4822TIP3    H235958   5.840   1.652  11.102  2.6539 -2.3455  1.7866
 4823TIP3   OH235959   1.946   4.906  12.459 -0.5214  0.4752 -0.4207
 4823TIP3    H135960   1.867   4.936  12.505 -1.2059 -0.9301 -0.6511
 4823TIP3    H235961   1.952   4.964  12.383 -2.6703 -0.8530 -1.6576
 4824TIP3   OH235962   3.062   4.857  13.932 -0.3619 -0.1783  0.0392
 4824TIP3    H135963   3.039   4.765  13.944 -1.7876  0.1245 -0.1626
 4824TIP3    H235964   3.149   4.855  13.893 -0.3855 -1.4456  0.0167
 4825TIP3   OH235965   3.693   5.639  13.788  0.5944 -0.6075  0.8608
 4825TIP3    H135966   3.722   5.573  13.850  0.5369  0.3589  1.9177
 4825TIP3    H235967   3.700   5.722  13.835 -1.5511 -0.0893  0.3549
 4826TIP3   OH235968   3.236   5.887  17.290  0.0117  0.3556  0.4059
 4826TIP3    H135969   3.230   5.970  17.336  0.2037  1.5388 -1.6705
 4826TIP3    H235970   3.152   5.845  17.306  0.4009  0.3218  2.5711
 4827TIP3   OH235971   2.314   3.987  11.293  0.4116 -0.3864  0.4696
 4827TIP3    H135972   2.246   3.930  11.328  1.7247 -1.6244  1.0567
 4827TIP3    H235973   2.275   4.075  11.292 -1.6575 -1.2980 -0.5157
 4828TIP3   OH235974   2.399   3.534  13.540 -0.0103 -0.2808 -0.3204
 4828TIP3    H135975   2.422   3.591  13.613  1.3010 -0.1026 -0.8542
 4828TIP3    H235976   2.306   3.548  13.527 -0.2785 -0.3838  1.3766
 4829TIP3   OH235977   5.584   4.251  11.922  1.1291 -0.4394  0.2090
 4829TIP3    H135978   5.667   4.274  11.962  0.5144 -1.4022  2.0640
 4829TIP3    H235979   5.575   4.157  11.937  0.5859 -0.7047 -1.6424
 4830TIP3   OH235980   0.751   3.091  15.073 -0.2086  0.2174  0.2406
 4830TIP3    H135981   0.804   3.011  15.066  1.6823  1.6255 -2.1878
 4830TIP3    H235982   0.661   3.059  15.075  0.5643 -2.0574  0.6842
 4831TIP3   OH235983   3.440   1.402  11.730 -0.5105  0.2274  0.1599
 4831TIP3    H135984   3.397   1.350  11.662  0.0762 -1.7648  1.2720
 4831TIP3    H235985   3.529   1.414  11.697 -0.5399  0.2200  0.0771
 4832TIP3   OH235986   4.747   0.812  15.494 -0.0107 -0.0912 -0.4654
 4832TIP3    H135987   4.778   0.802  15.404 -2.3513 -1.8982 -1.1428
 4832TIP3    H235988   4.660   0.851  15.485  1.0605  2.8194  1.2338
 4833TIP3   OH235989   5.710   0.377  14.242  0.1899  0.3320 -0.3526
 4833TIP3    H135990   5.638   0.363  14.303  0.8199 -1.0165  0.1009
 4833TIP3    H235991   5.740   0.466  14.260 -0.1890  0.2468  0.7094
 4834TIP3   OH235992   3.533   5.929   4.707  0.5282  0.0277  0.3299
 4834TIP3    H135993   3.518   6.023   4.691  0.3622  0.2959  1.9513
 4834TIP3    H235994   3.602   5.905   4.645  0.1613  1.0759 -0.5116
 4835TIP3   OH235995   1.083   1.344   6.327 -0.3902  0.8512 -0.2934
 4835TIP3    H135996   1.032   1.421   6.349  0.4360  0.9888  1.2127
 4835TIP3    H235997   1.021   1.271   6.332 -0.2219  0.8835  2.5480
 4836TIP3   OH235998   1.125   5.810  13.189 -0.1518 -0.0599  1.0064
 4836TIP3    H135999   1.054   5.782  13.131  0.4510 -0.1979  0.3421
 4836TIP3    H236000   1.084   5.812  13.276 -0.4746 -1.9393  0.9065
 4837TIP3   OH236001   1.678   3.970  12.125 -0.3923  0.0747 -0.0997
 4837TIP3    H136002   1.724   4.051  12.103  0.0453  0.4964  2.2864
 4837TIP3    H236003   1.608   3.964  12.059  1.9248  0.3596 -2.6460
 4838TIP3   OH236004   5.593   4.481  12.142 -0.0249  0.1021 -0.1126
 4838TIP3    H136005   5.522   4.434  12.185  0.5125 -0.6344 -0.0114
 4838TIP3    H236006   5.660   4.414  12.127  2.1493  1.4543  3.0597
 4839TIP3   OH236007   1.495   2.624   0.655 -0.1276 -0.0871  0.1707
 4839TIP3    H136008   1.585   2.593   0.651 -0.3903 -0.9760  0.9725
 4839TIP3    H236009   1.492   2.683   0.730  0.0267  0.7916 -0.4949
 4840TIP3   OH236010   0.629   3.168   0.172  0.2775  0.1235 -0.5363
 4840TIP3    H136011   0.560   3.191   0.234 -1.2054 -1.0190 -1.7140
 4840TIP3    H236012   0.611   3.077   0.149  2.4482 -0.3364 -0.5521
 4841TIP3   OH236013   4.535   6.398  16.033 -0.1550 -0.1100  0.1834
 4841TIP3    H136014   4.559   6.345  15.957  0.4320  0.8139 -0.2771
 4841TIP3    H236015   4.569   6.349  16.108 -0.3901 -0.8251 -0.1681
 4842TIP3   OH236016   5.221   0.850   0.511 -0.5649 -0.1141 -0.4260
 4842TIP3    H136017   5.138   0.810   0.484  0.1032 -1.0669 -1.0659
 4842TIP3    H236018   5.201   0.944   0.514 -1.0275 -0.0886 -2.9544
 4843TIP3   OH236019   6.756   3.143   1.721 -0.7104  0.0939  0.0652
 4843TIP3    H136020   6.786   3.231   1.741 -0.9998  0.2430 -0.1534
 4843TIP3    H236021   6.814   3.114   1.651 -1.5167  0.6518 -0.8514
 4844TIP3   OH236022   6.797   1.275   3.048  0.1057 -0.1109  0.0646
 4844TIP3    H136023   6.843   1.267   2.965  0.9868  0.9588  0.4409
 4844TIP3    H236024   6.812   1.190   3.091 -1.0267 -0.9617 -1.1851
 4845TIP3   OH236025   3.085   6.478   0.247  0.1148  0.0435 -0.3360
 4845TIP3    H136026   3.135   6.559   0.258  0.4225 -0.2963  0.7997
 4845TIP3    H236027   3.139   6.424   0.188  0.2548  0.3711 -0.5078
 4846TIP3   OH236028   2.681   4.838   2.025 -0.2535  0.0747  0.4972
 4846TIP3    H136029   2.656   4.899   1.955 -1.6690  1.5806  2.2614
 4846TIP3    H236030   2.701   4.757   1.980 -1.2386  0.9916 -1.6694
 4847TIP3   OH236031   2.622   3.817   1.522  0.0561 -0.3497  0.3852
 4847TIP3    H136032   2.622   3.788   1.431 -0.0670  0.6066  0.0758
 4847TIP3    H236033   2.710   3.851   1.536  0.0654 -0.4692  0.6204
 4848TIP3   OH236034   2.549   1.188   0.234  0.1683 -0.3690 -0.0377
 4848TIP3    H136035   2.629   1.179   0.285 -0.2116  2.7382  1.2200
 4848TIP3    H236036   2.576   1.233   0.154  0.4990 -3.8795 -1.9869
 4849TIP3   OH236037   1.074   1.605   4.741  0.1422  0.2292 -0.1185
 4849TIP3    H136038   1.082   1.666   4.668 -2.3104  0.5527 -0.1291
 4849TIP3    H236039   1.152   1.549   4.733  2.1741  2.9973 -0.3914
 4850TIP3   OH236040   0.484   1.658  11.666 -0.2752  0.6894 -0.1025
 4850TIP3    H136041   0.573   1.621  11.668 -0.1458  1.0318  0.5331
 4850TIP3    H236042   0.492   1.742  11.712 -0.2786  2.1500 -2.6458
 4851TIP3   OH236043   2.645   6.066   2.590  0.2642  0.1479 -0.1373
 4851TIP3    H136044   2.622   6.114   2.510 -0.7552  0.8836  0.5791
 4851TIP3    H236045   2.577   6.091   2.653  0.7615 -0.8311  0.8032
 4852TIP3   OH236046   3.409   2.498   5.692  0.3464  0.3834  0.6969
 4852TIP3    H136047   3.423   2.570   5.631  1.2909 -0.6959 -0.3996
 4852TIP3    H236048   3.318   2.470   5.676  0.2311  0.8297  0.5715
 4853TIP3   OH236049   6.358   4.025  12.556  1.1965  1.0567 -0.5200
 4853TIP3    H136050   6.271   3.995  12.529  1.6162  0.0122 -0.7249
 4853TIP3    H236051   6.416   3.996  12.486  2.0331 -0.1243  0.6502
 4854TIP3   OH236052   5.999   1.657  13.630 -0.0297  0.2404  0.7034
 4854TIP3    H136053   6.089   1.686  13.647  1.0221 -1.4403 -1.6315
 4854TIP3    H236054   5.944   1.721  13.674  2.2950  2.5714  0.3410
 4855TIP3   OH236055   4.191   0.981  13.554  0.1245  0.1972  0.0334
 4855TIP3    H136056   4.110   0.974  13.503 -0.1968  1.8282  0.2928
 4855TIP3    H236057   4.163   1.011  13.640  1.0732  1.8071 -0.1903
 4856TIP3   OH236058   0.514   5.188  15.276 -0.7465 -0.0680 -0.3128
 4856TIP3    H136059   0.452   5.178  15.348 -0.0135 -0.9992  0.2022
 4856TIP3    H236060   0.465   5.161  15.198 -1.1355 -0.3117  0.0150
 4857TIP3   OH236061   2.445   3.198   1.239 -0.3884 -0.0139  0.0286
 4857TIP3    H136062   2.393   3.267   1.199 -0.9630 -1.1185 -1.1410
 4857TIP3    H236063   2.411   3.191   1.328 -1.3139  0.1958 -0.3066
 4858TIP3   OH236064   4.448   6.300   5.884 -0.5326  0.2426  0.3523
 4858TIP3    H136065   4.459   6.366   5.815  2.5083 -0.1088  0.4114
 4858TIP3    H236066   4.358   6.311   5.914 -1.6303  1.0632 -2.9940
 4859TIP3   OH236067   4.967   5.489  11.569  0.4708 -0.2798 -0.3183
 4859TIP3    H136068   5.016   5.553  11.622  1.1862 -1.3092  0.2843
 4859TIP3    H236069   4.902   5.542  11.522  0.1655  0.7320  1.1859
 4860TIP3   OH236070   5.376   0.067   5.971  0.1831 -0.4408  0.2375
 4860TIP3    H136071   5.327   0.118   5.906 -0.6198 -2.8632 -1.1305
 4860TIP3    H236072   5.467   0.092   5.955 -0.2539  1.3426  0.3201
 4861TIP3   OH236073   6.116   4.099   5.756  0.6538  0.9561  0.1335
 4861TIP3    H136074   6.171   4.158   5.808  2.0414 -0.9690  0.9099
 4861TIP3    H236075   6.051   4.066   5.818  1.7702 -0.6761  0.4314
 4862TIP3   OH236076   0.879   2.324  11.641  0.4457  0.6776 -0.4206
 4862TIP3    H136077   0.931   2.285  11.711 -0.2358 -1.6880 -1.1934
 4862TIP3    H236078   0.790   2.327  11.676  0.2313  0.1325 -0.8994
 4863TIP3   OH236079   5.957   3.017  11.522 -0.5720  0.1415  0.5928
 4863TIP3    H136080   5.880   2.961  11.513 -0.3289  0.0212 -0.9552
 4863TIP3    H236081   5.929   3.089  11.579 -1.3517 -0.7379  1.3129
 4864TIP3   OH236082   3.066   4.837  11.918 -0.8403  0.7498 -0.3713
 4864TIP3    H136083   3.108   4.751  11.917  0.6234  1.4613 -1.2094
 4864TIP3    H236084   3.059   4.859  12.011  0.5494  0.5682 -0.2150
 4865TIP3   OH236085   5.241   6.786  11.012  0.5026 -0.0605  0.1582
 4865TIP3    H136086   5.238   6.690  11.010 -0.1358 -0.0535  1.0275
 4865TIP3    H236087   5.175   6.814  10.948 -0.8902 -0.1766  1.5373
 4866TIP3   OH236088   5.304   3.349  15.179  0.3313 -0.0851  0.3467
 4866TIP3    H136089   5.320   3.441  15.199 -2.8970  0.4166  0.9588
 4866TIP3    H236090   5.287   3.347  15.085 -0.7807  0.1404  0.5399
 4867TIP3   OH236091   4.929   2.830  12.043 -0.5163 -0.1041 -0.6181
 4867TIP3    H136092   4.934   2.781  12.124  1.3637  0.4545 -0.3765
 4867TIP3    H236093   4.929   2.922  12.070  1.5165  0.1113 -1.2820
 4868TIP3   OH236094   6.396   1.982   5.141  0.3954  0.4510 -0.2692
 4868TIP3    H136095   6.487   1.961   5.161  0.3516 -0.0192 -0.5494
 4868TIP3    H236096   6.350   1.972   5.224  0.5065  0.1800 -0.2406
 4869TIP3   OH236097   1.204   0.073   1.542  0.1525 -0.1490 -0.5688
 4869TIP3    H136098   1.276   0.026   1.584  1.0001  0.8736 -0.8631
 4869TIP3    H236099   1.167   0.128   1.612 -1.1823 -1.6208 -0.0851
 4870TIP3   OH236100   6.724   1.029  15.633 -0.0459 -0.5013 -0.4746
 4870TIP3    H136101   6.766   1.026  15.548 -0.2983  0.6959 -0.6485
 4870TIP3    H236102   6.768   1.100  15.680 -0.1310 -0.9293  0.2724
 4871TIP3   OH236103   4.337   4.062  15.622 -0.3968 -0.0382  0.2674
 4871TIP3    H136104   4.390   4.126  15.574  1.0287 -1.1612  0.3197
 4871TIP3    H236105   4.340   4.092  15.713 -0.0739  0.0505  0.2282
 4872TIP3   OH236106   0.846   3.718  15.469  0.4307  0.1871 -0.1387
 4872TIP3    H136107   0.840   3.803  15.424  0.0940  0.4697  0.4301
 4872TIP3    H236108   0.832   3.653  15.401  1.3667  0.5676 -0.7089
 4873TIP3   OH236109   3.905   1.454  11.359 -0.1234  0.0472  0.4493
 4873TIP3    H136110   3.952   1.430  11.279  0.0292  0.0738  0.5300
 4873TIP3    H236111   3.814   1.431  11.342 -0.7886  3.5544 -1.1723
 4874TIP3   OH236112   4.312   4.250  13.281 -0.2686 -0.0815 -0.0784
 4874TIP3    H136113   4.388   4.192  13.279 -0.5056 -0.3801 -0.3466
 4874TIP3    H236114   4.280   4.251  13.191  1.0560  2.2140 -0.5740
 4875TIP3   OH236115   6.086   3.258  12.064 -0.8416  0.6627  0.1131
 4875TIP3    H136116   6.139   3.230  12.138 -0.7363  1.0809  0.1989
 4875TIP3    H236117   6.072   3.178  12.013  0.4204  0.6751 -0.2681
 4876TIP3   OH236118   1.182   3.077  16.244 -0.4203  0.0227 -0.6397
 4876TIP3    H136119   1.089   3.064  16.262 -0.1201 -1.1835  0.0690
 4876TIP3    H236120   1.209   2.998  16.197  0.4047  0.0503 -0.2158
 4877TIP3   OH236121   4.295   3.749  14.638 -0.3140 -0.3242  0.1213
 4877TIP3    H136122   4.215   3.742  14.689 -0.4000  0.9534  0.1602
 4877TIP3    H236123   4.288   3.679  14.573  0.4245 -2.8662  2.6955
 4878TIP3   OH236124   0.111   5.895  15.468  0.2514  0.4863  0.0238
 4878TIP3    H136125   0.202   5.901  15.441  0.4734 -0.8914  0.3951
 4878TIP3    H236126   0.112   5.912  15.562  0.1887  0.1201  0.0939
 4879TIP3   OH236127   5.688   6.320   2.429  0.1345  0.1412  0.5400
 4879TIP3    H136128   5.783   6.330   2.435  0.1699 -0.0386  0.2540
 4879TIP3    H236129   5.665   6.262   2.501  0.6045 -2.2781 -1.2119
 4880TIP3   OH236130   4.984   3.617   2.496 -0.9583  1.0033  0.3688
 4880TIP3    H136131   4.907   3.582   2.541 -0.5565  0.2428  0.4848
 4880TIP3    H236132   5.023   3.679   2.558  0.5999 -1.3494  1.8310
 4881TIP3   OH236133   4.891   4.384   1.916 -0.0582 -0.1158  0.1523
 4881TIP3    H136134   4.894   4.414   1.826 -0.6917  1.6194  0.6974
 4881TIP3    H236135   4.819   4.433   1.956 -1.1582 -2.4148  1.0596
 4882TIP3   OH236136   2.934   1.566  14.840 -0.1617 -0.3611 -0.1115
 4882TIP3    H136137   2.965   1.538  14.754  2.8796  2.0982  0.1146
 4882TIP3    H236138   2.955   1.493  14.898  2.5406  0.0133 -0.5509
 4883TIP3   OH236139   5.665   2.648  14.518  0.5605 -0.0500  0.1355
 4883TIP3    H136140   5.738   2.691  14.473 -0.3841  0.9920 -0.4372
 4883TIP3    H236141   5.672   2.677  14.609 -0.2377  1.5772 -0.3025
 4884TIP3   OH236142   6.129   2.861  13.858 -0.7371  0.5388 -0.3255
 4884TIP3    H136143   6.205   2.837  13.806 -1.0976 -0.6764 -0.3225
 4884TIP3    H236144   6.162   2.923  13.923  0.0097  0.9188 -1.0706
 4885TIP3   OH236145   5.736   6.331   3.066  0.7615 -0.6387 -0.1777
 4885TIP3    H136146   5.702   6.420   3.068  0.6927 -0.6600 -0.3701
 4885TIP3    H236147   5.749   6.313   2.973 -3.3562 -2.4061 -0.5113
 4886TIP3   OH236148   2.794   3.488  12.198  0.1885  0.5338 -0.5120
 4886TIP3    H136149   2.721   3.492  12.136  0.1035  2.4328 -0.3109
 4886TIP3    H236150   2.872   3.477  12.143 -0.1405 -0.5175 -0.7810
 4887TIP3   OH236151   1.281   5.228  13.271  0.1276  0.6085  0.6084
 4887TIP3    H136152   1.263   5.138  13.245 -0.4596  0.5266  1.2875
 4887TIP3    H236153   1.324   5.221  13.356 -0.8272  1.0105  1.1272
 4888TIP3   OH236154   2.974   2.707  14.417  0.2388 -0.8744  0.7897
 4888TIP3    H136155   3.013   2.639  14.363 -0.1689 -0.6964  0.2580
 4888TIP3    H236156   2.973   2.784  14.360  0.0754 -0.6077  1.1531
 4889TIP3   OH236157   4.417   5.506   0.769 -0.6116  0.4623  0.3702
 4889TIP3    H136158   4.427   5.569   0.697 -1.8983 -1.4150 -1.4742
 4889TIP3    H236159   4.490   5.445   0.758 -1.3821 -0.4092  0.0514
 4890TIP3   OH236160   0.698   3.925  13.381  0.1606  0.5193  0.0986
 4890TIP3    H136161   0.652   4.008  13.391 -2.4473 -0.8160 -0.2242
 4890TIP3    H236162   0.700   3.888  13.470 -2.9381 -1.1672 -0.4618
 4891TIP3   OH236163   5.156   4.027   2.348 -0.2414 -0.1874 -0.4303
 4891TIP3    H136164   5.114   3.941   2.352 -0.0110 -0.2959 -0.2860
 4891TIP3    H236165   5.174   4.049   2.440 -0.7340  0.2311 -0.4342
 4892TIP3   OH236166   6.454   1.226   0.865 -0.3482 -0.0633 -0.3628
 4892TIP3    H136167   6.365   1.259   0.881 -0.8823 -2.1864  1.1321
 4892TIP3    H236168   6.442   1.135   0.839  1.4910 -0.8383  1.3856
 4893TIP3   OH236169   4.627   0.511   4.481  0.5725 -0.5107  0.1627
 4893TIP3    H136170   4.682   0.478   4.552  0.6504  0.2901  0.4827
 4893TIP3    H236171   4.687   0.558   4.423  0.1485  0.9673  0.8789
 4894TIP3   OH236172   6.582   2.933   4.587  0.4511 -0.4430 -0.0920
 4894TIP3    H136173   6.582   2.915   4.493 -0.9696  3.5715 -0.9430
 4894TIP3    H236174   6.669   2.968   4.605  0.4229 -0.3703 -0.0970
 4895TIP3   OH236175   5.333   1.561   6.606  0.2102  0.4680  0.4671
 4895TIP3    H136176   5.266   1.597   6.664 -0.0503  0.8383 -0.0497
 4895TIP3    H236177   5.355   1.476   6.644 -0.6111  0.3075  0.6060
 4896TIP3   OH236178   5.756   1.079   6.454 -0.2880 -0.5584 -0.5371
 4896TIP3    H136179   5.821   1.009   6.465  1.4277  1.0384 -0.2286
 4896TIP3    H236180   5.795   1.139   6.391 -1.5103  0.3841 -0.4267
 4897TIP3   OH236181   0.861   2.965  13.779 -0.3515 -0.4222  0.8083
 4897TIP3    H136182   0.871   3.020  13.857 -0.0817 -1.0434  1.2155
 4897TIP3    H236183   0.830   3.025  13.711  0.2641  0.2988  1.1568
 4898TIP3   OH236184   3.766   6.527   2.936 -0.0149 -0.4921 -0.7784
 4898TIP3    H136185   3.671   6.528   2.945  0.0580 -1.8457  0.2690
 4898TIP3    H236186   3.793   6.617   2.954 -0.9768 -0.4404  0.4695
 4899TIP3   OH236187   3.217   4.774   5.250  0.0398 -0.4253  0.5771
 4899TIP3    H136188   3.281   4.761   5.179 -0.2495 -2.6381  0.6875
 4899TIP3    H236189   3.269   4.805   5.324  0.2980  2.2793 -0.6628
 4900TIP3   OH236190   3.918   1.212   3.546  0.3065 -0.3344 -0.3282
 4900TIP3    H136191   3.970   1.288   3.572  0.3814 -0.7455  0.7648
 4900TIP3    H236192   3.843   1.249   3.500  1.2152  0.3008 -1.3324
 4901TIP3   OH236193   1.872   4.842  15.265  0.1494  0.0167 -0.1096
 4901TIP3    H136194   1.938   4.873  15.203 -0.8712 -0.2314 -1.3401
 4901TIP3    H236195   1.886   4.748  15.271 -0.4561 -0.1280 -0.8318
 4902TIP3   OH236196   1.336   0.760   2.981  0.2036 -0.2103  0.2724
 4902TIP3    H136197   1.257   0.804   2.950  0.8556 -0.1591 -1.3950
 4902TIP3    H236198   1.324   0.668   2.956  0.5393 -0.2504  0.2528
 4903TIP3   OH236199   1.483   5.999   3.214 -0.5120  0.8110 -0.1652
 4903TIP3    H136200   1.450   6.063   3.150  2.8454  0.8691 -1.9902
 4903TIP3    H236201   1.453   5.914   3.182 -2.0912  1.1624  0.3540
 4904TIP3   OH236202   0.551   4.288   2.414  0.6740  0.4277  0.0283
 4904TIP3    H136203   0.644   4.292   2.393  0.5274 -1.1351 -0.9776
 4904TIP3    H236204   0.515   4.223   2.354 -0.5873 -0.8614  2.0842
 4905TIP3   OH236205   5.059   3.051  12.907  0.0700 -0.0097  0.0901
 4905TIP3    H136206   5.099   3.019  12.987 -0.0382 -0.5967 -0.0868
 4905TIP3    H236207   4.984   3.104  12.936 -0.8676 -1.4506  0.3412
 4906TIP3   OH236208   4.981   3.243   1.231 -0.2693 -0.0799  0.0920
 4906TIP3    H136209   4.924   3.317   1.209  1.3646  1.1650 -0.0386
 4906TIP3    H236210   5.004   3.258   1.323  0.4410 -0.1704 -0.0687
 4907TIP3   OH236211   3.526   0.743   4.759  0.0650 -0.7326 -0.4133
 4907TIP3    H136212   3.534   0.683   4.833  2.4005 -1.4771 -1.2122
 4907TIP3    H236213   3.551   0.828   4.795 -1.4095 -0.5916  0.2797
 4908TIP3   OH236214   2.369   1.591  11.915 -0.3934 -0.6641 -0.2405
 4908TIP3    H136215   2.441   1.649  11.940 -0.7473  0.1734 -1.1137
 4908TIP3    H236216   2.357   1.608  11.821 -1.8319 -0.6739 -0.0646
 4909TIP3   OH236217   0.334   5.071  11.610 -0.0028  0.4354 -0.5700
 4909TIP3    H136218   0.383   5.003  11.564  0.1158  0.4111 -0.4055
 4909TIP3    H236219   0.371   5.073  11.698 -0.7993 -0.0981 -0.2180
 4910TIP3   OH236220   4.254   4.708   4.185  0.8201 -0.5192  0.0128
 4910TIP3    H136221   4.350   4.709   4.175  0.8192  2.3013 -0.1724
 4910TIP3    H236222   4.226   4.793   4.150 -1.4812 -0.1370  2.6410
 4911TIP3   OH236223   0.901   1.197  14.028  0.4463 -0.0402  0.2276
 4911TIP3    H136224   0.929   1.177  13.939 -2.6382 -0.5505 -0.6713
 4911TIP3    H236225   0.873   1.113  14.065 -0.2650  0.4968  0.9416
 4912TIP3   OH236226   5.527   0.949  11.616  0.1387  0.5033  0.6989
 4912TIP3    H136227   5.566   1.036  11.604 -1.4211  1.4906  2.5551
 4912TIP3    H236228   5.433   0.962  11.598 -0.2506 -0.5901  1.8642
 4913TIP3   OH236229   3.108   0.143  16.706 -0.6162 -0.4514 -0.2102
 4913TIP3    H136230   3.058   0.211  16.660 -1.9846 -2.0086 -1.0821
 4913TIP3    H236231   3.179   0.121  16.645  0.6874  1.1444  0.6686
 4914TIP3   OH236232   0.979   5.736   3.821 -0.3171 -0.2105  0.1144
 4914TIP3    H136233   1.044   5.688   3.872  1.1681  2.0575  0.4370
 4914TIP3    H236234   0.986   5.701   3.733 -0.3855 -1.6713  0.6715
 4915TIP3   OH236235   5.824   5.096   4.583 -0.3813  0.0751  0.1280
 4915TIP3    H136236   5.913   5.131   4.578 -0.1744 -0.1790  1.6581
 4915TIP3    H236237   5.814   5.045   4.503  0.4129  1.0995 -0.6431
 4916TIP3   OH236238   4.019   4.484  15.311 -0.0987 -0.1501  0.6622
 4916TIP3    H136239   3.948   4.493  15.248 -1.4454 -2.7148  1.7215
 4916TIP3    H236240   4.015   4.564  15.364 -1.8499 -0.0340  0.3698
 4917TIP3   OH236241   2.753   6.088  15.845  0.3801 -0.5231  0.9663
 4917TIP3    H136242   2.697   6.021  15.883 -1.4693 -0.1070 -0.9163
 4917TIP3    H236243   2.802   6.042  15.776 -0.7319 -0.0146 -0.1810
 4918TIP3   OH236244   2.322   2.603  17.028 -0.0225 -0.1980  0.3463
 4918TIP3    H136245   2.240   2.581  17.072  0.6737 -2.7261  0.4478
 4918TIP3    H236246   2.387   2.544  17.066  1.5954  0.8896 -0.6372
 4919TIP3   OH236247   5.168   0.862  11.724 -0.0844  0.1384 -0.4335
 4919TIP3    H136248   5.105   0.909  11.670  0.9881  1.8706 -0.2354
 4919TIP3    H236249   5.220   0.811  11.661  0.6654  1.5492 -0.9725
 4920TIP3   OH236250   1.335   0.569  11.277  1.3310 -0.3787  0.6685
 4920TIP3    H136251   1.321   0.609  11.191  2.2630 -1.2989  0.0807
 4920TIP3    H236252   1.261   0.509  11.287  1.5528 -0.7273  0.2366
 4921TIP3   OH236253   2.710   1.144   1.587 -0.3367  0.0852 -0.2062
 4921TIP3    H136254   2.622   1.131   1.552  0.3967  0.3501 -2.2386
 4921TIP3    H236255   2.732   1.235   1.564  0.1349  0.3106  1.0762
 4922TIP3   OH236256   4.241   3.134  14.247 -0.5349  0.3496  0.5715
 4922TIP3    H136257   4.314   3.164  14.302 -0.2455  1.5984 -0.4815
 4922TIP3    H236258   4.163   3.170  14.289 -0.2655  1.8036 -0.1635
 4923TIP3   OH236259   3.751   3.428  16.289  0.4197 -0.2404  0.3385
 4923TIP3    H136260   3.697   3.370  16.236 -0.2495  1.8302 -1.2817
 4923TIP3    H236261   3.835   3.382  16.296  0.0250 -1.2339 -1.2351
 4924TIP3   OH236262   4.706   5.331  15.203 -0.5809  0.1106 -0.5346
 4924TIP3    H136263   4.713   5.295  15.114 -0.0460 -2.3074  0.4551
 4924TIP3    H236264   4.612   5.345  15.216 -1.0020 -2.7333 -0.2741
 4925TIP3   OH236265   3.834   5.630  12.196 -0.5620  0.0641  0.1234
 4925TIP3    H136266   3.816   5.626  12.289 -2.2424  2.1192 -0.0653
 4925TIP3    H236267   3.829   5.540  12.165 -0.9810 -0.4949  1.8296
 4926TIP3   OH236268   6.700   3.482  12.854 -0.3348 -0.2803 -0.2629
 4926TIP3    H136269   6.685   3.527  12.771 -0.0517  0.8995  0.3167
 4926TIP3    H236270   6.784   3.439  12.843  0.7945  1.7259  0.1766
 4927TIP3   OH236271   2.231   4.956   2.652  0.1261  0.4630 -0.1709
 4927TIP3    H136272   2.286   4.919   2.721  2.4501  2.5070 -0.8504
 4927TIP3    H236273   2.193   4.881   2.607  1.9437 -0.9851  0.6788
 4928TIP3   OH236274   4.549   1.567   1.756  0.1055 -0.5406 -0.7412
 4928TIP3    H136275   4.475   1.628   1.744 -0.2885 -0.8302  0.1766
 4928TIP3    H236276   4.579   1.549   1.667 -0.5427  0.0621 -1.0922
 4929TIP3   OH236277   0.545   6.128  14.414 -0.0241  0.0987 -0.2061
 4929TIP3    H136278   0.619   6.067  14.410  1.6819  2.0253  0.6836
 4929TIP3    H236279   0.503   6.122  14.329  2.3523  0.3677 -1.4363
 4930TIP3   OH236280   3.307   3.188  16.672  0.0509  0.6218 -0.1802
 4930TIP3    H136281   3.346   3.265  16.714 -1.7659  0.8688  1.1236
 4930TIP3    H236282   3.276   3.135  16.745 -1.4220  0.1057 -1.1617
 4931TIP3   OH236283   0.540   6.001  12.839  0.0104 -0.3897 -0.7435
 4931TIP3    H136284   0.503   5.953  12.913 -1.5245  0.6913 -0.7944
 4931TIP3    H236285   0.613   6.050  12.877  1.9816 -3.1236 -0.7958
 4932TIP3   OH236286   4.670   3.071   0.757 -0.3292 -0.2288  0.1464
 4932TIP3    H136287   4.652   3.002   0.692  0.2820  0.2040 -0.4870
 4932TIP3    H236288   4.709   3.024   0.831 -1.0287 -0.7251  0.2047
 4933TIP3   OH236289   5.491   6.701   0.246 -0.1263 -0.2528  0.0183
 4933TIP3    H136290   5.397   6.693   0.233 -0.1883  0.9894 -0.4389
 4933TIP3    H236291   5.530   6.637   0.187 -0.6922 -1.0369  0.4909
 4934TIP3   OH236292   0.561   1.518  11.296 -0.2180  0.1429  0.2638
 4934TIP3    H136293   0.539   1.432  11.261  2.4272 -1.0230  1.3563
 4934TIP3    H236294   0.596   1.501  11.383  2.4773  2.1006 -0.3869
 4935TIP3   OH236295   3.692   3.758  13.046 -0.5043 -0.0650 -0.3034
 4935TIP3    H136296   3.697   3.848  13.015  0.3390 -0.2244 -0.6296
 4935TIP3    H236297   3.651   3.765  13.132  1.0729  0.8040  0.3971
 4936TIP3   OH236298   5.876   4.110  11.940  0.3696  0.1302  0.9099
 4936TIP3    H136299   5.928   4.100  11.860 -2.2077 -0.1618 -0.7898
 4936TIP3    H236300   5.909   4.043  11.999  0.2151 -1.7631 -1.0860
 4937TIP3   OH236301   1.284   4.676   2.330 -0.6238 -0.6755 -0.3082
 4937TIP3    H136302   1.259   4.751   2.384 -1.0828 -0.6408 -0.5655
 4937TIP3    H236303   1.348   4.629   2.383  1.0158  0.8557 -0.8560
 4938TIP3   OH236304   0.589   2.345   4.605  0.4224  0.5611 -0.0206
 4938TIP3    H136305   0.586   2.320   4.697  0.7711 -2.0054 -0.6723
 4938TIP3    H236306   0.682   2.357   4.587  0.5481 -1.1202 -0.5723
 4939TIP3   OH236307   2.513   2.931  16.064  0.3356 -0.2110  0.0504
 4939TIP3    H136308   2.453   2.965  15.998  0.8761 -0.3654 -0.5291
 4939TIP3    H236309   2.467   2.941  16.147 -0.4882 -0.3289 -0.3899
 4940TIP3   OH236310   3.088   3.547  15.010  0.0444 -0.5146 -0.3307
 4940TIP3    H136311   3.003   3.507  15.025 -0.3445 -0.1939 -1.5935
 4940TIP3    H236312   3.147   3.474  14.989  0.1631 -0.7664  0.8312
 4941TIP3   OH236313   3.990   4.166   4.356 -0.0162  0.3387 -0.1173
 4941TIP3    H136314   4.027   4.207   4.278  1.3477  0.1064  0.3991
 4941TIP3    H236315   3.915   4.115   4.323  0.6643  0.0860 -1.2992
 4942TIP3   OH236316   5.114   6.371   1.395  0.9104 -0.1034 -1.1657
 4942TIP3    H136317   5.105   6.405   1.306 -0.2151  0.3442 -0.8886
 4942TIP3    H236318   5.148   6.444   1.446 -0.4373  0.2835 -0.8023
 4943TIP3   OH236319   4.028   3.790   5.284  0.5460  0.0960 -0.6162
 4943TIP3    H136320   4.015   3.756   5.195 -0.1358  0.5616 -0.7008
 4943TIP3    H236321   3.945   3.833   5.305  0.8229  0.2711  0.1232
 4944TIP3   OH236322   6.353   2.901  15.167 -0.7039 -0.2191 -0.7596
 4944TIP3    H136323   6.269   2.934  15.135  1.4147  2.2259 -4.1062
 4944TIP3    H236324   6.374   2.956  15.242 -1.7111 -0.3630 -0.3593
 4945TIP3   OH236325   1.364   1.203   2.094  0.1049  0.1859  0.4157
 4945TIP3    H136326   1.367   1.154   2.177  0.7518 -0.4824  0.0025
 4945TIP3    H236327   1.315   1.282   2.115 -1.1145 -0.7217  1.0571
 4946TIP3   OH236328   4.265   1.183   2.388  0.2993  0.2691 -0.0086
 4946TIP3    H136329   4.178   1.185   2.427 -0.2279  1.6664 -1.2203
 4946TIP3    H236330   4.318   1.131   2.449 -0.6670  1.8409  2.2317
 4947TIP3   OH236331   2.496   6.516   5.372  0.4180 -0.9688 -0.3594
 4947TIP3    H136332   2.495   6.500   5.277  0.4945  1.6970 -0.8454
 4947TIP3    H236333   2.414   6.477   5.403 -0.6286 -0.0114 -1.8616
 4948TIP3   OH236334   2.413   1.186  12.087  0.1661 -0.1635 -0.1220
 4948TIP3    H136335   2.461   1.233  12.019  1.8844 -4.2094 -1.8993
 4948TIP3    H236336   2.370   1.113  12.041 -0.1220 -1.9759  2.8239
 4949TIP3   OH236337   6.175   6.275   4.030 -0.4160 -0.1622  0.6111
 4949TIP3    H136338   6.199   6.362   4.062 -0.8309  0.0836  0.2620
 4949TIP3    H236339   6.080   6.280   4.020 -0.4499 -0.6882  0.6861
 4950TIP3   OH236340   0.794   4.552  16.033 -0.5546  0.0186 -0.1381
 4950TIP3    H136341   0.740   4.602  16.094 -1.6429 -2.2888  0.8499
 4950TIP3    H236342   0.840   4.488  16.088  1.4998  0.4690 -1.2581
 4951TIP3   OH236343   3.453   3.648  11.807  0.3805 -0.5320 -0.5626
 4951TIP3    H136344   3.471   3.554  11.808 -3.0417 -1.2631 -0.1537
 4951TIP3    H236345   3.365   3.656  11.844  1.0028  2.9454  0.3202
 4952TIP3   OH236346   3.593   2.857   5.269 -0.2829  0.3339  0.3917
 4952TIP3    H136347   3.590   2.763   5.288 -3.1282  0.2455 -0.3040
 4952TIP3    H236348   3.629   2.896   5.348  1.0173 -1.3366  0.6555
 4953TIP3   OH236349   2.452   5.342  13.725  0.1776 -0.4083  0.1844
 4953TIP3    H136350   2.398   5.418  13.743 -0.2157 -1.1236  2.2163
 4953TIP3    H236351   2.391   5.274  13.699  0.5898  0.1174 -2.3084
 4954TIP3   OH236352   4.503   6.435  12.456  0.1014  0.2838  0.7207
 4954TIP3    H136353   4.583   6.488  12.451 -0.2018  0.5980 -0.9100
 4954TIP3    H236354   4.528   6.351  12.417 -0.1623  0.1230  0.8985
 4955TIP3   OH236355   1.986   5.257   6.531 -0.0263 -0.0815 -0.7015
 4955TIP3    H136356   2.031   5.306   6.463  0.9975 -1.2844 -0.9221
 4955TIP3    H236357   2.056   5.226   6.589 -0.7463 -0.3448  0.0499
 4956TIP3   OH236358   6.758   0.664   0.378 -0.3548 -0.3604 -0.8428
 4956TIP3    H136359   6.687   0.600   0.388  0.2736 -1.1911 -1.6784
 4956TIP3    H236360   6.744   0.725   0.450 -1.4113 -1.0066 -0.4774
 4957TIP3   OH236361   0.051   1.705   0.930 -0.1357 -0.2566 -0.4163
 4957TIP3    H136362   0.073   1.715   1.022  1.5135  0.5846 -0.8985
 4957TIP3    H236363   0.084   1.618   0.907  1.0909  0.2616 -0.6640
 4958TIP3   OH236364   1.388   3.280  11.358  0.2194 -0.4440 -0.2162
 4958TIP3    H136365   1.354   3.195  11.329 -4.0130  1.0244  0.0295
 4958TIP3    H236366   1.390   3.334  11.279 -0.7078  0.2972  0.2524
 4959TIP3   OH236367   0.659   3.724   0.607 -0.1572 -0.0386 -0.1989
 4959TIP3    H136368   0.650   3.762   0.520 -0.6620  2.7306  1.0122
 4959TIP3    H236369   0.745   3.754   0.637  0.9617 -2.7652 -0.5521
 4960TIP3   OH236370   1.479   1.294   5.570 -0.3805 -0.1444  0.1618
 4960TIP3    H136371   1.485   1.203   5.600 -1.8494 -0.5298 -0.7087
 4960TIP3    H236372   1.433   1.339   5.641 -0.5714 -0.2860  0.1263
 4961TIP3   OH236373   3.939   1.917  13.962 -0.3278  0.3600  0.0423
 4961TIP3    H136374   4.025   1.883  13.939 -1.1370 -0.3492 -2.1189
 4961TIP3    H236375   3.953   1.967  14.042  2.3355  1.3048 -0.9437
 4962TIP3   OH236376   0.688   1.471   4.849  0.2096  0.6610 -0.2842
 4962TIP3    H136377   0.657   1.561   4.848  2.1947  1.3442 -1.3393
 4962TIP3    H236378   0.622   1.422   4.799 -0.7827  1.5228  0.1629
 4963TIP3   OH236379   6.809   0.115  13.740  0.1906 -0.1656 -0.4497
 4963TIP3    H136380   6.809   0.206  13.709 -0.6319  0.5108  1.4560
 4963TIP3    H236381   6.826   0.122  13.834  1.3952 -2.0752 -0.5037
 4964TIP3   OH236382   1.203   1.436  12.710 -0.3455 -0.0451 -0.1826
 4964TIP3    H136383   1.157   1.386  12.778  1.2373 -2.0483 -0.5425
 4964TIP3    H236384   1.134   1.461  12.648 -1.3616 -0.7584  0.6440
 4965TIP3   OH236385   2.031   0.314   2.195 -0.4395 -0.0886 -0.1371
 4965TIP3    H136386   2.084   0.280   2.122  0.0163 -1.1129  0.6610
 4965TIP3    H236387   2.042   0.409   2.190  0.2830 -0.2031 -0.8811
 4966TIP3   OH236388   0.120   2.393  13.740  1.0756 -0.6131  0.9093
 4966TIP3    H136389   0.181   2.331  13.699  0.7509  0.9307 -2.0495
 4966TIP3    H236390   0.035   2.373  13.700  0.6828  0.7436  1.0639
 4967TIP3   OH236391   0.758   0.444  14.662  0.1836 -0.2975 -0.1861
 4967TIP3    H136392   0.762   0.407  14.573  2.1919  0.4381 -0.4106
 4967TIP3    H236393   0.796   0.531  14.654 -1.1711  0.4327  1.0894
 4968TIP3   OH236394   2.932   3.201  15.969 -0.2466 -0.0201 -0.2244
 4968TIP3    H136395   2.844   3.167  15.982  0.0588 -0.7950 -0.1309
 4968TIP3    H236396   2.925   3.257  15.891 -0.7329 -0.4291 -0.4800
 4969TIP3   OH236397   2.092   2.894   4.963  0.5834 -0.1152  0.5426
 4969TIP3    H136398   2.009   2.919   5.003  0.3980 -0.2617  0.2517
 4969TIP3    H236399   2.114   2.810   5.004  0.8859  0.2050  1.0493
 4970TIP3   OH236400   0.557   6.076   4.271  0.8457 -0.2542 -0.0837
 4970TIP3    H136401   0.567   6.040   4.183 -1.1387 -0.1427 -0.3968
 4970TIP3    H236402   0.498   6.014   4.315 -0.9884  1.5068  0.0129
 4971TIP3   OH236403   4.576   0.840  16.372  0.0447  0.0571  0.0651
 4971TIP3    H136404   4.628   0.762  16.391 -1.8388 -1.7624 -1.9316
 4971TIP3    H236405   4.624   0.884  16.301 -0.9220 -1.4335 -1.5390
 4972TIP3   OH236406   0.128   4.385   1.673  0.5301  0.1846  0.8257
 4972TIP3    H136407   0.050   4.410   1.723  0.9261  1.5116  0.8057
 4972TIP3    H236408   0.149   4.297   1.704 -1.0147 -0.2254  0.7797
 4973TIP3   OH236409   2.310   3.739  11.626  0.5390  0.0333  0.1756
 4973TIP3    H136410   2.322   3.767  11.536  1.6752  0.3574  0.4190
 4973TIP3    H236411   2.253   3.806  11.665 -0.7860 -0.6577 -0.5709
 4974TIP3   OH236412   3.427   1.628   0.545  0.3517 -0.1886 -0.0774
 4974TIP3    H136413   3.501   1.636   0.605 -0.0970  0.5782  0.3736
 4974TIP3    H236414   3.364   1.694   0.574 -0.7082 -1.1432 -0.1767
 4975TIP3   OH236415   2.369   5.544  13.887 -0.3097  0.1550  0.3851
 4975TIP3    H136416   2.424   5.513  13.958  0.0956 -1.3636 -0.5618
 4975TIP3    H236417   2.284   5.561  13.927 -0.3879 -1.6973  1.0546
 4976TIP3   OH236418   5.090   6.010  13.290  0.0870  0.2095 -0.2222
 4976TIP3    H136419   5.105   6.065  13.367  0.0389  3.7961 -2.6423
 4976TIP3    H236420   5.172   5.962  13.279  0.8454  1.2034  0.9063
 4977TIP3   OH236421   2.151   4.908  13.669 -0.3689  0.0525 -0.1045
 4977TIP3    H136422   2.061   4.940  13.665 -0.7060 -1.0533 -1.6735
 4977TIP3    H236423   2.143   4.813  13.674  0.6680  0.0444  2.5983
 4978TIP3   OH236424   1.700   4.689   1.762  0.1334  0.2013  0.0184
 4978TIP3    H136425   1.710   4.759   1.826 -0.4981  0.6440 -0.3645
 4978TIP3    H236426   1.624   4.715   1.710  0.4139 -0.3432 -0.6627
 4979TIP3   OH236427   1.276   1.306   0.279  0.4378  0.1215  0.3814
 4979TIP3    H136428   1.197   1.309   0.225  0.4008  1.0334  0.4647
 4979TIP3    H236429   1.287   1.214   0.301  0.2751 -0.2248 -0.9169
 4980TIP3   OH236430   5.546   2.468  13.251 -0.3993 -0.4070  0.4264
 4980TIP3    H136431   5.511   2.437  13.167 -1.0510  1.5444 -0.0533
 4980TIP3    H236432   5.618   2.526  13.228 -1.5431  1.3448  1.1225
 4981TIP3   OH236433   1.386   1.673  13.469  0.2621  0.2529 -0.1190
 4981TIP3    H136434   1.348   1.640  13.387 -0.1172  0.0913  0.1220
 4981TIP3    H236435   1.450   1.738  13.441 -1.1420  1.4971 -0.4906
 4982TIP3   OH236436   1.895   5.954   5.525 -0.3483  0.3164 -0.0738
 4982TIP3    H136437   1.913   5.895   5.452 -2.6793 -1.5992  0.8687
 4982TIP3    H236438   1.979   5.962   5.570  0.7830  0.4153 -2.1108
 4983TIP3   OH236439   1.603   3.318  16.048 -0.4310  0.3532  0.9198
 4983TIP3    H136440   1.666   3.277  16.108  0.2429  1.6059  1.0801
 4983TIP3    H236441   1.653   3.334  15.968 -1.3272 -1.3055 -0.0138
 4984TIP3   OH236442   2.326   6.427   0.968  0.1650  0.2820 -0.0452
 4984TIP3    H136443   2.360   6.442   0.880  0.4888  2.5155  0.4499
 4984TIP3    H236444   2.390   6.369   1.009  1.1085  0.9288 -0.5869
 4985TIP3   OH236445   1.315   0.570   3.355 -0.1830  0.0910 -0.4634
 4985TIP3    H136446   1.252   0.552   3.425  1.0219 -0.5078  0.4808
 4985TIP3    H236447   1.342   0.483   3.325  1.6289  0.3247  0.4514
 4986TIP3   OH236448   3.576   1.702  11.702  0.7548 -0.6315 -0.1534
 4986TIP3    H136449   3.518   1.703  11.626 -1.9973 -1.4247  1.8682
 4986TIP3    H236450   3.634   1.628  11.686  1.3969  0.2686 -2.2804
 4987TIP3   OH236451   2.853   5.598   3.878 -0.2965 -0.3883 -0.4428
 4987TIP3    H136452   2.856   5.615   3.784 -0.4116 -1.2151 -0.6029
 4987TIP3    H236453   2.835   5.504   3.884 -1.9371 -0.0394  0.4135
 4988TIP3   OH236454   4.849   4.861   3.631  0.0931 -0.0674  0.0216
 4988TIP3    H136455   4.784   4.795   3.606  0.9590 -0.6220 -0.8117
 4988TIP3    H236456   4.805   4.913   3.698 -0.7916 -1.1613  0.3158
 4989TIP3   OH236457   5.043   4.555  13.297 -0.3861  0.3684 -0.2335
 4989TIP3    H136458   5.136   4.531  13.293 -0.3616  0.2112  0.9998
 4989TIP3    H236459   5.018   4.570  13.206  1.1288  1.4549 -0.4985
 4990TIP3   OH236460   5.470   0.255   2.497 -0.2855 -0.0841 -0.0468
 4990TIP3    H136461   5.428   0.251   2.411 -0.4022  0.8300 -0.0420
 4990TIP3    H236462   5.559   0.285   2.479 -0.4581  0.5806  0.1918
 4991TIP3   OH236463   4.714   4.848   5.283  0.4504  0.4854 -0.0516
 4991TIP3    H136464   4.783   4.814   5.340  0.9173 -0.4969 -1.1692
 4991TIP3    H236465   4.636   4.799   5.309  0.3677  0.9650  0.6140
 4992TIP3   OH236466   1.886   5.097  16.436 -0.2085  0.4101  0.0520
 4992TIP3    H136467   1.845   5.034  16.495  1.1684 -0.4305  0.1481
 4992TIP3    H236468   1.884   5.179  16.484  0.9032 -0.2692  1.2917
 4993TIP3   OH236469   3.861   0.732  14.035 -0.5073  0.5143 -0.4877
 4993TIP3    H136470   3.790   0.669  14.020  1.1229 -1.4526 -0.0503
 4993TIP3    H236471   3.941   0.684  14.016  0.7115  2.9815 -1.8433
 4994TIP3   OH236472   1.481   3.182   1.490  0.8680  0.1763 -0.2377
 4994TIP3    H136473   1.521   3.131   1.419  0.7060 -0.4463  0.1177
 4994TIP3    H236474   1.394   3.206   1.457  1.8095  2.2537 -1.3581
 4995TIP3   OH236475   4.046   3.417   2.015  0.1774  0.0545 -0.4936
 4995TIP3    H136476   4.044   3.420   2.110  0.3224  1.3016 -0.5209
 4995TIP3    H236477   4.070   3.506   1.988 -0.0382 -0.2333 -1.6953
 4996TIP3   OH236478   6.610   4.292  15.414  0.0728 -0.6757  1.0399
 4996TIP3    H136479   6.547   4.275  15.343  1.1696 -1.4693  0.2383
 4996TIP3    H236480   6.573   4.247  15.490 -1.8307  1.3600  1.3721
 4997TIP3   OH236481   6.770   0.700  16.053 -0.0908 -0.1622  0.0876
 4997TIP3    H136482   6.848   0.673  16.102 -0.1803  0.6216  0.6590
 4997TIP3    H236483   6.758   0.792  16.076 -1.5356 -0.4386  0.4566
 4998TIP3   OH236484   3.035   5.148   0.114 -0.2575  0.3429 -0.1051
 4998TIP3    H136485   3.031   5.096   0.034  0.5503  1.0171 -0.5966
 4998TIP3    H236486   3.018   5.238   0.085 -2.0614  0.3305  0.7903
 4999TIP3   OH236487   4.977   3.547  15.479  0.3509  0.0777 -0.1234
 4999TIP3    H136488   4.994   3.638  15.505  2.1215 -0.0637 -0.7411
 4999TIP3    H236489   4.990   3.547  15.384  0.5150 -0.8651 -0.1030
 5000TIP3   OH236490   4.553   3.474  16.164 -0.4085 -0.0181  0.3546
 5000TIP3    H136491   4.466   3.441  16.143  0.2969 -1.2582 -0.6851
 5000TIP3    H236492   4.548   3.497  16.257 -1.1396 -2.3864  0.9217
 5001TIP3   OH236493   1.694   4.788   4.059  1.0344  0.2989 -0.3944
 5001TIP3    H136494   1.650   4.795   4.144  2.3782 -0.5918  0.3935
 5001TIP3    H236495   1.698   4.694   4.041 -1.9858  0.5868 -2.9476
 5002TIP3   OH236496   6.637   1.899   2.439  0.2263  0.4018  0.0256
 5002TIP3    H136497   6.594   1.830   2.490  0.1111 -0.3143 -1.0412
 5002TIP3    H236498   6.569   1.964   2.425  0.8062  1.6372  2.6208
 5003TIP3   OH236499   0.544   0.100   0.587 -0.1252 -0.4044 -0.3103
 5003TIP3    H136500   0.564   0.193   0.599  0.9224 -0.7647  0.9521
 5003TIP3    H236501   0.549   0.063   0.675 -0.1760 -1.7260 -0.8452
 5004TIP3   OH236502   4.116   3.815  16.303  0.0961  0.0025  0.3503
 5004TIP3    H136503   4.060   3.771  16.239  2.3192 -0.7286 -1.1518
 5004TIP3    H236504   4.091   3.907  16.297  0.9366  0.1167 -2.3446
 5005TIP3   OH236505   3.942   6.644   3.249 -0.5389 -0.0039 -0.0001
 5005TIP3    H136506   3.952   6.565   3.302  0.8362  0.2191  0.1035
 5005TIP3    H236507   3.892   6.704   3.304  2.1348  0.7667  1.6906
 5006TIP3   OH236508   4.262   1.661  16.544 -0.6265  0.7777 -0.5869
 5006TIP3    H136509   4.328   1.711  16.590 -0.2193  2.3995 -2.8299
 5006TIP3    H236510   4.218   1.725  16.488 -2.0258 -0.8462 -1.3953
 5007TIP3   OH236511   0.782   3.556  15.246  0.3383  0.4567  0.1280
 5007TIP3    H136512   0.757   3.600  15.164  0.1673 -1.7956 -1.0852
 5007TIP3    H236513   0.701   3.515  15.276  0.7486  0.0023  0.6156
 5008TIP3   OH236514   3.089   2.492   4.927  0.2790  0.1213 -0.4036
 5008TIP3    H136515   3.174   2.512   4.964  0.5454  0.0951 -0.9865
 5008TIP3    H236516   3.103   2.412   4.876  0.3596  1.1154 -2.0048
 5009TIP3   OH236517   2.321   0.666  13.716 -0.1289 -0.0063  0.0565
 5009TIP3    H136518   2.345   0.623  13.798 -0.6416 -0.7153 -0.1548
 5009TIP3    H236519   2.262   0.603  13.673  2.1810 -0.8371 -2.0320
 5010TIP3   OH236520   1.566   1.602   3.545  0.0447  0.2331  0.1572
 5010TIP3    H136521   1.635   1.667   3.558  0.2323  0.1553 -0.4312
 5010TIP3    H236522   1.600   1.544   3.477 -0.1863 -0.3924  0.5774
 5011TIP3   OH236523   1.755   6.302   0.046 -0.1853 -0.2454 -0.0216
 5011TIP3    H136524   1.771   6.394   0.069  1.7005 -0.3044 -0.9864
 5011TIP3    H236525   1.660   6.297   0.032 -0.3490  1.4830  0.3547
 5012TIP3   OH236526   2.354   6.563   3.494  0.0356  0.2562  0.3121
 5012TIP3    H136527   2.369   6.559   3.399 -0.3028  0.7575  0.2368
 5012TIP3    H236528   2.294   6.490   3.511 -0.9295  0.9481 -0.0606
 5013TIP3   OH236529   3.282   4.512  14.503 -0.2916 -0.7912  0.2697
 5013TIP3    H136530   3.267   4.606  14.494  2.6185 -0.4737 -1.7743
 5013TIP3    H236531   3.237   4.489  14.585  0.6528  2.7580  1.8977
 5014TIP3   OH236532   3.000   5.239  14.425 -1.0312 -0.3665 -0.4537
 5014TIP3    H136533   2.985   5.167  14.364 -0.6280 -1.3449  0.5954
 5014TIP3    H236534   3.095   5.250  14.428 -0.9597 -1.2442  1.0402
 5015TIP3   OH236535   3.776   3.486  10.467 -0.6618 -0.4475  0.9466
 5015TIP3    H136536   3.825   3.420  10.516 -0.8224 -1.9834 -0.8857
 5015TIP3    H236537   3.840   3.523  10.407 -0.6890  0.7571  1.6419
 5016TIP3   OH236538   0.578   0.373   5.987 -0.7424  0.5739  0.2693
 5016TIP3    H136539   0.654   0.344   6.039 -0.2110  0.0636 -0.7697
 5016TIP3    H236540   0.594   0.466   5.971  1.1795 -0.1668 -2.4312
 5017TIP3   OH236541   0.517   6.226   0.788 -0.8163  0.2012  0.4953
 5017TIP3    H136542   0.472   6.193   0.711  1.8955  0.6122 -1.3460
 5017TIP3    H236543   0.562   6.305   0.758  2.4429 -1.0728  1.7671
 5018TIP3   OH236544   6.429   6.084  10.545  0.1083 -0.3527  0.6274
 5018TIP3    H136545   6.509   6.132  10.564  0.2166 -0.6710  0.9877
 5018TIP3    H236546   6.458   5.993  10.533 -0.1557 -0.4116  0.4467
 5019TIP3   OH236547   6.223   0.030   6.288  0.2615 -0.1790  0.2363
 5019TIP3    H136548   6.307   0.014   6.331  1.3233  0.9527 -1.3880
 5019TIP3    H236549   6.175  -0.052   6.299  2.1932 -1.4067 -0.1956
 5020TIP3   OH236550   5.620   4.033  15.840 -0.2124 -0.4151  0.2636
 5020TIP3    H136551   5.693   4.037  15.779  0.3383  1.2122  0.9968
 5020TIP3    H236552   5.583   3.946  15.829  2.2676 -1.5032  0.3810
 5021TIP3   OH236553   0.693   0.185   1.018  0.8677 -0.2331  0.0914
 5021TIP3    H136554   0.770   0.229   1.055  0.5258  0.8919 -0.4901
 5021TIP3    H236555   0.656   0.135   1.091  1.3125  0.4105  0.7637
 5022TIP3   OH236556   4.614   5.331  14.699 -0.1165  0.0140  0.3611
 5022TIP3    H136557   4.561   5.370  14.769 -2.0194  0.4799 -1.2734
 5022TIP3    H236558   4.698   5.313  14.740 -0.7201  1.5657  2.4085
 5023TIP3   OH236559   4.105   6.087  16.857  0.1444 -0.1155  0.8062
 5023TIP3    H136560   4.113   5.993  16.839 -1.5463  0.0224 -0.7811
 5023TIP3    H236561   4.108   6.128  16.771 -1.5992  1.0852  1.3023
 5024TIP3   OH236562   0.464   6.040   2.676  0.1542 -0.1733  0.4375
 5024TIP3    H136563   0.434   5.979   2.608 -1.0128 -0.1280  0.8888
 5024TIP3    H236564   0.549   6.006   2.703  0.1303 -0.8224 -0.2810
 5025TIP3   OH236565   2.651   1.915   2.250 -0.6294  0.3058  0.1344
 5025TIP3    H136566   2.613   1.827   2.249  0.7609 -0.3305  1.2633
 5025TIP3    H236567   2.588   1.969   2.202 -2.7211 -0.7931  1.5757
 5026TIP3   OH236568   3.416   0.635  13.303  0.0410 -0.2038 -0.1677
 5026TIP3    H136569   3.330   0.672  13.282 -0.1454 -0.0056  0.9213
 5026TIP3    H236570   3.427   0.651  13.396  1.4304  0.0874 -0.3733
 5027TIP3   OH236571   0.428   4.592   2.039 -0.1623 -0.0853 -0.0893
 5027TIP3    H136572   0.397   4.502   2.046  0.4788 -0.4477 -1.7546
 5027TIP3    H236573   0.523   4.585   2.042 -0.0669  0.4023 -1.5714
 5028TIP3   OH236574   5.644   2.907  15.796 -0.0728 -0.0044 -0.6125
 5028TIP3    H136575   5.729   2.946  15.776 -0.2096 -0.4281 -2.0681
 5028TIP3    H236576   5.629   2.928  15.888 -0.1902  3.4310 -1.3597
 5029TIP3   OH236577   1.633   3.212   3.774 -0.1591  0.4449  0.2547
 5029TIP3    H136578   1.687   3.132   3.780  2.0987  1.9942  1.4433
 5029TIP3    H236579   1.578   3.209   3.852 -1.3988 -0.8596 -0.6568
 5030TIP3   OH236580   2.930   6.110   2.595  0.3254  0.3795  0.0237
 5030TIP3    H136581   2.942   6.055   2.518  2.6251  0.3039  0.4097
 5030TIP3    H236582   2.850   6.076   2.637  0.7169 -1.4823 -0.7060
 5031TIP3   OH236583   5.927   3.030   3.665  0.4494  0.2268  0.1999
 5031TIP3    H136584   5.956   2.997   3.580 -0.8706 -1.4859  0.3755
 5031TIP3    H236585   5.932   3.125   3.657  1.8220  0.0511 -1.2544
 5032TIP3   OH236586   5.378   0.567  13.240 -0.6943 -0.2949  0.5195
 5032TIP3    H136587   5.365   0.487  13.188 -1.3240  0.4357 -0.4709
 5032TIP3    H236588   5.335   0.636  13.189 -1.2074  0.4716  1.9442
 5033TIP3   OH236589   2.808   0.270  16.102 -0.3662 -0.0350 -0.2515
 5033TIP3    H136590   2.850   0.334  16.045 -0.9836  1.1869  0.6525
 5033TIP3    H236591   2.848   0.187  16.077  1.5821  0.9097 -0.3642
 5034TIP3   OH236592   4.931   5.192   2.951 -0.3411  0.9992  0.0100
 5034TIP3    H136593   4.984   5.171   2.874  0.6979  1.2447  0.6450
 5034TIP3    H236594   4.874   5.116   2.963  1.3608 -0.2277  0.5811
 5035TIP3   OH236595   3.582   3.565   6.550  0.7985 -0.6499  0.2535
 5035TIP3    H136596   3.517   3.556   6.480 -0.9307  1.1427  1.5601
 5035TIP3    H236597   3.548   3.510   6.620  1.3416 -0.6685  0.4990
 5036TIP3   OH236598   6.230   1.127  17.208  0.2220 -0.1990 -0.5079
 5036TIP3    H136599   6.164   1.192  17.234 -0.8114 -0.4402 -2.4350
 5036TIP3    H236600   6.277   1.106  17.289 -0.1454  2.1428  0.3458
 5037TIP3   OH236601   5.535   3.115   1.925  0.2533  0.2288  0.4473
 5037TIP3    H136602   5.543   3.204   1.892  1.0845  0.0861  0.2542
 5037TIP3    H236603   5.487   3.068   1.857  2.0725 -0.1015 -0.6402
 5038TIP3   OH236604   5.441   3.253   4.566  0.0575  0.2091  0.2028
 5038TIP3    H136605   5.442   3.320   4.498 -2.0111  1.2896  1.1782
 5038TIP3    H236606   5.435   3.170   4.518 -1.3967  0.9559 -0.9358
 5039TIP3   OH236607   2.770   3.934   3.488  0.2245 -0.5925 -0.5798
 5039TIP3    H136608   2.790   3.954   3.580 -0.1371  1.1524 -0.8710
 5039TIP3    H236609   2.732   3.846   3.491 -1.1109  0.0015  1.1330
 5040TIP3   OH236610   6.510   4.528   5.897  0.3754 -0.3687  0.4387
 5040TIP3    H136611   6.414   4.534   5.905  0.3564 -0.2868  0.1492
 5040TIP3    H236612   6.527   4.537   5.804  0.7255  0.3864  0.5746
 5041TIP3   OH236613   3.391   3.647   4.432  0.8925  0.0743 -0.3626
 5041TIP3    H136614   3.407   3.677   4.522  1.5724  1.6109 -0.9656
 5041TIP3    H236615   3.325   3.579   4.440  0.4196  0.7007  1.2405
 5042TIP3   OH236616   4.880   5.025   4.309 -0.1642  0.5989  0.0026
 5042TIP3    H136617   4.839   4.939   4.318  0.7164  0.3793  2.1547
 5042TIP3    H236618   4.957   5.009   4.254  1.0880 -0.3854  2.0040
 5043TIP3   OH236619   3.967   2.659   4.195  0.4715 -0.0289  0.0243
 5043TIP3    H136620   3.920   2.615   4.265 -1.3381 -0.9708 -1.7358
 5043TIP3    H236621   4.059   2.659   4.223 -0.0524 -1.5574  1.7606
 5044TIP3   OH236622   6.228   0.631   1.621 -0.5345  0.3303 -0.0890
 5044TIP3    H136623   6.285   0.699   1.654  1.1556 -1.5111  0.9027
 5044TIP3    H236624   6.178   0.601   1.697  0.0059 -0.7101 -0.1225
 5045TIP3   OH236625   5.331   0.169   1.935 -0.2904 -0.0735 -1.1035
 5045TIP3    H136626   5.294   0.129   1.856  0.6544 -0.8328 -1.1552
 5045TIP3    H236627   5.351   0.096   1.993  2.0683  0.2420 -1.4644
 5046TIP3   OH236628   0.641   1.463  15.526  0.2325  0.3132  0.6528
 5046TIP3    H136629   0.558   1.416  15.518  0.3380  0.1495  0.5220
 5046TIP3    H236630   0.620   1.539  15.581 -0.2217  0.7911 -0.1687
 5047TIP3   OH236631   0.985   6.235   3.988 -0.1458 -0.9547  0.0249
 5047TIP3    H136632   0.994   6.206   3.897 -1.4873  0.3513 -0.5577
 5047TIP3    H236633   0.897   6.272   3.992  1.1924  2.3028  0.9044
 5048TIP3   OH236634   4.352   6.461   5.227 -0.7249 -0.2649  0.1336
 5048TIP3    H136635   4.319   6.396   5.288  1.7281 -2.2531 -0.5599
 5048TIP3    H236636   4.415   6.413   5.173  3.5416  3.2871  1.5983
 5049TIP3   OH236637   4.743   6.777  12.089  0.6746  0.1279 -0.4740
 5049TIP3    H136638   4.692   6.765  12.169  0.6311 -0.2006 -0.5484
 5049TIP3    H236639   4.804   6.703  12.088  0.4252 -0.0769 -0.9256
 5050TIP3   OH236640   4.854   1.108   5.968  0.1709  0.3697  0.2111
 5050TIP3    H136641   4.924   1.078   5.909  0.5447  0.9364  0.3597
 5050TIP3    H236642   4.848   1.202   5.952 -0.5319  0.3288  0.2322
 5051TIP3   OH236643   0.608   5.348  12.081  0.4270  0.0557  0.6770
 5051TIP3    H136644   0.519   5.315  12.072  0.1469  1.0840 -0.4800
 5051TIP3    H236645   0.615   5.373  12.173  0.1874 -1.8567  1.2453
 5052TIP3   OH236646   0.449   6.569  10.976  0.2393 -0.2240 -0.5524
 5052TIP3    H136647   0.405   6.495  11.018 -0.1451  0.6968  0.7194
 5052TIP3    H236648   0.384   6.603  10.914  0.6217 -1.2816 -1.5482
 5053TIP3   OH236649   1.894   2.651   5.111 -0.8947 -0.1320  0.2100
 5053TIP3    H136650   1.971   2.602   5.139  0.6376  1.4806 -1.0051
 5053TIP3    H236651   1.832   2.644   5.184 -0.0158 -2.2925  0.7874
 5054TIP3   OH236652   3.730   3.097   3.894 -0.1313 -0.3547  0.2749
 5054TIP3    H136653   3.647   3.146   3.893  0.0628  0.0046  1.3585
 5054TIP3    H236654   3.705   3.008   3.869 -1.0286 -0.5126  1.6719
 5055TIP3   OH236655   1.494   6.766   4.395 -0.0476 -0.5544 -0.0180
 5055TIP3    H136656   1.427   6.702   4.418 -0.9567  0.4363  0.1858
 5055TIP3    H236657   1.508   6.816   4.476  1.8822 -1.5535  0.3024
 5056TIP3   OH236658   0.667   2.573  12.909  0.2164  0.7584  0.2835
 5056TIP3    H136659   0.581   2.597  12.943  1.0172  1.7764  1.5836
 5056TIP3    H236660   0.724   2.572  12.985  1.0887 -1.2699 -0.3506
 5057TIP3   OH236661   5.034   4.395  11.141 -0.4338 -0.0685 -0.0247
 5057TIP3    H136662   5.069   4.484  11.151  1.0819 -0.6997  0.4456
 5057TIP3    H236663   4.939   4.407  11.137 -0.2923  1.5031  0.8046
 5058TIP3   OH236664   3.602   0.373   3.778  0.9865 -0.0693 -0.2895
 5058TIP3    H136665   3.678   0.413   3.820  0.5008  0.0193  0.5300
 5058TIP3    H236666   3.591   0.289   3.822 -1.2561  1.2430  1.8490
 5059TIP3   OH236667   3.461   3.403  15.561  0.1828  0.2442  0.3214
 5059TIP3    H136668   3.488   3.451  15.640  0.0317 -0.7323  0.9731
 5059TIP3    H236669   3.415   3.468  15.509 -1.4828  0.4334  1.9544
 5060TIP3   OH236670   3.720   2.934   2.084  0.7560 -0.3364  0.3568
 5060TIP3    H136671   3.641   2.920   2.136  0.9422  1.6479  1.2033
 5060TIP3    H236672   3.792   2.914   2.143  0.9432  0.5345  0.4242
 5061TIP3   OH236673   0.087   1.472   5.247 -0.0884  0.1631 -0.2240
 5061TIP3    H136674   0.098   1.427   5.331  0.2969 -0.5330 -0.6386
 5061TIP3    H236675   0.077   1.401   5.184 -0.3480  0.6851 -0.7675
 5062TIP3   OH236676   1.312   0.001  15.219  0.1024 -0.4897  0.4871
 5062TIP3    H136677   1.335  -0.077  15.167 -0.7116 -0.3912 -0.0358
 5062TIP3    H236678   1.248  -0.031  15.282 -0.6513 -0.1418 -0.0899
 5063TIP3   OH236679   2.421   4.858  13.631  0.5058  0.4508  0.2788
 5063TIP3    H136680   2.334   4.889  13.657 -0.0461 -1.1265  0.3775
 5063TIP3    H236681   2.480   4.929  13.656 -0.7558  1.6051  0.1029
 5064TIP3   OH236682   4.114   0.318   0.586 -0.2116  0.0553 -0.1549
 5064TIP3    H136683   4.188   0.261   0.561 -1.1795 -0.3723 -2.0907
 5064TIP3    H236684   4.155   0.401   0.609  0.9791 -0.5227 -0.1259
 5065TIP3   OH236685   6.465   4.128  12.202  0.2595  0.1541 -0.1481
 5065TIP3    H136686   6.505   4.200  12.155 -1.1770  0.0448 -1.5886
 5065TIP3    H236687   6.537   4.069  12.222  1.2186  1.2746 -0.2409
 5066TIP3   OH236688   0.082   6.092  13.123 -0.5227 -0.1886  0.2278
 5066TIP3    H136689   0.126   6.134  13.049 -0.6966  0.7598  0.6521
 5066TIP3    H236690  -0.010   6.117  13.113 -0.7277 -0.9776  0.1413
 5067TIP3   OH236691   4.515   3.200   4.313  0.4501 -0.0017 -0.0273
 5067TIP3    H136692   4.449   3.159   4.369  0.4142 -1.0525 -0.8320
 5067TIP3    H236693   4.578   3.130   4.295  1.4568  0.8255  0.2262
 5068TIP3   OH236694   4.299   4.645  16.370  0.3507  0.7983 -0.0076
 5068TIP3    H136695   4.347   4.706  16.426  0.9121  0.9676 -0.6647
 5068TIP3    H236696   4.367   4.592  16.329 -0.0792  0.4109 -0.2308
 5069TIP3   OH236697   3.888   4.582  16.728  0.4287  0.1556 -0.4208
 5069TIP3    H136698   3.926   4.600  16.813  0.1851 -0.2340 -0.2270
 5069TIP3    H236699   3.907   4.660  16.676 -0.0611  0.6989  0.2089
 5070TIP3   OH236700   1.173   6.235  11.823 -0.3442  0.2084  0.0446
 5070TIP3    H136701   1.115   6.277  11.887  0.6350  0.2724  0.9024
 5070TIP3    H236702   1.170   6.292  11.747 -0.5118  0.8191  0.5040
 5071TIP3   OH236703   4.058   5.542   5.489 -0.0048  0.3520  0.5269
 5071TIP3    H136704   4.110   5.462   5.478 -1.2152 -0.4102  0.2238
 5071TIP3    H236705   3.999   5.543   5.413 -1.4055  0.4447  1.5935
 5072TIP3   OH236706   5.200   2.263   0.690 -0.0520 -0.4265 -0.8041
 5072TIP3    H136707   5.242   2.190   0.644 -0.2091 -1.0824  0.0864
 5072TIP3    H236708   5.135   2.222   0.747 -0.1046  0.4034 -0.2553
 5073TIP3   OH236709   5.521   0.073  11.400  0.1474 -0.3169  0.1084
 5073TIP3    H136710   5.523   0.020  11.479 -1.0561  0.8781  0.9496
 5073TIP3    H236711   5.607   0.114  11.396  0.0214  0.0467  1.0904
 5074TIP3   OH236712   2.896   2.558  13.872  0.2452  0.4992 -0.5963
 5074TIP3    H136713   2.810   2.592  13.849  0.3226  1.0651 -0.0596
 5074TIP3    H236714   2.878   2.493  13.940  0.2063  0.3235 -0.7732
 5075TIP3   OH236715   5.427   3.900   3.952  0.3988  0.7495  0.2976
 5075TIP3    H136716   5.478   3.978   3.974 -1.0211  1.5065  0.9839
 5075TIP3    H236717   5.448   3.883   3.860  1.7266  1.1602  0.5176
 5076TIP3   OH236718   2.514   6.510  12.793  0.0004  0.4641 -0.1447
 5076TIP3    H136719   2.556   6.447  12.852  1.3909  1.0951 -0.4321
 5076TIP3    H236720   2.575   6.518  12.720 -1.0013  0.8307 -0.9446
 5077TIP3   OH236721   4.845   3.887   0.282 -0.4834 -0.0507 -0.1215
 5077TIP3    H136722   4.808   3.930   0.205  1.8000  1.9552 -0.1702
 5077TIP3    H236723   4.890   3.957   0.330  1.0226 -1.8756  1.2392
 5078TIP3   OH236724   4.233   3.048  11.494  0.1475  0.6350  0.0808
 5078TIP3    H136725   4.220   3.095  11.576 -0.3323 -0.4482  0.6359
 5078TIP3    H236726   4.275   2.966  11.519 -1.8116 -0.5792 -0.5204
 5079TIP3   OH236727   5.710   3.670  11.409  0.8466  0.0371 -0.0959
 5079TIP3    H136728   5.735   3.755  11.446  1.8819 -0.6524  0.8314
 5079TIP3    H236729   5.781   3.647  11.350 -0.0726  0.4162 -1.3736
 5080TIP3   OH236730   3.723   3.968   0.883 -0.0161  0.4884 -0.0825
 5080TIP3    H136731   3.810   3.929   0.879 -0.7935 -1.2063 -0.9674
 5080TIP3    H236732   3.681   3.943   0.801 -2.2438 -0.9247  1.4180
 5081TIP3   OH236733   4.797   3.455   5.558 -0.1491  0.7082  0.0885
 5081TIP3    H136734   4.822   3.474   5.648  2.4937  0.9993 -0.6909
 5081TIP3    H236735   4.811   3.360   5.549  0.3607  0.8125 -0.2432
 5082TIP3   OH236736   1.691   6.610   2.361 -0.1534 -0.4471 -0.4232
 5082TIP3    H136737   1.767   6.585   2.412  0.4230  1.4841 -0.2928
 5082TIP3    H236738   1.644   6.528   2.346  0.0889 -1.1663  2.4763
 5083TIP3   OH236739   3.404   5.361  15.685  0.4127  0.0785 -0.1463
 5083TIP3    H136740   3.378   5.340  15.775 -0.9649 -0.5210 -0.6805
 5083TIP3    H236741   3.376   5.285  15.633 -1.5422  1.7329 -1.5623
 5084TIP3   OH236742   4.800   5.587   2.947 -0.4863  0.6517  0.7013
 5084TIP3    H136743   4.827   5.512   3.000 -1.0366 -0.7332 -0.9620
 5084TIP3    H236744   4.869   5.596   2.881  0.0134  2.1543  1.3913
 5085TIP3   OH236745   4.946   5.344   2.102  0.5502  0.0441  0.4892
 5085TIP3    H136746   5.001   5.314   2.029  4.2696 -1.9460  3.9130
 5085TIP3    H236747   5.002   5.403   2.152 -1.8867  1.2650  1.8517
 5086TIP3   OH236748   4.231   1.761  12.284  0.1941  0.1551 -0.0038
 5086TIP3    H136749   4.140   1.733  12.275 -0.1685  1.3544 -0.1810
 5086TIP3    H236750   4.270   1.744  12.199 -0.8233  2.9588 -1.0916
 5087TIP3   OH236751   5.054   4.174   2.708  0.4985  0.1583 -0.2559
 5087TIP3    H136752   4.984   4.142   2.650 -1.8222  3.5552  0.5412
 5087TIP3    H236753   5.024   4.153   2.796  1.5260 -0.2802 -0.0046
 5088TIP3   OH236754   4.893   2.644  11.860  0.7794 -0.0327 -0.5141
 5088TIP3    H136755   4.904   2.719  11.918 -1.0618  0.1774 -0.3984
 5088TIP3    H236756   4.915   2.568  11.913 -2.1372  0.0419  0.9177
 5089TIP3   OH236757   5.477   2.893   1.709  0.0708  0.3292 -0.6256
 5089TIP3    H136758   5.402   2.861   1.659  0.1722  1.9621 -1.8411
 5089TIP3    H236759   5.538   2.819   1.711 -1.3304 -0.8510 -0.0497
 5090TIP3   OH236760   3.700   5.299  12.872 -0.0485  0.2415 -0.0298
 5090TIP3    H136761   3.794   5.296  12.887  0.1750  0.9948 -1.2338
 5090TIP3    H236762   3.667   5.218  12.909  0.9527  0.4092  1.2497
 5091TIP3   OH236763   0.759   4.202  14.444 -0.3993 -0.1026  0.0967
 5091TIP3    H136764   0.758   4.180  14.537 -0.1519 -0.5221  0.0023
 5091TIP3    H236765   0.823   4.273  14.436 -1.3372  0.7857  0.4315
 5092TIP3   OH236766   1.173   3.416   4.589  0.4947  0.1598 -0.1405
 5092TIP3    H136767   1.159   3.323   4.569 -1.4655  0.6173 -1.1124
 5092TIP3    H236768   1.116   3.432   4.665  0.6059  0.6334 -0.1596
 5093TIP3   OH236769   0.701   2.621  12.065  0.0898  0.0303  0.7337
 5093TIP3    H136770   0.771   2.556  12.067  0.2047  0.1182 -0.2319
 5093TIP3    H236771   0.640   2.588  11.998  0.0927  0.8562  0.3188
 5094TIP3   OH236772   5.552   6.365  15.595  0.6187  0.2352 -0.2376
 5094TIP3    H136773   5.482   6.310  15.627 -0.7556  2.4176  0.6525
 5094TIP3    H236774   5.507   6.437  15.549  2.3448  0.3589 -1.8006
 5095TIP3   OH236775   5.693   5.154  14.168  0.0858 -0.0483  0.3784
 5095TIP3    H136776   5.747   5.075  14.171 -1.1442 -0.9605 -1.0023
 5095TIP3    H236777   5.603   5.122  14.170 -0.4756  1.1425 -2.7578
 5096TIP3   OH236778   4.511   4.075   6.288  0.7621 -0.0878 -0.1432
 5096TIP3    H136779   4.529   4.169   6.297 -2.2375  0.7425 -2.2764
 5096TIP3    H236780   4.460   4.053   6.366 -1.7885  0.9592 -1.4632
 5097TIP3   OH236781   5.746   4.150   2.112  0.5006  0.0420 -0.3146
 5097TIP3    H136782   5.738   4.213   2.040  3.2562  0.8655  0.0480
 5097TIP3    H236783   5.726   4.200   2.191  1.7407  0.2499 -0.1187
 5098TIP3   OH236784   4.303   4.513  12.043  0.0519 -0.4186  0.4809
 5098TIP3    H136785   4.255   4.580  12.092  1.6822  1.2500 -0.1134
 5098TIP3    H236786   4.383   4.499  12.093  0.0215 -1.4373  0.2454
 5099TIP3   OH236787   3.688   2.833   5.765 -0.0391 -0.1733 -0.4728
 5099TIP3    H136788   3.759   2.780   5.802 -0.5012 -0.2495  0.3189
 5099TIP3    H236789   3.714   2.924   5.782 -0.0937 -0.1981 -0.2630
 5100TIP3   OH236790   1.192   5.756  13.817 -0.1131 -0.0222  0.3845
 5100TIP3    H136791   1.129   5.700  13.772  0.1835 -0.1041  0.0677
 5100TIP3    H236792   1.157   5.765  13.906 -1.7164  1.7540 -0.4113
 5101TIP3   OH236793   4.693   3.412   4.565 -0.2996  0.6445  0.4055
 5101TIP3    H136794   4.729   3.385   4.650 -0.0574 -0.0375  0.0843
 5101TIP3    H236795   4.704   3.336   4.509  0.8143  1.5730 -0.6458
 5102TIP3   OH236796   1.226   1.261   5.330 -0.0271 -0.1115 -0.2373
 5102TIP3    H136797   1.316   1.240   5.305  0.6694  2.2771  0.1010
 5102TIP3    H236798   1.226   1.256   5.425 -0.6507 -1.5540 -0.3057
 5103TIP3   OH236799   1.539   4.650   2.823  0.4026 -0.3450 -0.2612
 5103TIP3    H136800   1.617   4.689   2.782  0.1225  1.0308  0.4929
 5103TIP3    H236801   1.509   4.716   2.885 -0.5186 -1.4799  0.5171
 5104TIP3   OH236802   1.242   3.248   5.096 -0.2760  0.2931  0.1307
 5104TIP3    H136803   1.186   3.321   5.122  0.3463  0.4733  0.9625
 5104TIP3    H236804   1.331   3.278   5.115 -0.0603 -0.9628  1.1655
 5105TIP3   OH236805   6.321   6.084  13.446  0.2003  0.0529  0.0307
 5105TIP3    H136806   6.253   6.094  13.379  0.3957  2.5155  0.1850
 5105TIP3    H236807   6.278   6.111  13.527 -0.0710 -3.0337  0.9958
 5106TIP3   OH236808   2.010   0.882  16.906 -0.2113 -0.4159 -0.1488
 5106TIP3    H136809   2.104   0.870  16.914 -0.3400 -0.6673  1.1352
 5106TIP3    H236810   1.999   0.975  16.886  0.2352 -0.0121  1.4069
 5107TIP3   OH236811   2.602   5.667  12.473 -0.1024 -0.1008 -0.6213
 5107TIP3    H136812   2.669   5.662  12.542 -0.8811 -1.5886  0.0530
 5107TIP3    H236813   2.607   5.582  12.429 -0.4161  0.4100 -1.6529
 5108TIP3   OH236814   5.045   0.593   3.888  0.6307  0.0393 -0.3300
 5108TIP3    H136815   5.043   0.600   3.792 -1.0171  1.2828 -0.2258
 5108TIP3    H236816   4.959   0.556   3.911  0.3090  1.4333  0.7733
 5109TIP3   OH236817   2.686   4.650   3.511 -0.2728  0.4242 -0.1423
 5109TIP3    H136818   2.626   4.664   3.438 -0.7331  1.8998  0.5140
 5109TIP3    H236819   2.650   4.702   3.583  0.9072  0.0417  0.7462
 5110TIP3   OH236820   6.317   1.565   2.262  0.5005  0.1578 -0.3831
 5110TIP3    H136821   6.317   1.558   2.166 -1.0331  1.6688 -0.5160
 5110TIP3    H236822   6.359   1.484   2.292  0.3286 -0.6701 -2.3033
 5111TIP3   OH236823   2.144   1.569   6.265 -0.1511 -0.1849 -0.2367
 5111TIP3    H136824   2.153   1.474   6.261  0.1554 -0.1659 -0.0562
 5111TIP3    H236825   2.196   1.595   6.342 -0.1463  0.1384 -0.3455
 5112TIP3   OH236826   4.764   6.270   5.542 -0.0335  0.2690 -0.6211
 5112TIP3    H136827   4.677   6.252   5.506 -0.5210  2.2132 -0.4644
 5112TIP3    H236828   4.748   6.296   5.633  0.9975 -2.3339  0.3583
 5113TIP3   OH236829   3.033   2.428  12.982  0.3131 -0.1045 -0.0204
 5113TIP3    H136830   3.007   2.466  13.066 -1.5401  0.2749 -0.7354
 5113TIP3    H236831   3.099   2.488  12.947 -0.3895  0.8435  0.2520
 5114TIP3   OH236832   6.148   0.440   4.735  0.1779  0.2211  0.2339
 5114TIP3    H136833   6.082   0.371   4.747  0.3863  0.2854  1.8617
 5114TIP3    H236834   6.099   0.521   4.743  0.3865  0.2661  1.2273
 5115TIP3   OH236835   4.696   2.840  11.182 -0.9676 -0.2896  0.0751
 5115TIP3    H136836   4.771   2.781  11.184  0.8317  1.9054  0.2080
 5115TIP3    H236837   4.634   2.804  11.245 -0.3406 -2.5242 -0.5546
 5116TIP3   OH236838   5.030   3.152   2.217 -0.3473 -0.4184 -0.1192
 5116TIP3    H136839   5.120   3.125   2.199  0.2217  0.0597  1.9222
 5116TIP3    H236840   4.982   3.069   2.222  0.2740 -0.7579  0.3409
 5117TIP3   OH236841   0.828   1.839  13.902  0.0265 -0.2776 -0.0951
 5117TIP3    H136842   0.867   1.916  13.861 -0.7742  0.3765  0.3454
 5117TIP3    H236843   0.871   1.833  13.987  0.9533 -1.0373 -0.5979
 5118TIP3   OH236844   0.934   2.240  13.523  0.1380  0.2410  0.0734
 5118TIP3    H136845   1.018   2.241  13.568  0.4676 -0.6276 -0.5183
 5118TIP3    H236846   0.917   2.147  13.506 -0.8678  0.4193  0.0535
 5119TIP3   OH236847   2.602   4.482   1.977 -0.5131 -0.0785  0.3490
 5119TIP3    H136848   2.521   4.525   1.950  0.8795  2.9369  0.8003
 5119TIP3    H236849   2.585   4.454   2.067 -2.0484 -2.1731 -0.5400
 5120TIP3   OH236850   3.588   0.295   0.885 -0.0059  0.0521  0.2524
 5120TIP3    H136851   3.668   0.327   0.842  1.0277  2.5205  3.8696
 5120TIP3    H236852   3.606   0.202   0.902  1.0881 -0.0028 -1.0859
 5121TIP3   OH236853   0.156   1.503  14.148  0.2081  0.0397 -0.5170
 5121TIP3    H136854   0.175   1.498  14.054 -0.4422 -2.4012 -0.5384
 5121TIP3    H236855   0.075   1.453  14.159 -0.7515  1.8589  1.0925
 5122TIP3   OH236856   4.243   0.944  12.302  0.0046 -0.2669 -0.2112
 5122TIP3    H136857   4.239   0.906  12.390  0.1424  0.1424 -0.0287
 5122TIP3    H236858   4.175   1.012  12.302  0.9650  0.7030  0.0404
 5123TIP3   OH236859   3.766   5.557   2.270 -0.6681  0.0788 -0.5123
 5123TIP3    H136860   3.828   5.484   2.266 -0.8130  0.0335 -2.3737
 5123TIP3    H236861   3.792   5.615   2.198  0.1044  2.4417  1.6165
 5124TIP3   OH236862   3.409   3.080   0.375 -0.3713  0.2113 -0.4809
 5124TIP3    H136863   3.377   3.005   0.424  0.4940 -0.6993 -1.2709
 5124TIP3    H236864   3.332   3.115   0.330 -0.7960 -0.1229 -0.0110
 5125TIP3   OH236865   0.301   2.409  15.731 -0.3820 -0.3211 -0.2191
 5125TIP3    H136866   0.266   2.386  15.817 -1.3472 -0.8127 -0.7328
 5125TIP3    H236867   0.295   2.327  15.681  0.6427 -0.1639 -0.5992
 5126TIP3   OH236868   4.405   5.709   1.948 -0.2383 -0.3335 -0.2058
 5126TIP3    H136869   4.339   5.645   1.974 -0.3501 -0.3125 -0.4395
 5126TIP3    H236870   4.413   5.698   1.853  1.2716 -1.4576  0.0388
 5127TIP3   OH236871   1.827   4.744  15.717  0.5368 -0.0529 -0.4812
 5127TIP3    H136872   1.875   4.685  15.775  0.0912  0.0755  0.0178
 5127TIP3    H236873   1.753   4.693  15.687 -0.1420  0.4159  0.3650
 5128TIP3   OH236874   0.774   2.001  13.575  0.0790  0.1247  0.3338
 5128TIP3    H136875   0.711   2.009  13.503  1.3139 -0.8519 -0.8992
 5128TIP3    H236876   0.778   1.906  13.592  0.8509  0.2266  0.7179
 5129TIP3   OH236877   1.545   4.246   4.926 -0.0301  0.2551 -0.0363
 5129TIP3    H136878   1.528   4.319   4.985  0.1091  0.6839 -0.5182
 5129TIP3    H236879   1.641   4.239   4.923 -0.0471 -0.0703  0.1561
 5130TIP3   OH236880   3.709   6.417   4.612 -0.5699  0.3340 -0.6347
 5130TIP3    H136881   3.668   6.500   4.590  0.1446  0.0598 -3.1140
 5130TIP3    H236882   3.784   6.440   4.667 -0.5281  1.2992 -1.0980
 5131TIP3   OH236883   4.080   1.639  14.856 -0.3143  0.3069 -0.1119
 5131TIP3    H136884   4.077   1.559  14.804 -0.2133  0.9068 -1.0507
 5131TIP3    H236885   4.134   1.617  14.931 -3.1049 -1.5426  1.4273
 5132TIP3   OH236886   1.662   2.649   1.584 -0.0742 -0.4708  0.7318
 5132TIP3    H136887   1.723   2.722   1.577 -1.6615  0.8857  0.6906
 5132TIP3    H236888   1.699   2.594   1.653  1.2473  0.2569  0.6271
 5133TIP3   OH236889   4.392   2.618  11.549 -0.2720 -0.4359 -0.3165
 5133TIP3    H136890   4.302   2.613  11.582  0.1177 -0.6669  0.7435
 5133TIP3    H236891   4.399   2.545  11.487 -0.5915 -0.8827  0.1633
 5134TIP3   OH236892   4.636   3.987  14.096 -0.1999  0.0933  0.1649
 5134TIP3    H136893   4.558   3.938  14.070 -0.8866  0.6447  1.1660
 5134TIP3    H236894   4.604   4.075  14.114  0.6284  0.2727  0.7749
 5135TIP3   OH236895   6.214   1.540  15.684  0.1305  0.1916 -0.2592
 5135TIP3    H136896   6.206   1.448  15.712 -1.0758  0.0472 -1.0519
 5135TIP3    H236897   6.236   1.587  15.765  1.6938 -0.9215 -0.0267
 5136TIP3   OH236898   6.578   4.934  14.240  0.0002 -0.1312  0.6220
 5136TIP3    H136899   6.496   4.935  14.290 -0.1179 -0.3298  0.4301
 5136TIP3    H236900   6.621   4.852  14.265 -0.8784 -1.0812 -0.9422
 5137TIP3   OH236901   0.737   5.174  16.809  0.0523 -0.5200 -0.0927
 5137TIP3    H136902   0.785   5.206  16.733  0.0672 -0.5844 -0.1098
 5137TIP3    H236903   0.742   5.079  16.803 -0.2443 -0.5288 -0.2018
 5138TIP3   OH236904   0.700   5.146   6.283  0.2805  0.5246 -0.1887
 5138TIP3    H136905   0.729   5.102   6.363 -1.2174 -1.9394 -0.9221
 5138TIP3    H236906   0.749   5.102   6.213  0.0917  1.2775 -0.7995
 5139TIP3   OH236907   3.281   1.052   3.177  0.0164  0.0057 -0.1412
 5139TIP3    H136908   3.281   1.148   3.176 -1.9652  0.0418  0.2815
 5139TIP3    H236909   3.266   1.028   3.085  2.4637  0.0519 -0.5707
 5140TIP3   OH236910   5.121   1.235   5.273 -0.0503 -0.1686  0.6324
 5140TIP3    H136911   5.056   1.186   5.223 -0.1265 -1.4628  1.9789
 5140TIP3    H236912   5.071   1.303   5.317 -0.0939  0.5045 -0.4408
 5141TIP3   OH236913   2.276   0.960   6.248  0.5376  0.0806 -0.0536
 5141TIP3    H136914   2.358   1.009   6.257  0.7251 -0.4135  0.9196
 5141TIP3    H236915   2.220   0.994   6.317 -0.2838  0.8070 -1.0636
 5142TIP3   OH236916   0.843   3.545   1.069 -0.1829  0.2778  0.7595
 5142TIP3    H136917   0.936   3.570   1.074  0.3275 -1.6598  1.6755
 5142TIP3    H236918   0.841   3.455   1.101 -2.5388  0.6302  1.7184
 5143TIP3   OH236919   0.424   1.972  11.377  0.3464  0.0150 -0.0301
 5143TIP3    H136920   0.471   1.923  11.310 -1.2752  0.8331 -1.8191
 5143TIP3    H236921   0.373   1.905  11.423  0.4866 -0.3848 -0.4513
 5144TIP3   OH236922   3.280   3.076   1.409 -0.1871  0.3388  0.1814
 5144TIP3    H136923   3.267   3.099   1.501  0.1248  1.9191 -0.1573
 5144TIP3    H236924   3.227   2.997   1.397 -1.2054  0.8075  1.4116
 5145TIP3   OH236925   0.575   1.608   4.431  0.2073  0.2398 -0.0041
 5145TIP3    H136926   0.654   1.650   4.465 -0.0028  0.2144  0.5210
 5145TIP3    H236927   0.588   1.515   4.449  0.5526  0.1105 -0.9215
 5146TIP3   OH236928   5.524   0.608  15.312 -0.0723 -0.2017 -0.2055
 5146TIP3    H136929   5.591   0.554  15.270 -0.0812 -2.2619  2.2842
 5146TIP3    H236930   5.441   0.570  15.283 -0.0897 -0.9495  0.8144
 5147TIP3   OH236931   6.314   2.379   3.233 -0.7485  0.1690  0.0503
 5147TIP3    H136932   6.288   2.456   3.184 -0.2703  0.6900  0.6061
 5147TIP3    H236933   6.250   2.373   3.304 -0.2730  0.5512  0.5099
 5148TIP3   OH236934   5.412   0.453  13.846  0.5096  0.0975  0.4148
 5148TIP3    H136935   5.412   0.390  13.918  0.5068 -0.2654  0.0968
 5148TIP3    H236936   5.355   0.523  13.876  3.1542  1.5880  2.2032
 5149TIP3   OH236937   1.159   6.733  11.617 -0.7944  0.0437  1.0252
 5149TIP3    H136938   1.072   6.716  11.579  0.4785  2.0822 -3.1107
 5149TIP3    H236939   1.194   6.645  11.633 -1.0808 -1.0868 -3.6278
 5150TIP3   OH236940   3.999   5.271  17.050  0.3697  0.2698  0.5262
 5150TIP3    H136941   3.962   5.268  16.962  0.4438 -3.2378  0.5482
 5150TIP3    H236942   3.932   5.315  17.103  0.6011  3.0001 -1.3360
 5151TIP3   OH236943   2.851   3.741  14.173  0.0394 -0.0803 -0.4434
 5151TIP3    H136944   2.915   3.687  14.218 -0.7357 -0.0588  0.7160
 5151TIP3    H236945   2.828   3.692  14.094  0.3964 -0.7647 -0.1174
 5152TIP3   OH236946   3.099   6.222  16.210 -0.7476 -0.1132 -0.1496
 5152TIP3    H136947   3.174   6.274  16.239 -1.5760  0.9314  0.1773
 5152TIP3    H236948   3.053   6.278  16.148 -1.3018 -0.7070 -0.2834
 5153TIP3   OH236949   5.086   1.114   0.587 -0.0565  0.0304 -0.0616
 5153TIP3    H136950   5.068   1.129   0.679  0.2326 -1.4373  0.2350
 5153TIP3    H236951   5.129   1.195   0.558  2.4445 -0.5544  1.7947
 5154TIP3   OH236952   0.923   5.335  16.240 -0.1610  0.1242  0.0289
 5154TIP3    H136953   0.952   5.408  16.186 -1.3025  0.2040 -0.4967
 5154TIP3    H236954   1.003   5.288  16.263  0.4674  0.9037 -0.5525
 5155TIP3   OH236955   6.733   3.279  11.430 -0.0037 -0.0461  0.1815
 5155TIP3    H136956   6.801   3.211  11.438 -0.1410 -0.3921 -1.4705
 5155TIP3    H236957   6.776   3.359  11.461  1.4485 -0.0851 -1.6569
 5156TIP3   OH236958   3.433   5.437  17.060 -0.7423 -0.0433  0.1397
 5156TIP3    H136959   3.359   5.493  17.081 -0.2034  0.1461  1.5857
 5156TIP3    H236960   3.485   5.488  16.998 -2.0973 -0.4070 -1.3208
 5157TIP3   OH236961   5.688   6.452  11.576  0.0580  0.1755 -0.2392
 5157TIP3    H136962   5.596   6.476  11.579 -0.2050 -0.9414  1.1886
 5157TIP3    H236963   5.696   6.376  11.635  1.7550 -0.1613 -0.8463
 5158TIP3   OH236964   4.920   5.847  15.379 -0.0329 -0.2388 -0.1164
 5158TIP3    H136965   4.963   5.800  15.451 -1.1671  0.3374  0.9600
 5158TIP3    H236966   4.850   5.788  15.350  0.3152 -0.3976 -0.6468
 5159TIP3   OH236967   3.199   4.753   4.103  0.7603  0.6342 -0.3413
 5159TIP3    H136968   3.194   4.675   4.159 -0.0503 -0.5447 -2.0268
 5159TIP3    H236969   3.167   4.824   4.158 -0.8936 -0.6624  0.4221
 5160TIP3   OH236970   6.676   2.439  14.657 -0.0763  0.5067  0.3222
 5160TIP3    H136971   6.677   2.409  14.566 -1.4120  1.1234  0.0882
 5160TIP3    H236972   6.768   2.441  14.683  0.2171 -0.9499 -0.5928
 5161TIP3   OH236973   3.003   5.272   3.367  0.2872  0.6522  0.1010
 5161TIP3    H136974   2.958   5.201   3.320  0.2608 -0.0746  1.1901
 5161TIP3    H236975   2.933   5.315   3.417  0.5901  0.3049  0.8313
 5162TIP3   OH236976   0.836   4.055   0.514  0.1509  0.1767 -0.2162
 5162TIP3    H136977   0.788   4.066   0.596 -0.5988 -0.4970 -0.5480
 5162TIP3    H236978   0.771   4.019   0.454  0.5168  1.3145 -1.3028
 5163TIP3   OH236979   1.621   2.556  13.313 -0.1591 -0.0900 -0.6385
 5163TIP3    H136980   1.614   2.524  13.223  1.4549 -0.0238 -0.8032
 5163TIP3    H236981   1.553   2.623  13.320 -1.3575 -1.2109 -1.3035
 5164TIP3   OH236982   6.501   3.975  13.199 -0.0378 -0.0895 -0.3758
 5164TIP3    H136983   6.509   3.950  13.291 -2.3297  0.3685 -0.0181
 5164TIP3    H236984   6.507   3.893  13.151 -1.1123 -0.5874  0.3397
 5165TIP3   OH236985   1.976   3.898   6.281  0.1647 -0.2153 -0.4985
 5165TIP3    H136986   1.898   3.931   6.324 -2.9038 -2.5153 -4.0021
 5165TIP3    H236987   2.010   3.830   6.339 -1.9631 -0.9719 -0.1242
 5166TIP3   OH236988   2.756   5.035   5.164 -0.1876 -0.3549  0.3350
 5166TIP3    H136989   2.729   5.070   5.249 -0.7070 -0.1559  0.0933
 5166TIP3    H236990   2.689   4.970   5.143 -0.4657  0.1246 -0.2635
 5167TIP3   OH236991   5.380   0.646   5.028  0.5587 -0.2805  0.2907
 5167TIP3    H136992   5.474   0.665   5.027  0.4135  0.4917  1.0226
 5167TIP3    H236993   5.357   0.644   5.121 -0.3518  0.5903  0.0930
 5168TIP3   OH236994   1.720   1.228  14.513  0.4430 -0.0817 -0.1957
 5168TIP3    H136995   1.783   1.295  14.538  0.5094  0.0894 -0.8190
 5168TIP3    H236996   1.653   1.276  14.464  0.1187 -0.3556 -0.0234
 5169TIP3   OH236997   3.283   1.068   1.648 -0.7396 -0.5433 -0.1876
 5169TIP3    H136998   3.219   1.061   1.577  1.5429 -0.7880 -2.2943
 5169TIP3    H236999   3.345   1.134   1.618  0.4719 -0.9094  1.4244
 5170TIP3   OH237000   5.896   2.170  12.972  0.0795  0.3854 -0.0584
 5170TIP3    H137001   5.826   2.104  12.968 -0.6109  1.0381  0.9736
 5170TIP3    H237002   5.940   2.163  12.887  0.4165 -1.8384  0.2611
 5171TIP3   OH237003   1.027   2.474   2.924 -0.2571 -0.2692 -0.2918
 5171TIP3    H137004   0.964   2.544   2.910 -0.6854 -0.7490 -0.7861
 5171TIP3    H237005   0.986   2.397   2.884  1.4373 -0.1941 -2.2463
 5172TIP3   OH237006   0.653   2.283  11.488 -0.1929  1.1496 -0.4427
 5172TIP3    H137007   0.741   2.274  11.526 -0.2975 -0.0154 -0.4575
 5172TIP3    H237008   0.652   2.371  11.451  0.0692  2.1514  1.8402
 5173TIP3   OH237009   5.664   0.505   4.408  0.5437 -1.0286  0.4992
 5173TIP3    H137010   5.688   0.577   4.350 -1.5029 -0.9469 -0.2805
 5173TIP3    H237011   5.641   0.547   4.491  0.9029 -0.9260  0.5479
 5174TIP3   OH237012   1.183   4.673   0.416  0.9212 -0.6205 -0.9017
 5174TIP3    H137013   1.258   4.624   0.448  0.2975 -0.4057  0.9192
 5174TIP3    H237014   1.222   4.746   0.367  1.8685 -1.4580 -1.4112
 5175TIP3   OH237015   6.268   5.433  16.601 -0.5225 -0.5171  0.1492
 5175TIP3    H137016   6.255   5.526  16.579 -1.2378 -0.7203 -0.2835
 5175TIP3    H237017   6.187   5.390  16.574  0.1905 -1.4347 -0.5549
 5176TIP3   OH237018   1.287   6.231  13.142 -0.3447  0.0892  0.5279
 5176TIP3    H137019   1.352   6.297  13.166  0.8856 -1.5558  1.8515
 5176TIP3    H237020   1.204   6.267  13.172 -0.0665  2.2331 -1.2238
 5177TIP3   OH237021   1.764   3.471   2.270 -0.0048 -0.4447 -0.1828
 5177TIP3    H137022   1.716   3.484   2.188 -0.8851  0.6920  0.5043
 5177TIP3    H237023   1.856   3.483   2.246 -0.4574  2.9026 -0.4454
 5178TIP3   OH237024   3.224   3.803  12.250 -0.5810  0.3843  0.0690
 5178TIP3    H137025   3.265   3.728  12.291 -1.4240  0.6617  1.4434
 5178TIP3    H237026   3.222   3.782  12.156 -2.9901 -2.3770  0.6794
 5179TIP3   OH237027   0.667   4.635   5.024 -0.2141  0.5282  0.7321
 5179TIP3    H137028   0.753   4.669   5.045 -0.1194  0.0921  1.0623
 5179TIP3    H237029   0.616   4.711   4.996  0.1583  0.8428  0.9230
 5180TIP3   OH237030   4.235   3.431  11.819 -0.3371  0.2023 -0.0183
 5180TIP3    H137031   4.278   3.414  11.735 -1.0721  0.0088 -0.3639
 5180TIP3    H237032   4.248   3.525  11.834 -1.5389  0.5715 -1.1246
 5181TIP3   OH237033   0.684   0.333   0.035  0.1378  0.6174 -0.2622
 5181TIP3    H137034   0.686   0.369   0.123  0.5081 -0.1885  0.0655
 5181TIP3    H237035   0.591   0.335   0.011 -0.2357 -1.0738  0.9572
 5182TIP3   OH237036   2.620   0.309  16.427 -0.4077  0.2335  0.6058
 5182TIP3    H137037   2.530   0.310  16.461 -1.0133 -0.1656 -0.9338
 5182TIP3    H237038   2.675   0.319  16.505 -1.7755  0.1378  1.6083
 5183TIP3   OH237039   0.863   1.804   1.195  0.1680  0.0370  0.1710
 5183TIP3    H137040   0.794   1.866   1.171 -0.1802 -0.1478  0.6810
 5183TIP3    H237041   0.894   1.835   1.280 -0.3207 -0.7421  0.6411
 5184TIP3   OH237042   0.843   1.643  12.013  0.1311  0.5152 -0.8057
 5184TIP3    H137043   0.835   1.721  12.067 -1.6360 -0.3134  0.1767
 5184TIP3    H237044   0.854   1.676  11.924  1.2320  1.8696 -0.1840
 5185TIP3   OH237045   4.368   4.393   5.358  0.2463 -0.1557  0.3811
 5185TIP3    H137046   4.394   4.342   5.281 -1.1830 -0.8549  0.3331
 5185TIP3    H237047   4.273   4.394   5.354  0.1141 -0.9340  2.5980
 5186TIP3   OH237048   6.553   5.910  13.553 -0.6255  0.1673  0.0986
 5186TIP3    H137049   6.557   5.859  13.633  0.5658  0.3474  0.1764
 5186TIP3    H237050   6.464   5.945  13.550 -0.8903 -0.4329  0.9678
 5187TIP3   OH237051   6.567   3.924  13.453  0.3508  0.5365 -0.1503
 5187TIP3    H137052   6.508   3.849  13.468  1.7869 -0.5430  0.2691
 5187TIP3    H237053   6.654   3.888  13.467  1.0224  2.5118  0.9154
 5188TIP3   OH237054   4.084   6.407   0.561  0.5364 -0.1254 -0.3847
 5188TIP3    H137055   4.020   6.478   0.573 -0.8045 -1.4239  0.2858
 5188TIP3    H237056   4.152   6.445   0.506 -1.8270  0.6664 -2.8389
 5189TIP3   OH237057   4.035   1.153   6.765  0.5906 -0.0821 -0.1837
 5189TIP3    H137058   3.940   1.144   6.756  0.4902  1.2852 -0.6361
 5189TIP3    H237059   4.068   1.142   6.675  0.7707  0.5031 -0.1863
 5190TIP3   OH237060   0.573   5.195   3.652  0.5617 -0.2136  0.0730
 5190TIP3    H137061   0.600   5.274   3.699 -1.7333 -0.3646  1.7349
 5190TIP3    H237062   0.615   5.124   3.701  0.2969 -0.1905  0.3406
 5191TIP3   OH237063   2.507   5.632   4.168  0.2742 -0.3549  0.2787
 5191TIP3    H137064   2.556   5.584   4.102  0.1291 -0.0006 -0.0851
 5191TIP3    H237065   2.469   5.564   4.224 -0.0027 -0.6591 -0.2842
 5192TIP3   OH237066   4.521   3.075  10.541  0.6541 -0.1627  0.9939
 5192TIP3    H137067   4.484   3.012  10.480  2.4313 -1.3428  1.0925
 5192TIP3    H237068   4.526   3.157  10.491  0.8168 -0.7686  0.0093
 5193TIP3   OH237069   0.958   4.944   4.268 -0.1950  0.7132 -0.6115
 5193TIP3    H137070   0.928   4.949   4.178  1.8783  0.4566 -1.3533
 5193TIP3    H237071   1.011   4.864   4.271 -1.2893  0.0307  1.1623
 5194TIP3   OH237072   3.881   4.172  13.198 -0.0413 -1.1902 -0.0915
 5194TIP3    H137073   3.822   4.160  13.273  2.1159 -2.8228  1.4094
 5194TIP3    H237074   3.858   4.257  13.162 -1.5650 -0.6742  2.0433
 5195TIP3   OH237075   0.129   2.838   3.692 -0.0002  0.2817  0.4711
 5195TIP3    H137076   0.148   2.848   3.785 -1.7610 -1.2951  1.0367
 5195TIP3    H237077   0.037   2.863   3.683 -0.1746 -0.7126 -0.6468
 5196TIP3   OH237078   1.069   6.050   2.662  0.0286  0.2235 -0.0197
 5196TIP3    H137079   1.071   6.135   2.705  2.0666 -0.7952  2.0030
 5196TIP3    H237080   1.159   6.019   2.665 -0.8157 -2.3644  0.0588
 5197TIP3   OH237081   2.186   3.888   0.053 -0.1152  0.1347 -0.1333
 5197TIP3    H137082   2.188   3.884   0.149 -1.8452  0.2890 -0.0782
 5197TIP3    H237083   2.247   3.820   0.025 -0.4331 -0.6756  1.0771
 5198TIP3   OH237084   0.593   5.833  14.117 -0.1894 -0.0543  0.3887
 5198TIP3    H137085   0.544   5.754  14.137 -1.2541  0.5014 -0.0148
 5198TIP3    H237086   0.592   5.884  14.199 -0.5514  0.0957  0.2901
 5199TIP3   OH237087   0.533   1.779  12.923 -0.0469 -0.9481 -0.6030
 5199TIP3    H137088   0.538   1.691  12.960 -1.8057 -0.7920  0.0642
 5199TIP3    H237089   0.447   1.812  12.951  0.8258  1.1927 -0.3516
 5200TIP3   OH237090   0.245   5.107   6.634  0.0123 -0.5032 -0.0089
 5200TIP3    H137091   0.250   5.157   6.716  0.4296 -0.8948  0.2088
 5200TIP3    H237092   0.296   5.028   6.651  0.1797 -0.5454 -0.6780
 5201TIP3   OH237093   0.627   0.713   3.995 -0.4530  0.3088  0.3246
 5201TIP3    H137094   0.560   0.645   4.003  0.3347 -0.4712  0.3391
 5201TIP3    H237095   0.580   0.788   3.958 -1.1668 -0.4949 -0.4336
 5202TIP3   OH237096   4.310   1.479  13.721 -0.6900  0.7181  0.0476
 5202TIP3    H137097   4.316   1.496  13.815 -0.2091  1.6663 -0.1504
 5202TIP3    H237098   4.388   1.520  13.684 -1.6125  1.5935 -0.9357
 5203TIP3   OH237099   4.109   1.101  12.008 -0.5798  0.0261 -0.8352
 5203TIP3    H137100   4.183   1.143  11.964  0.9471 -2.7050 -1.0355
 5203TIP3    H237101   4.108   1.139  12.096  0.9716  0.2381 -0.8906
 5204TIP3   OH237102   1.042   1.209   3.411 -0.2473 -0.3364 -0.2023
 5204TIP3    H137103   0.987   1.212   3.489 -2.8958 -0.6719 -1.9854
 5204TIP3    H237104   1.056   1.116   3.394  0.7074 -0.2574  0.1067
 5205TIP3   OH237105   6.104   2.574   6.609 -0.3851  0.4498  0.3442
 5205TIP3    H137106   6.041   2.525   6.662  1.1406 -0.5608  1.2389
 5205TIP3    H237107   6.094   2.665   6.639  0.0607 -0.0248  1.9742
 5206TIP3   OH237108   0.743   2.116  16.759  0.1151  0.1297  0.3146
 5206TIP3    H137109   0.768   2.040  16.812 -0.4692 -0.5424 -0.3712
 5206TIP3    H237110   0.784   2.102  16.674 -1.0216 -0.0638 -0.2212
 5207TIP3   OH237111   2.469   0.638   4.936  0.7149  0.0324  0.4677
 5207TIP3    H137112   2.490   0.631   4.843 -0.0951  1.4025  0.1698
 5207TIP3    H237113   2.379   0.670   4.938  0.8486  0.3533  1.7267
 5208TIP3   OH237114   1.015   4.789  13.088 -0.4695 -0.0650  0.3430
 5208TIP3    H137115   0.940   4.848  13.099 -1.0901 -0.8956  0.6230
 5208TIP3    H237116   0.976   4.704  13.071  0.4223 -0.4531  0.2097
 5209TIP3   OH237117   4.439   2.022   6.220  0.0552 -0.0861  0.1423
 5209TIP3    H137118   4.393   1.943   6.250 -0.6620 -0.5221 -1.9768
 5209TIP3    H237119   4.532   2.003   6.236 -0.1285 -1.2819 -0.1424
 5210TIP3   OH237120   1.827   2.451  12.572  0.0410 -0.2525  0.1265
 5210TIP3    H137121   1.772   2.394  12.625  1.3421 -1.1303  0.5707
 5210TIP3    H237122   1.881   2.391  12.520  0.7126  0.5803 -0.1592
 5211TIP3   OH237123   5.330   0.315  14.538 -0.3512  0.3164  0.0728
 5211TIP3    H137124   5.348   0.399  14.580 -0.1576  0.7165 -0.8054
 5211TIP3    H237125   5.394   0.255  14.576 -0.4455  0.5761  0.6532
 5212TIP3   OH237126   3.761   0.865   0.659 -0.2044  0.0613 -0.0275
 5212TIP3    H137127   3.834   0.818   0.619  0.9588  1.1306  0.7886
 5212TIP3    H237128   3.773   0.956   0.632 -0.8527  0.3566  0.6486
 5213TIP3   OH237129   0.208   4.687   6.349 -0.3444 -0.0251  0.4469
 5213TIP3    H137130   0.297   4.658   6.328 -0.5524  0.6322 -1.4484
 5213TIP3    H237131   0.214   4.782   6.354 -1.3136  0.1805 -1.7074
 5214TIP3   OH237132   6.192   1.243  10.702 -0.3143 -0.6768  0.1302
 5214TIP3    H137133   6.130   1.177  10.734 -0.0881 -0.9389  0.0320
 5214TIP3    H237134   6.213   1.215  10.613 -1.4784  0.4291 -0.5143
 5215TIP3   OH237135   3.451   1.881   0.788  0.3424  0.1963 -0.1425
 5215TIP3    H137136   3.426   1.831   0.866 -1.0036 -1.3633 -1.5326
 5215TIP3    H237137   3.371   1.927   0.762  0.4249 -0.2924 -1.3132
 5216TIP3   OH237138   5.558   5.440  12.199 -0.3612 -0.0297  0.3248
 5216TIP3    H137139   5.497   5.449  12.125 -1.2913 -0.4871  1.0264
 5216TIP3    H237140   5.627   5.383  12.167  0.0451  1.0164 -0.6961
 5217TIP3   OH237141   1.379   5.468   0.962  0.3624 -0.1959  0.5954
 5217TIP3    H137142   1.454   5.424   0.922  1.1481  1.1338  0.5745
 5217TIP3    H237143   1.337   5.514   0.889  1.2929  1.5261  1.1313
 5218TIP3   OH237144   2.757   4.234  16.290  0.5755  0.0108  0.6798
 5218TIP3    H137145   2.736   4.327  16.291  0.3649  0.0493 -2.3116
 5218TIP3    H237146   2.805   4.221  16.208 -0.8487 -2.7888  0.2216
 5219TIP3   OH237147   1.861   3.089   4.803  0.1946  0.3960 -0.0256
 5219TIP3    H137148   1.927   3.045   4.749  0.9162 -0.5492  1.5838
 5219TIP3    H237149   1.830   3.021   4.863 -0.6672  1.3926  0.6750
 5220TIP3   OH237150   3.200   6.438   4.721 -0.5443  0.0057 -0.3318
 5220TIP3    H137151   3.108   6.463   4.730 -0.7038 -0.6267 -0.1813
 5220TIP3    H237152   3.198   6.357   4.669 -0.0667  0.0827 -0.4657
 5221TIP3   OH237153   6.242   5.270  13.504 -0.0349 -0.2165 -0.3239
 5221TIP3    H137154   6.254   5.359  13.535 -1.4098  0.5274 -1.8848
 5221TIP3    H237155   6.330   5.231  13.508  0.5367  1.1263  0.5314
 5222TIP3   OH237156   1.864   0.563   6.368  0.3656 -0.1287 -1.2916
 5222TIP3    H137157   1.926   0.629   6.396  0.4611 -0.6707 -0.1779
 5222TIP3    H237158   1.829   0.527   6.450 -2.0948  0.8026 -1.8707
 5223TIP3   OH237159   1.491   0.775  12.678 -0.2483 -0.1537 -0.0665
 5223TIP3    H137160   1.403   0.804  12.652 -0.5029 -1.6525 -0.8916
 5223TIP3    H237161   1.478   0.728  12.760  0.0040  0.9942  0.6392
 5224TIP3   OH237162   5.960   1.929   0.492 -0.1963 -0.1721  0.6980
 5224TIP3    H137163   5.933   1.911   0.582  0.4009  2.0158  1.3489
 5224TIP3    H237164   6.052   1.952   0.498 -0.0101 -0.5218 -0.5610
 5225TIP3   OH237165   1.134   1.159  11.908 -0.2021  0.3209 -0.3915
 5225TIP3    H137166   1.219   1.182  11.870 -0.0657  1.5387  0.6224
 5225TIP3    H237167   1.131   1.064  11.904  2.0262  0.1471  1.2422
 5226TIP3   OH237168   1.162   3.366  15.348  0.5001  0.0369  0.3511
 5226TIP3    H137169   1.209   3.370  15.431 -0.2912  1.1903  0.7625
 5226TIP3    H237170   1.087   3.309  15.365  0.4554  0.1014  0.3722
 5227TIP3   OH237171   0.439   0.232   1.256 -0.2874  0.7062  0.3720
 5227TIP3    H137172   0.358   0.185   1.240 -0.0273  0.5110 -0.3889
 5227TIP3    H237173   0.508   0.170   1.230  0.0393  1.7641 -1.3538
 5228TIP3   OH237174   5.633   4.742   4.064 -0.4119 -0.4521  0.5159
 5228TIP3    H137175   5.722   4.729   4.034 -1.0297 -0.7767 -1.2214
 5228TIP3    H237176   5.613   4.833   4.043 -0.7297 -0.5837  0.2411
 5229TIP3   OH237177   1.636   3.403  11.386 -0.3685 -0.7677  0.3394
 5229TIP3    H137178   1.647   3.498  11.376 -0.9464 -0.5819  1.2943
 5229TIP3    H237179   1.541   3.390  11.384 -0.2412 -1.5568 -1.5865
 5230TIP3   OH237180   5.710   5.382   1.595 -0.2460 -0.5414  0.0481
 5230TIP3    H137181   5.712   5.404   1.502  0.4791 -1.6758 -0.2221
 5230TIP3    H237182   5.788   5.425   1.631 -1.1672  0.8737  0.3693
 5231TIP3   OH237183   5.561   4.399   4.915 -0.0435  0.2142  0.0037
 5231TIP3    H137184   5.531   4.430   4.830  1.0582  0.8858 -0.1385
 5231TIP3    H237185   5.518   4.314   4.926 -0.7520  0.4556 -0.8935
 5232TIP3   OH237186   6.549   3.389  14.689 -0.1100  0.1385 -0.0912
 5232TIP3    H137187   6.574   3.327  14.621 -1.0422 -2.4439  1.8504
 5232TIP3    H237188   6.456   3.407  14.673  0.0199  0.6176 -0.3224
 5233TIP3   OH237189   2.684   2.792   6.385 -0.4782 -0.3918 -0.6273
 5233TIP3    H137190   2.764   2.743   6.364 -0.5369 -0.8658  0.2080
 5233TIP3    H237191   2.614   2.740   6.347 -0.4755 -0.5702 -0.3941
 5234TIP3   OH237192   3.961   3.483  12.046 -0.2574 -0.0691 -0.1219
 5234TIP3    H137193   4.026   3.526  11.991  1.1006  0.6990  2.0577
 5234TIP3    H237194   3.982   3.510  12.135 -0.5844 -3.5981  1.1337
 5235TIP3   OH237195   2.556   3.686  13.808 -0.5389 -0.8324  0.0274
 5235TIP3    H137196   2.517   3.723  13.888 -0.1018 -0.8885  0.2638
 5235TIP3    H237197   2.560   3.760  13.747 -2.6553 -1.2088 -0.6169
 5236TIP3   OH237198   5.645   2.708   0.699 -0.1362 -0.9836  0.7921
 5236TIP3    H137199   5.728   2.667   0.673  0.6057  2.0828 -1.9872
 5236TIP3    H237200   5.671   2.784   0.751 -1.1420  0.1292 -0.2858
 5237TIP3   OH237201   1.686   1.957   5.469  0.6255  0.2418 -0.4499
 5237TIP3    H137202   1.744   1.963   5.393  2.1394 -0.0775  0.6611
 5237TIP3    H237203   1.707   2.035   5.520  0.2402  0.0011  0.0743
 5238TIP3   OH237204   0.292   1.223  14.520 -0.0429  0.1057  0.0606
 5238TIP3    H137205   0.314   1.255  14.433  0.3545  1.2146  0.5610
 5238TIP3    H237206   0.363   1.162  14.541 -0.2161 -0.2742 -0.4465
 5239TIP3   OH237207   5.427   2.152  17.193 -0.0251  0.5996  0.0959
 5239TIP3    H137208   5.428   2.247  17.189  0.5081  0.5541 -0.9355
 5239TIP3    H237209   5.506   2.129  17.241 -0.8184  0.7223  1.4749
 5240TIP3   OH237210   4.180   5.748  11.513  0.5927  0.6267  0.1020
 5240TIP3    H137211   4.220   5.829  11.480 -0.5936  1.1226 -0.1367
 5240TIP3    H237212   4.177   5.690  11.437 -1.1314  1.3779 -0.4331
 5241TIP3   OH237213   6.289   6.130  14.843 -0.0660  0.2185 -0.4691
 5241TIP3    H137214   6.281   6.143  14.748 -0.4002  0.6022 -0.3928
 5241TIP3    H237215   6.264   6.215  14.880 -0.9828 -0.2505  0.0048
 5242TIP3   OH237216   4.749   5.945  16.709  0.2076  0.1097  0.0598
 5242TIP3    H137217   4.686   5.878  16.688  0.5241 -0.5087  1.0472
 5242TIP3    H237218   4.703   6.028  16.695 -0.2640 -0.3183 -0.8821
 5243TIP3   OH237219   5.356   3.583   5.385 -0.3776  0.7852  0.2525
 5243TIP3    H137220   5.281   3.524   5.381  0.5246 -0.4094  0.4742
 5243TIP3    H237221   5.318   3.670   5.392 -1.7379  0.1853  0.5111
 5244TIP3   OH237222   4.953   3.181  15.806  0.2740 -0.1272  0.0783
 5244TIP3    H137223   4.944   3.122  15.731  3.0654  0.1831 -0.5537
 5244TIP3    H237224   4.999   3.257  15.771  2.1005 -0.1997  2.1800
 5245TIP3   OH237225   5.810   1.902   1.985  0.1948 -0.3207 -0.0130
 5245TIP3    H137226   5.852   1.954   1.916  1.9285  0.0889  1.3230
 5245TIP3    H237227   5.870   1.907   2.059 -1.6028 -0.8113  1.5220
 5246TIP3   OH237228   1.756   5.293  12.312 -0.9236 -0.8345 -0.1927
 5246TIP3    H137229   1.752   5.314  12.405  0.2021 -0.6960 -0.1642
 5246TIP3    H237230   1.823   5.352  12.277  0.9881 -3.0771 -0.4503
 5247TIP3   OH237231   1.960   1.559   1.800 -0.0094 -0.6895 -0.4189
 5247TIP3    H137232   1.940   1.651   1.821  0.6636 -0.7544  0.5460
 5247TIP3    H237233   1.935   1.511   1.879 -0.8938 -1.4170 -1.1325
 5248TIP3   OH237234   1.641   1.165  16.807 -0.0374  0.6220  0.5339
 5248TIP3    H137235   1.564   1.171  16.863  0.0548  1.1050  0.6161
 5248TIP3    H237236   1.618   1.213  16.728 -1.7782 -3.7319 -1.7611
 5249TIP3   OH237237   1.005   2.999   1.543  0.5173 -0.5859  0.3743
 5249TIP3    H137238   1.002   2.931   1.476  2.2165 -0.1950 -0.1087
 5249TIP3    H237239   0.931   3.056   1.522 -1.7310 -2.9116  1.5300
 5250TIP3   OH237240   3.546   5.865  17.163 -0.3414  0.6553  1.1778
 5250TIP3    H137241   3.496   5.844  17.242  0.1749  1.4298  1.7085
 5250TIP3    H237242   3.547   5.960  17.159 -1.2700  0.6138 -0.3477
 5251TIP3   OH237243   6.392   1.328  13.718  0.1243  0.4198 -0.1108
 5251TIP3    H137244   6.440   1.350  13.798  0.8050  1.1648 -0.7170
 5251TIP3    H237245   6.413   1.399  13.657 -1.7742  0.7672 -0.3829
 5252TIP3   OH237246   1.989   6.070   0.434  0.1634 -1.1432  0.4173
 5252TIP3    H137247   1.944   6.114   0.506 -0.6077  0.7211 -1.1527
 5252TIP3    H237248   2.063   6.126   0.414  0.4996 -1.7703 -0.1246
 5253TIP3   OH237249   5.790   2.609  13.186 -0.3001  0.0392 -0.4261
 5253TIP3    H137250   5.806   2.566  13.102 -2.7823  0.3144 -1.1012
 5253TIP3    H237251   5.778   2.701  13.164  1.8675  0.5979  0.6176
 5254TIP3   OH237252   3.381   0.855   3.368  0.0739  0.0615 -0.3765
 5254TIP3    H137253   3.459   0.814   3.331 -1.6445 -1.3102 -2.6736
 5254TIP3    H237254   3.345   0.906   3.296 -0.1736  2.1728  1.2046
 5255TIP3   OH237255   2.651   0.623   5.548  0.2251 -0.0744 -0.5347
 5255TIP3    H137256   2.563   0.616   5.511 -0.0368 -0.7778  0.2139
 5255TIP3    H237257   2.637   0.639   5.641  0.8692  3.0426 -0.9039
 5256TIP3   OH237258   5.862   4.463  14.516 -0.2227 -0.5627  0.2649
 5256TIP3    H137259   5.825   4.476  14.603 -1.6203 -1.7593 -0.1352
 5256TIP3    H237260   5.835   4.374  14.492  0.1780 -0.2420 -1.3788
 5257TIP3   OH237261   5.307   4.219  16.006  0.5835 -0.4433 -0.3237
 5257TIP3    H137262   5.294   4.259  16.092 -2.1630 -1.3824 -0.2488
 5257TIP3    H237263   5.313   4.125  16.025  3.8694 -0.4036 -0.8120
 5258TIP3   OH237264   2.901   4.166  16.510 -0.0853  0.6294 -0.0482
 5258TIP3    H137265   2.982   4.189  16.466 -1.2899  2.2745 -1.4387
 5258TIP3    H237266   2.832   4.183  16.446 -1.5570 -0.6661  1.1309
 5259TIP3   OH237267   1.638   4.210   5.941  0.6815  0.2904  0.0801
 5259TIP3    H137268   1.678   4.222   5.855  1.2845  0.0279  0.3192
 5259TIP3    H237269   1.640   4.115   5.954  1.5782  0.4102  0.8450
 5260TIP3   OH237270   6.738   2.141   2.608  0.6196  0.2532  0.4278
 5260TIP3    H137271   6.795   2.065   2.598 -1.2567 -1.0381 -0.8438
 5260TIP3    H237272   6.748   2.189   2.526  0.4165  0.3769  0.4760
 5261TIP3   OH237273   1.391   5.954   6.519  0.5836 -0.1864  0.1951
 5261TIP3    H137274   1.444   5.875   6.524  0.1293 -0.5443 -0.4750
 5261TIP3    H237275   1.303   5.925   6.545  0.8265  0.5245  1.8800
 5262TIP3   OH237276   0.266   6.532  13.856 -0.3386  0.0729 -0.5235
 5262TIP3    H137277   0.225   6.481  13.785 -0.2407  2.2006 -2.1590
 5262TIP3    H237278   0.287   6.616  13.815  1.8519  0.5095  1.4328
 5263TIP3   OH237279   5.312   6.299   4.059 -0.1798  0.7441  0.3379
 5263TIP3    H137280   5.351   6.213   4.045  0.1877  0.8144  0.8981
 5263TIP3    H237281   5.291   6.301   4.152  0.4835  1.5348  0.4798
 5264TIP3   OH237282   4.160   0.021  14.623 -0.3788  0.3032 -0.5206
 5264TIP3    H137283   4.200   0.087  14.566  0.7481 -0.4431 -0.6031
 5264TIP3    H237284   4.179   0.051  14.712  2.6334 -1.3645 -0.5413
 5265TIP3   OH237285   2.339   6.471   3.238 -0.2720  0.2409 -0.4839
 5265TIP3    H137286   2.370   6.520   3.162  1.5373  0.7970  0.5809
 5265TIP3    H237287   2.243   6.481   3.236 -0.3621 -0.8936 -3.4190
 5266TIP3   OH237288   4.014   0.716   0.973  0.1230  0.3017  0.3601
 5266TIP3    H137289   4.018   0.811   0.977  0.7012  0.2347  1.5077
 5266TIP3    H237290   3.988   0.689   1.061  0.0559 -0.6067  0.0709
 5267TIP3   OH237291   0.746   2.875  15.391 -0.1071  0.1251  0.1403
 5267TIP3    H137292   0.710   2.963  15.380  2.0807  1.0314  0.0919
 5267TIP3    H237293   0.708   2.825  15.318 -2.2230  0.7167  0.7964
 5268TIP3   OH237294   4.553   1.144   0.824 -0.2202  0.0499 -0.3901
 5268TIP3    H137295   4.460   1.167   0.824  0.0032  0.9808  1.0182
 5268TIP3    H237296   4.596   1.217   0.869  0.8021 -1.8827  1.8774
 5269TIP3   OH237297   2.932   2.244   1.690  0.0649  0.1057  0.2003
 5269TIP3    H137298   2.922   2.332   1.727 -0.0814 -0.2557  1.0214
 5269TIP3    H237299   3.016   2.247   1.644 -0.3553  0.9448 -0.5450
 5270TIP3   OH237300   1.921   1.998   6.825 -0.2827  0.5984 -0.0973
 5270TIP3    H137301   2.012   2.020   6.842 -0.8871  1.5181  2.1331
 5270TIP3    H237302   1.911   1.908   6.856  0.0550  0.1975 -1.1279
 5271TIP3   OH237303   5.563   0.713  11.444 -0.0274  0.3069 -0.6559
 5271TIP3    H137304   5.532   0.789  11.493  1.5130 -0.4676  1.5940
 5271TIP3    H237305   5.648   0.692  11.483  0.9232 -0.7988 -3.2012
 5272TIP3   OH237306   3.733   0.230   5.895  0.4503  0.2403  0.0076
 5272TIP3    H137307   3.772   0.271   5.817  2.2763  0.4446  1.0056
 5272TIP3    H237308   3.743   0.136   5.879  0.3545  0.2695 -0.2354
 5273TIP3   OH237309   2.877   2.223   2.512 -0.2034 -0.1171  0.0426
 5273TIP3    H137310   2.801   2.190   2.560 -0.3424  1.5156  0.9651
 5273TIP3    H237311   2.849   2.225   2.421 -1.3752  0.7879  0.4207
 5274TIP3   OH237312   6.199   0.514  12.973  0.2768 -0.1765 -0.1425
 5274TIP3    H137313   6.129   0.527  12.909 -1.3210 -0.5224  1.4777
 5274TIP3    H237314   6.243   0.434  12.943 -3.1355 -2.8239  1.4183
 5275TIP3   OH237315   1.403   2.335  14.140 -0.2490 -0.0529 -0.2863
 5275TIP3    H137316   1.450   2.396  14.197  0.4643  0.9192 -1.8920
 5275TIP3    H237317   1.460   2.325  14.064 -0.7120 -2.1292 -0.4034
 5276TIP3   OH237318   0.693   5.454  13.024 -0.4191 -0.8637  0.5220
 5276TIP3    H137319   0.765   5.397  13.051  1.1099  0.5252 -0.5790
 5276TIP3    H237320   0.664   5.418  12.940  1.9592  1.1831 -1.2395
 5277TIP3   OH237321   0.138   3.896  12.854 -0.6359  0.0282 -0.6828
 5277TIP3    H137322   0.154   3.930  12.766 -0.4428  1.1745 -0.2051
 5277TIP3    H237323   0.218   3.848  12.875  1.3928  3.8497  0.7845
 5278TIP3   OH237324   6.492   5.212  15.052 -0.6055 -0.0347  0.3182
 5278TIP3    H137325   6.518   5.260  15.130 -1.8585 -0.8393  1.2343
 5278TIP3    H237326   6.546   5.250  14.982 -0.0181  1.1992  1.4197
 5279TIP3   OH237327   5.309   5.368  14.681  0.0934  0.5626  0.4824
 5279TIP3    H137328   5.401   5.385  14.703  0.5785 -1.2218 -0.0623
 5279TIP3    H237329   5.309   5.352  14.587  0.1595 -4.8058  1.2474
 5280TIP3   OH237330   1.019   6.656   2.447 -0.3785  0.5160 -0.0128
 5280TIP3    H137331   1.074   6.714   2.499  1.1421 -0.6977 -0.2393
 5280TIP3    H237332   1.003   6.705   2.366  2.3491 -0.0493 -0.9368
 5281TIP3   OH237333   4.186   5.250  16.293  0.6222  0.4078 -0.6076
 5281TIP3    H137334   4.206   5.210  16.378  0.8834 -1.4309 -1.5110
 5281TIP3    H237335   4.228   5.336  16.297 -1.0886  1.1903  1.9024
 5282TIP3   OH237336   2.832   1.418   3.697  0.3279  0.0601 -0.0386
 5282TIP3    H137337   2.887   1.478   3.747  0.4972 -0.0471 -0.0989
 5282TIP3    H237338   2.802   1.354   3.762  0.1238  0.2251  0.0317
 5283TIP3   OH237339   2.854   1.713   5.941  0.1527  0.0988 -0.4255
 5283TIP3    H137340   2.825   1.639   5.993  1.2982 -1.9765 -2.6220
 5283TIP3    H237341   2.949   1.703   5.935 -0.0394 -0.3381 -3.6877
 5284TIP3   OH237342   3.091   6.700   4.956  0.2084  0.2924 -0.1972
 5284TIP3    H137343   3.180   6.726   4.933 -0.8918  2.8082 -1.8509
 5284TIP3    H237344   3.065   6.638   4.888 -0.2873  1.7803 -1.3993
 5285TIP3   OH237345   3.088   1.597  14.444  0.2005  0.5580 -0.4191
 5285TIP3    H137346   3.149   1.669  14.459  1.4797 -0.4726 -0.6622
 5285TIP3    H237347   3.002   1.640  14.441  0.8693  1.9796  0.1822
 5286TIP3   OH237348   0.019   0.195  15.312 -0.2406  0.1676  0.1016
 5286TIP3    H137349   0.049   0.234  15.394  0.0414 -0.0314  0.0973
 5286TIP3    H237350  -0.068   0.161  15.331  0.2162 -0.7459  0.5973
 5287TIP3   OH237351   3.893   0.970   6.555 -0.2959 -0.2132 -0.1405
 5287TIP3    H137352   3.926   0.883   6.532  1.6227 -0.2176  2.4739
 5287TIP3    H237353   3.944   1.030   6.500 -0.4013 -0.6042 -0.6741
 5288TIP3   OH237354   2.813   1.961  14.708  0.6105  0.0964 -0.2260
 5288TIP3    H137355   2.846   2.033  14.655  0.3633  0.9346  0.7336
 5288TIP3    H237356   2.842   1.982  14.797  5.1095 -3.6718 -0.6108
 5289TIP3   OH237357   1.865   2.701  15.621  0.0338  0.5231  0.1983
 5289TIP3    H137358   1.815   2.751  15.556 -1.2534 -2.9813 -1.6506
 5289TIP3    H237359   1.952   2.690  15.581  0.3288  1.2776  0.6200
 5290TIP3   OH237360   6.578   0.072  13.951  0.0476 -0.3143 -0.2284
 5290TIP3    H137361   6.633  -0.005  13.964 -0.5788 -0.7395 -0.0905
 5290TIP3    H237362   6.492   0.046  13.984  0.2923  1.0730  1.5795
 5291TIP3   OH237363   4.184   0.451  12.866 -0.2293 -0.5091  0.8052
 5291TIP3    H137364   4.240   0.394  12.812  0.2905  0.8890 -0.1584
 5291TIP3    H237365   4.238   0.473  12.941  0.7828  1.3407 -0.4250
 5292TIP3   OH237366   2.794   2.384  16.928  0.1136  0.4166 -0.3103
 5292TIP3    H137367   2.873   2.385  16.982 -0.3171 -1.2516  0.4039
 5292TIP3    H237368   2.756   2.471  16.939  0.6478  0.4861  1.1741
 5293TIP3   OH237369   2.248   2.235   5.882  0.5797 -0.7265  0.0919
 5293TIP3    H137370   2.335   2.221   5.845  0.1665 -2.6652 -0.2100
 5293TIP3    H237371   2.263   2.266   5.971  1.5850 -3.5773  0.9339
 5294TIP3   OH237372   0.822   3.286  11.721 -0.4607  0.4251  0.0849
 5294TIP3    H137373   0.738   3.290  11.766  0.1739  0.4000  1.2722
 5294TIP3    H237374   0.847   3.377  11.707 -1.6485  0.4550 -2.1139
 5295TIP3   OH237375   3.602   0.526   5.764 -0.0817  0.4784 -0.4567
 5295TIP3    H137376   3.617   0.439   5.727 -2.2669  0.0063 -0.2754
 5295TIP3    H237377   3.507   0.536   5.764  0.0756  2.1349  1.2088
 5296TIP3   OH237378   4.065   0.242  13.152 -0.2728 -0.5534  0.4542
 5296TIP3    H137379   4.111   0.256  13.069 -2.6302  1.9133 -0.5439
 5296TIP3    H237380   3.996   0.179  13.131 -1.6432  0.9819  0.1381
 5297TIP3   OH237381   0.097   4.417  15.724 -0.0165  0.5724 -0.1831
 5297TIP3    H137382   0.043   4.407  15.802 -1.1103 -0.6576 -1.0708
 5297TIP3    H237383   0.034   4.423  15.652  1.0059  0.0095 -1.1461
 5298TIP3   OH237384   5.630   5.194  17.181 -0.3177  0.4816  0.4446
 5298TIP3    H137385   5.682   5.265  17.143 -0.1827  0.4860  0.6385
 5298TIP3    H237386   5.542   5.230  17.186  0.0836  1.2716  2.1803
 5299TIP3   OH237387   6.660   3.660  10.539  0.0149 -0.4378  0.4516
 5299TIP3    H137388   6.735   3.717  10.552 -0.1161  0.1721 -1.3324
 5299TIP3    H237389   6.637   3.630  10.627  2.0962 -0.3370  1.0634
 5300TIP3   OH237390   0.346   1.117   2.424 -0.1574 -0.0906 -0.1139
 5300TIP3    H137391   0.400   1.141   2.499 -0.5589  2.3513 -0.5308
 5300TIP3    H237392   0.405   1.072   2.364  0.4349 -1.0194  1.1482
 5301TIP3   OH237393   4.268   3.752  16.581 -0.4158 -0.5591 -0.1074
 5301TIP3    H137394   4.237   3.765  16.671 -2.4764 -1.3939 -0.6605
 5301TIP3    H237395   4.232   3.826  16.532 -2.1403 -1.8913 -0.8929
 5302TIP3   OH237396   4.773   0.167  15.125 -0.0829 -0.0878  0.4615
 5302TIP3    H137397   4.851   0.208  15.163  0.5883 -0.6993 -0.2486
 5302TIP3    H237398   4.802   0.080  15.098 -0.6323  0.2190 -1.1515
 5303TIP3   OH237399   3.817   5.187   5.318 -0.4443  0.4735  0.0650
 5303TIP3    H137400   3.765   5.168   5.396  0.6477  0.7931  0.8931
 5303TIP3    H237401   3.813   5.283   5.309 -0.0376  0.4982  0.1192
 5304TIP3   OH237402   3.420   5.280   5.506 -0.5007 -0.6720 -0.0762
 5304TIP3    H137403   3.432   5.213   5.439  2.1454 -1.2342  0.8903
 5304TIP3    H237404   3.367   5.238   5.573  1.2615 -1.8711  0.5855
 5305TIP3   OH237405   1.150   6.448  11.611  0.2312  0.3299 -0.0605
 5305TIP3    H137406   1.183   6.426  11.524 -0.3614 -0.5937 -0.0573
 5305TIP3    H237407   1.057   6.429  11.607 -0.0130  1.3951  0.4305
 5306TIP3   OH237408   2.673   2.992  11.675  0.0987  0.4312  0.8697
 5306TIP3    H137409   2.660   3.045  11.596 -2.0719  0.3482  1.1397
 5306TIP3    H237410   2.722   2.916  11.645  0.4306  1.0253 -0.1390
 5307TIP3   OH237411   5.372   5.511  11.274 -0.1312 -0.1681 -0.2462
 5307TIP3    H137412   5.397   5.559  11.354  1.9085 -1.5365 -0.0240
 5307TIP3    H237413   5.279   5.495  11.284 -0.3114  1.4369  0.9259
 5308TIP3   OH237414   4.325   0.119  17.061  0.0868  0.0423 -0.2423
 5308TIP3    H137415   4.239   0.081  17.043  0.8727 -1.9485  0.1248
 5308TIP3    H237416   4.308   0.186  17.127 -1.0642 -0.9413  0.4778
 5309TIP3   OH237417   4.858   3.449   5.203  0.2036  0.4637  0.0409
 5309TIP3    H137418   4.862   3.543   5.221  1.9907  0.3693  0.2040
 5309TIP3    H237419   4.913   3.409   5.270  2.4070 -0.3739 -2.2141
 5310TIP3   OH237420   6.292   1.986   6.491 -0.1456 -0.0509 -0.1682
 5310TIP3    H137421   6.229   2.036   6.439  0.3511 -0.5123 -1.2514
 5310TIP3    H237422   6.336   2.052   6.545 -0.5612  0.4788 -0.4686
 5311TIP3   OH237423   6.051   1.431  13.820 -0.3433 -0.3502 -0.1982
 5311TIP3    H137424   6.130   1.468  13.860 -0.0911 -1.8084  0.7006
 5311TIP3    H237425   6.001   1.507  13.790  1.9989  0.5484 -1.9634
 5312TIP3   OH237426   5.980   1.875   0.124  0.2771  0.1778  0.2210
 5312TIP3    H137427   6.023   1.823   0.192 -0.3175  0.2536  0.6659
 5312TIP3    H237428   5.889   1.882   0.154  0.2411  1.0642 -0.0783
 5313TIP3   OH237429   1.250   6.719  14.682 -0.1001 -0.2481 -1.1905
 5313TIP3    H137430   1.198   6.777  14.738  2.1412 -0.4967  1.1951
 5313TIP3    H237431   1.290   6.777  14.618  1.7848  0.8535  0.9231
 5314TIP3   OH237432   5.488   2.506   0.589 -1.0825 -0.0394  0.3723
 5314TIP3    H137433   5.464   2.450   0.663  1.2786 -1.1174  0.3662
 5314TIP3    H237434   5.540   2.576   0.628  0.5957 -0.8874 -0.3170
 5315TIP3   OH237435   1.900   6.643  11.926 -0.0018  0.7520 -0.0904
 5315TIP3    H137436   1.825   6.664  11.982  1.0330  1.8196  0.9094
 5315TIP3    H237437   1.860   6.611  11.845 -1.5801  2.9473 -0.2364
 5316TIP3   OH237438   1.994   3.725  11.025 -0.4101  0.2638  0.4511
 5316TIP3    H137439   1.933   3.766  11.086 -0.2915 -0.0225  0.7613
 5316TIP3    H237440   1.997   3.785  10.950 -0.5391  0.6211  0.7321
 5317TIP3   OH237441   5.018   4.304  16.543 -0.0508 -0.3872 -0.0865
 5317TIP3    H137442   4.994   4.278  16.455 -0.6003 -1.8241  0.4726
 5317TIP3    H237443   4.971   4.386  16.558 -2.3534 -1.6663 -0.0601
 5318TIP3   OH237444   3.675   6.034  12.483 -0.1320 -0.2536 -0.5928
 5318TIP3    H137445   3.613   6.072  12.545  0.1210 -2.2317  0.9032
 5318TIP3    H237446   3.748   6.096  12.482  0.1504 -0.5098  1.6030
 5319TIP3   OH237447   0.958   2.275   3.207  0.5881 -0.4489 -0.5375
 5319TIP3    H137448   0.967   2.187   3.170  2.9838 -0.1268 -0.7840
 5319TIP3    H237449   0.923   2.328   3.136  1.4045 -0.7042 -1.1423
 5320TIP3   OH237450   3.941   2.330  13.354 -0.0581  0.0958  0.9241
 5320TIP3    H137451   4.026   2.302  13.322  0.0215  0.5968  0.7015
 5320TIP3    H237452   3.883   2.321  13.278  0.1369  1.3095  0.6194
 5321TIP3   OH237453   0.936   0.483   5.844  0.3955  0.3511  0.0473
 5321TIP3    H137454   0.846   0.458   5.823  0.6664 -0.3153 -0.3557
 5321TIP3    H237455   0.951   0.564   5.795  0.0322  0.4405  0.0835
 5322TIP3   OH237456   5.686   1.127  12.945 -0.2634 -0.2746  0.6965
 5322TIP3    H137457   5.702   1.161  13.032 -1.8759 -0.9587  1.2741
 5322TIP3    H237458   5.634   1.194  12.901 -1.4473 -0.9412  1.0568
 5323TIP3   OH237459   5.945   6.383   2.449  0.2302 -0.3114  0.1590
 5323TIP3    H137460   6.022   6.326   2.441  0.0223 -1.0206  2.7643
 5323TIP3    H237461   5.952   6.443   2.375  2.5643 -1.2281 -0.4154
 5324TIP3   OH237462   1.798   2.365   5.928 -0.2728 -0.2929 -0.4140
 5324TIP3    H137463   1.840   2.330   5.849 -0.4240  1.9370 -1.5352
 5324TIP3    H237464   1.846   2.326   6.001  1.5473 -0.3942 -1.6510
 5325TIP3   OH237465   0.674   4.664  16.863  0.3428  0.1029  0.0060
 5325TIP3    H137466   0.580   4.671  16.883 -0.5214 -0.7655 -3.4634
 5325TIP3    H237467   0.701   4.583  16.905 -0.6018  0.0488  0.5282
 5326TIP3   OH237468   3.656   4.513  17.144  0.9439 -0.3657 -0.0180
 5326TIP3    H137469   3.623   4.565  17.071  0.9385 -1.6732 -0.9716
 5326TIP3    H237470   3.580   4.463  17.174  1.1576 -0.5118  0.2833
 5327TIP3   OH237471   0.415   1.449  15.209  0.2787  0.4869  0.4474
 5327TIP3    H137472   0.360   1.481  15.280  0.0008  1.6549 -0.2817
 5327TIP3    H237473   0.452   1.367  15.243  0.0170  0.9320  1.8608
 5328TIP3   OH237474   2.229   3.647   0.567 -0.0076  0.3200 -0.0967
 5328TIP3    H137475   2.176   3.572   0.594 -0.0880  0.0473 -1.0132
 5328TIP3    H237476   2.310   3.637   0.617 -0.2218 -0.0851  0.1779
 5329TIP3   OH237477   2.107   6.673   0.187 -0.2470  0.0969 -0.1183
 5329TIP3    H137478   2.094   6.767   0.175  1.5132  0.4534  0.5889
 5329TIP3    H237479   2.190   6.654   0.141 -0.9242 -1.2358 -0.8251
 5330TIP3   OH237480   0.125   6.239  16.911 -0.4079  0.1318 -0.1700
 5330TIP3    H137481   0.161   6.192  16.836 -1.4630 -0.5337 -0.2630
 5330TIP3    H237482   0.038   6.268  16.883  0.0903  1.8599  0.0006
 5331TIP3   OH237483   4.340   2.831  14.720  0.3126  0.1189 -0.2366
 5331TIP3    H137484   4.259   2.875  14.748 -0.0523 -0.3802 -0.4933
 5331TIP3    H237485   4.314   2.739  14.710  0.8909 -0.0228 -0.4123
 5332TIP3   OH237486   0.063   6.516   6.331  0.3175 -0.0704  0.3449
 5332TIP3    H137487  -0.025   6.478   6.336 -0.4698  1.5072 -0.8840
 5332TIP3    H237488   0.049   6.610   6.340  1.7414  0.3118 -1.0775
 5333TIP3   OH237489   5.247   1.935   5.679  0.2467  0.0436 -0.1830
 5333TIP3    H137490   5.209   1.914   5.764 -0.6086  1.1417 -0.2809
 5333TIP3    H237491   5.172   1.954   5.623  0.8375  0.0132 -0.9995
 5334TIP3   OH237492   4.277   0.230  15.059  0.3839  0.0282  0.0203
 5334TIP3    H137493   4.353   0.180  15.091 -0.2021 -0.6072  0.4232
 5334TIP3    H237494   4.314   0.313  15.029  1.4573 -0.8805 -1.2301
 5335TIP3   OH237495   5.147   3.534   1.585 -0.0193 -0.1296 -0.3069
 5335TIP3    H137496   5.218   3.563   1.527  1.5886 -1.7317  0.8047
 5335TIP3    H237497   5.086   3.488   1.527  0.5801  0.0165 -1.0626
 5336TIP3   OH237498   0.340   5.674  14.788 -0.5456 -0.0028  0.3505
 5336TIP3    H137499   0.344   5.583  14.818  0.4871  0.5751  2.0590
 5336TIP3    H237500   0.423   5.689  14.743 -0.5404  0.2105  0.4274
 5337TIP3   OH237501   1.490   5.239  15.252  0.4983 -0.0686 -0.3704
 5337TIP3    H137502   1.458   5.257  15.164  2.7761 -1.2135 -1.4924
 5337TIP3    H237503   1.515   5.324  15.288 -0.9775  0.4635 -0.6011
 5338TIP3   OH237504   0.181   4.716  16.433 -0.4048 -0.3920  0.4505
 5338TIP3    H137505   0.137   4.801  16.441  0.1931  0.1540 -1.8509
 5338TIP3    H237506   0.110   4.654  16.416 -0.8169 -0.3376  1.8987
 5339TIP3   OH237507   2.206   2.207   6.560  0.3444 -0.0863  0.3982
 5339TIP3    H137508   2.238   2.277   6.504  0.0426 -1.2038 -1.1849
 5339TIP3    H237509   2.111   2.207   6.547  0.6147 -2.8498 -2.1054
 5340TIP3   OH237510   3.591   3.448   1.272 -0.0061 -0.3431 -0.2851
 5340TIP3    H137511   3.626   3.505   1.341  0.1605  0.0661 -0.7053
 5340TIP3    H237512   3.542   3.508   1.215 -1.1896 -0.8653  0.1627
 5341TIP3   OH237513   5.777   6.744  16.171  0.3094 -0.0502  0.1067
 5341TIP3    H137514   5.710   6.761  16.105 -2.9221 -0.7735  3.0350
 5341TIP3    H237515   5.785   6.827  16.218 -0.8657 -0.8583  1.7592
 5342TIP3   OH237516   2.598   1.495  13.277 -0.0629  0.2866 -0.1447
 5342TIP3    H137517   2.658   1.529  13.210 -0.1715  0.5488 -0.1117
 5342TIP3    H237518   2.542   1.434  13.230  0.4115 -0.1770 -0.1169
 5343TIP3   OH237519   5.839   2.033   3.735  0.4714 -0.2571  0.1310
 5343TIP3    H137520   5.879   2.034   3.823 -0.5060  0.7591  0.5693
 5343TIP3    H237521   5.813   2.124   3.720  1.3787 -0.2714 -1.5712
 5344TIP3   OH237522   0.638   0.703  10.928  0.1472  0.0945  0.0996
 5344TIP3    H137523   0.667   0.625  10.880  2.2314  0.8107  0.1551
 5344TIP3    H237524   0.578   0.747  10.868 -0.2150 -0.9754 -0.3499
 5345TIP3   OH237525   2.964   5.044  12.198 -0.2922  0.1948 -0.6706
 5345TIP3    H137526   2.907   5.119  12.216  1.6713  1.1747  1.8624
 5345TIP3    H237527   3.049   5.083  12.179  0.5319 -1.3683 -0.2727
 5346TIP3   OH237528   6.077   2.618  12.145  0.9179  0.2981 -0.5355
 5346TIP3    H137529   6.106   2.590  12.232  1.9842 -1.1040 -1.3342
 5346TIP3    H237530   6.139   2.686  12.120  1.2780 -0.0767 -0.6653
 5347TIP3   OH237531   4.498   1.597  13.572 -0.0828  0.3229 -0.1827
 5347TIP3    H137532   4.426   1.649  13.537 -1.1847 -1.9553 -1.4107
 5347TIP3    H237533   4.541   1.561  13.495  0.3042 -1.0275  0.6570
 5348TIP3   OH237534   6.386   4.207  17.032 -0.5659 -0.1860 -0.0961
 5348TIP3    H137535   6.331   4.270  17.078 -0.5335  0.0411 -0.3634
 5348TIP3    H237536   6.338   4.187  16.952 -0.7947 -0.8626  0.2178
 5349TIP3   OH237537   0.788   5.403   6.292 -0.3893 -0.0180 -0.2938
 5349TIP3    H137538   0.739   5.444   6.363  1.1669 -0.3330  1.0036
 5349TIP3    H237539   0.744   5.320   6.277 -0.0732 -0.4601  1.0971
 5350TIP3   OH237540   1.641   3.857  14.022  0.1989 -0.2956  0.2472
 5350TIP3    H137541   1.636   3.947  13.990  0.3489  0.6256  2.7199
 5350TIP3    H237542   1.715   3.818  13.974  0.2826  0.9499 -0.6581
 5351TIP3   OH237543   5.908   3.268   6.091  0.4377  0.0217 -0.1809
 5351TIP3    H137544   5.971   3.334   6.123  0.4929  0.7021 -1.6203
 5351TIP3    H237545   5.824   3.313   6.092  0.2252 -0.3844  0.2627
 5352TIP3   OH237546   1.315   5.116   4.965  0.5588 -0.0505 -0.6776
 5352TIP3    H137547   1.368   5.090   5.041 -0.8193  0.7408  0.5714
 5352TIP3    H237548   1.380   5.135   4.897  1.8964  0.5950  0.7286
 5353TIP3   OH237549   5.674   4.464   5.177 -0.2539  0.0622 -0.3044
 5353TIP3    H137550   5.679   4.442   5.084 -0.3719 -0.8224 -0.1078
 5353TIP3    H237551   5.723   4.394   5.220  2.6576  2.2510  0.0495
 5354TIP3   OH237552   0.598   1.627   1.632  0.7486 -0.0569 -0.3503
 5354TIP3    H137553   0.610   1.667   1.546  1.8343 -1.2461 -0.7708
 5354TIP3    H237554   0.610   1.699   1.694  1.1854  0.5594 -1.1474
 5355TIP3   OH237555   2.446   5.424  16.226 -0.3071 -0.0493 -0.4154
 5355TIP3    H137556   2.445   5.354  16.292 -1.3731 -0.3713 -0.7482
 5355TIP3    H237557   2.380   5.396  16.161 -2.3408  2.2999  0.5550
 5356TIP3   OH237558   5.696   4.025  13.014 -0.0013  0.2743 -0.1695
 5356TIP3    H137559   5.649   4.002  12.934  0.2832 -0.2342 -0.1944
 5356TIP3    H237560   5.634   4.003  13.084 -0.1720  0.5243 -0.2441
 5357TIP3   OH237561   3.934   4.586  13.871 -0.0648 -0.1360  0.2003
 5357TIP3    H137562   3.987   4.561  13.946 -0.8493  0.3629  0.9285
 5357TIP3    H237563   3.974   4.541  13.797  0.9088 -0.3750  0.8618
 5358TIP3   OH237564   1.509   5.492  11.670 -0.0739  0.8023 -0.2810
 5358TIP3    H137565   1.565   5.454  11.602  0.4606  1.4807 -0.2333
 5358TIP3    H237566   1.517   5.432  11.744  0.1086  0.5745 -0.4827
 5359TIP3   OH237567   2.104   1.723  16.812  0.0525 -0.2543 -0.4142
 5359TIP3    H137568   2.054   1.692  16.737 -0.1009 -1.1547  0.0632
 5359TIP3    H237569   2.195   1.697  16.793  0.2999  1.0462 -1.0994
 5360TIP3   OH237570   4.468   3.036   0.207  0.3352  0.5240 -0.3462
 5360TIP3    H137571   4.463   3.096   0.281  0.6422  0.9672 -0.6792
 5360TIP3    H237572   4.533   3.075   0.148  0.6195 -0.1900 -0.5192
 5361TIP3   OH237573   4.286   0.948   4.405  0.0292  0.6302  0.2867
 5361TIP3    H137574   4.357   0.979   4.349  1.4996 -2.4547  0.3218
 5361TIP3    H237575   4.326   0.879   4.458 -1.5211  2.9269  4.6803
 5362TIP3   OH237576   4.771   0.493   5.597  0.1199 -0.6283  0.5090
 5362TIP3    H137577   4.726   0.526   5.674  0.6879 -0.0716  0.6026
 5362TIP3    H237578   4.724   0.412   5.575 -1.1064  0.0956  0.4313
 5363TIP3   OH237579   1.597   5.188   0.252 -0.3060 -0.3855 -0.2912
 5363TIP3    H137580   1.573   5.105   0.294 -1.9552  1.3382  2.2856
 5363TIP3    H237581   1.528   5.202   0.187  0.0140 -1.0501 -0.7843
 5364TIP3   OH237582   4.418   2.205   6.491 -0.2210 -0.2397 -0.2625
 5364TIP3    H137583   4.333   2.233   6.526  0.1223 -0.2679  0.5950
 5364TIP3    H237584   4.428   2.256   6.411 -0.5114  0.6384  0.2478
 5365TIP3   OH237585   3.594   0.046   2.832 -0.6976 -0.3737 -0.1460
 5365TIP3    H137586   3.582   0.030   2.738  0.5254  0.0146 -0.3784
 5365TIP3    H237587   3.685   0.023   2.849 -0.8480 -0.2181  0.9045
 5366TIP3   OH237588   3.902   0.104   1.777 -0.2123 -0.1242  0.2513
 5366TIP3    H137589   3.911   0.167   1.706  2.0666 -2.5520 -1.7135
 5366TIP3    H237590   3.808   0.088   1.784 -0.7619  2.8111  0.2599
 5367TIP3   OH237591   4.715   2.760  11.679 -0.7347  0.3069  0.1295
 5367TIP3    H137592   4.765   2.737  11.757 -0.5840 -2.5488 -0.7216
 5367TIP3    H237593   4.774   2.741  11.606 -1.4968  1.1858 -0.7249
 5368TIP3   OH237594   5.184   0.535   2.832 -1.1811  0.3728  0.4224
 5368TIP3    H137595   5.129   0.579   2.898  0.0948  2.9972 -0.1931
 5368TIP3    H237596   5.154   0.571   2.748 -0.9222 -0.8562 -0.2005
 5369TIP3   OH237597   4.939   4.401   4.913 -0.1322  0.2707  0.1321
 5369TIP3    H137598   5.022   4.375   4.954 -0.0340  0.4214  0.0309
 5369TIP3    H237599   4.928   4.340   4.840 -0.7931 -0.6206  0.9636
 5370TIP3   OH237600   0.438   5.207   0.977  0.2138 -0.2868 -0.0831
 5370TIP3    H137601   0.432   5.157   0.896 -1.0834 -1.1395  0.5363
 5370TIP3    H237602   0.406   5.148   1.045  1.3871  0.3743  1.0879
 5371TIP3   OH237603   5.044   1.913  10.843  0.6368 -0.4086 -0.0832
 5371TIP3    H137604   5.017   1.856  10.771  0.9556  0.8460 -1.2095
 5371TIP3    H237605   5.113   1.864  10.887 -0.9858 -2.0964  0.6592
 5372TIP3   OH237606   3.773   0.630   1.518 -0.3908  0.2056 -0.7125
 5372TIP3    H137607   3.800   0.685   1.591 -2.3331  1.2111 -0.7036
 5372TIP3    H237608   3.754   0.545   1.558 -0.0686  0.3457 -0.2600
 5373TIP3   OH237609   4.951   5.934  11.507  0.1226 -0.1499 -0.6049
 5373TIP3    H137610   4.903   5.859  11.473 -1.0319  0.9371 -1.4296
 5373TIP3    H237611   5.032   5.936  11.455  0.8921 -1.7492  0.5123
 5374TIP3   OH237612   5.113   5.133  15.298 -0.1030  0.5932 -0.5237
 5374TIP3    H137613   5.181   5.200  15.306 -0.4351  0.8459  0.1795
 5374TIP3    H237614   5.051   5.152  15.368  0.8076 -1.6113  0.9543
 5375TIP3   OH237615   5.869   1.901  10.297 -0.4342 -0.1159 -0.3981
 5375TIP3    H137616   5.940   1.883  10.235 -0.7524 -0.0527 -0.7886
 5375TIP3    H237617   5.909   1.893  10.383  0.8824  3.2005 -0.6064
 5376TIP3   OH237618   3.333   1.606  10.708  0.0895  0.1213  0.0583
 5376TIP3    H137619   3.412   1.634  10.756 -1.6799  2.4684  1.7208
 5376TIP3    H237620   3.351   1.630  10.617  1.1371  1.0561  0.4933
 5377TIP3   OH237621   3.799   5.909   2.513 -0.4503 -0.6493 -0.6409
 5377TIP3    H137622   3.774   5.999   2.533  0.3220 -0.7110  0.6866
 5377TIP3    H237623   3.810   5.868   2.598 -0.5236 -1.9311 -1.2402
 5378TIP3   OH237624   6.684   2.962  17.274 -0.1825  0.0138  0.1634
 5378TIP3    H137625   6.685   2.878  17.320  0.9626  0.3814  0.8404
 5378TIP3    H237626   6.612   2.955  17.211 -2.1228 -0.3203  2.3402
 5379TIP3   OH237627   6.427   6.763  12.563  0.0087  0.1491  0.0684
 5379TIP3    H137628   6.402   6.840  12.615 -1.2911  0.1415 -0.5225
 5379TIP3    H237629   6.439   6.798  12.474  2.7865  0.2692  0.4424
 5380TIP3   OH237630   1.676   4.398   3.717 -0.0874 -0.0942 -0.2010
 5380TIP3    H137631   1.760   4.362   3.689  0.1139 -1.4314  2.0560
 5380TIP3    H237632   1.611   4.333   3.690 -0.3793  0.7636 -1.6097
 5381TIP3   OH237633   2.795   6.166  12.442 -0.1513 -0.0550 -0.2836
 5381TIP3    H137634   2.723   6.225  12.465  0.1760  0.3771 -0.3656
 5381TIP3    H237635   2.790   6.158  12.346  0.0800  0.1969 -0.3180
 5382TIP3   OH237636   4.095   2.624  16.881 -0.3169  0.1173 -0.4461
 5382TIP3    H137637   4.125   2.705  16.839 -0.0451  1.2317  1.8510
 5382TIP3    H237638   4.075   2.566  16.808 -0.4333  2.2198 -2.1381
 5383TIP3   OH237639   6.347   0.500  16.485  0.0579  0.3790 -0.0536
 5383TIP3    H137640   6.372   0.428  16.427 -1.2630 -0.8402  0.8544
 5383TIP3    H237641   6.305   0.564  16.427 -0.6913 -0.5469 -0.5453
 5384TIP3   OH237642   5.324   1.164   2.116  0.0592 -0.6999 -0.7516
 5384TIP3    H137643   5.299   1.242   2.165  3.1342  0.7302 -1.3519
 5384TIP3    H237644   5.273   1.093   2.157  0.1615  0.9535  2.4079
 5385TIP3   OH237645   6.524   5.246  12.333 -0.1274  0.0142 -0.2819
 5385TIP3    H137646   6.530   5.165  12.383  1.1945 -0.0202 -0.4947
 5385TIP3    H237647   6.519   5.315  12.399  0.8234 -0.0876 -0.1106
 5386TIP3   OH237648   3.003   6.452   1.028  0.3370  0.1093  0.1420
 5386TIP3    H137649   3.017   6.423   1.118 -0.2671 -1.2472 -0.1884
 5386TIP3    H237650   3.015   6.547   1.031  1.5617 -0.0806  1.4000
 5387TIP3   OH237651   5.017   1.757  10.613 -0.1965 -0.0005  0.7130
 5387TIP3    H137652   5.100   1.749  10.566 -1.8314 -1.8403 -2.0010
 5387TIP3    H237653   4.971   1.827  10.568 -1.7705 -1.7515 -0.4622
 5388TIP3   OH237654   6.122   3.383   3.331  0.1407  0.3015 -0.2158
 5388TIP3    H137655   6.056   3.357   3.396  1.8151  0.5465  1.6324
 5388TIP3    H237656   6.079   3.452   3.280 -1.3056 -0.0659  0.4688
 5389TIP3   OH237657   2.373   6.556   0.002  0.6216 -0.1931  0.0737
 5389TIP3    H137658   2.439   6.511  -0.050  0.4425 -0.6891  0.2716
 5389TIP3    H237659   2.360   6.499   0.078 -1.3157 -0.9806 -0.8176
 5390TIP3   OH237660   1.655   4.064  14.672 -0.3362  0.2808  0.4033
 5390TIP3    H137661   1.676   4.032  14.585  1.2448  1.8974  0.1676
 5390TIP3    H237662   1.731   4.116  14.698 -1.1622  0.5629  2.3813
 5391TIP3   OH237663   6.606   2.833   1.710  0.1181  0.1243 -0.0224
 5391TIP3    H137664   6.631   2.902   1.770 -2.0121  0.2808  0.7358
 5391TIP3    H237665   6.538   2.872   1.655  0.1797 -0.8126 -0.7894
 5392TIP3   OH237666   4.478   0.563  16.324  0.1191  0.0790  0.2460
 5392TIP3    H137667   4.445   0.566  16.414  1.8893  0.7320  0.8878
 5392TIP3    H237668   4.513   0.650  16.308 -1.4273  0.3849 -1.5699
 5393TIP3   OH237669   5.461   0.326  11.623 -0.2169 -0.6472  0.3213
 5393TIP3    H137670   5.448   0.339  11.529  1.5839  2.0096  0.3735
 5393TIP3    H237671   5.540   0.272  11.629  2.6060  3.2803  0.2880
 5394TIP3   OH237672   5.212   4.187  13.610  0.1302  0.7011 -0.0197
 5394TIP3    H137673   5.162   4.265  13.586 -0.6971 -0.1890 -1.2124
 5394TIP3    H237674   5.293   4.194  13.560  0.1740  0.9109  0.0758
 5395TIP3   OH237675   5.877   4.369  13.507  0.4369  0.1005  0.3638
 5395TIP3    H137676   5.902   4.423  13.582  2.0059  2.7788 -2.0011
 5395TIP3    H237677   5.800   4.413  13.471 -0.4322 -1.2869  0.5059
 5396TIP3   OH237678   1.710   3.904  15.637 -0.4864  0.1885 -0.0813
 5396TIP3    H137679   1.626   3.866  15.614 -0.2735  0.5926 -1.5727
 5396TIP3    H237680   1.689   3.976  15.697 -1.0848 -0.5485  0.6044
 5397TIP3   OH237681   3.412   1.089  17.172  0.1583 -0.5871 -0.3416
 5397TIP3    H137682   3.432   1.175  17.135  0.0496 -1.0144 -1.4272
 5397TIP3    H237683   3.453   1.089  17.258  0.5878  0.3607 -0.5454
 5398TIP3   OH237684   4.500   5.122  10.889  0.1697  0.3236 -0.5922
 5398TIP3    H137685   4.470   5.180  10.819 -0.6087 -0.3235 -0.8109
 5398TIP3    H237686   4.569   5.171  10.934  0.1700  1.0321 -1.3594
 5399TIP3   OH237687   5.170   3.741  15.831 -0.2709  0.5256 -0.4590
 5399TIP3    H137688   5.192   3.834  15.825  0.8713  0.1665 -2.2943
 5399TIP3    H237689   5.075   3.738  15.817 -0.0199  1.2640 -2.5006
 5400TIP3   OH237690   2.671   1.648  16.451 -0.0973 -0.0557 -0.2184
 5400TIP3    H137691   2.593   1.602  16.481 -0.6385  1.7439  1.2491
 5400TIP3    H237692   2.651   1.674  16.361 -0.7542 -0.5704 -0.2247
 5401TIP3   OH237693   4.355   3.293  16.397 -0.1500 -0.5327  0.0489
 5401TIP3    H137694   4.379   3.350  16.470 -1.1610  0.1205 -0.1189
 5401TIP3    H237695   4.335   3.353  16.325 -0.2531 -1.1373 -0.4328
 5402TIP3   OH237696   0.075   1.977  15.854 -0.6921 -0.0739  0.3010
 5402TIP3    H137697   0.105   2.068  15.865  0.7538  0.2669 -5.1709
 5402TIP3    H237698   0.131   1.942  15.784 -3.6552 -4.0634 -0.2203
 5403TIP3   OH237699   1.906   2.531  11.311 -0.5182  0.8589 -0.5267
 5403TIP3    H137700   1.923   2.540  11.217  0.3060  0.6401 -0.4013
 5403TIP3    H237701   1.825   2.479  11.316 -1.1290  1.7366 -1.1272
 5404TIP3   OH237702   1.752   0.692   3.855 -0.3029  0.0553  0.5259
 5404TIP3    H137703   1.843   0.714   3.874 -0.3698  1.1623 -0.4049
 5404TIP3    H237704   1.726   0.634   3.926  0.6928  0.8564  1.5545
 5405TIP3   OH237705   0.839   5.408  11.910 -0.4408  0.4487  0.4022
 5405TIP3    H137706   0.921   5.401  11.959  0.1885 -0.4137 -0.7550
 5405TIP3    H237707   0.770   5.396  11.976  0.4129 -2.2948  0.8559
 5406TIP3   OH237708   0.072   5.071  12.049 -0.1986 -0.1902 -0.1285
 5406TIP3    H137709   0.135   4.999  12.051 -0.7285 -0.6572 -0.3053
 5406TIP3    H237710   0.007   5.048  12.115 -0.7048 -0.1753 -0.6226
 5407TIP3   OH237711   1.711   0.843   6.789  0.1114 -0.0732  0.0271
 5407TIP3    H137712   1.788   0.866   6.736 -0.2674  0.3712 -0.3365
 5407TIP3    H237713   1.727   0.753   6.816 -1.1133 -1.4068 -3.3957
 5408TIP3   OH237714   0.092   1.011  14.775 -0.6521  0.3751 -0.0604
 5408TIP3    H137715   0.069   0.986  14.864  0.3970 -0.2861  0.0310
 5408TIP3    H237716   0.080   0.932  14.723  1.7636 -0.1155  0.0622
 5409TIP3   OH237717   3.119   1.693   4.681  0.2632 -0.2663  0.1068
 5409TIP3    H137718   3.199   1.702   4.734  0.5514 -0.4781 -0.2877
 5409TIP3    H237719   3.150   1.699   4.591 -0.3939  1.4183 -0.0213
 5410TIP3   OH237720   3.214   6.356   0.027  0.5329 -0.2753 -0.1848
 5410TIP3    H137721   3.262   6.347  -0.055 -1.2002  2.1064 -1.5408
 5410TIP3    H237722   3.231   6.275   0.075  2.7762 -1.0690 -2.2522
 5411TIP3   OH237723   3.157   3.861   3.945  0.3069  0.3929 -0.1385
 5411TIP3    H137724   3.246   3.846   3.978  0.0997  1.6556  1.0137
 5411TIP3    H237725   3.100   3.833   4.016 -0.1919  0.7318 -0.4066
 5412TIP3   OH237726   2.864   4.922  13.601  0.3111  0.4004  0.0094
 5412TIP3    H137727   2.955   4.924  13.628  0.8726  1.1768 -1.8800
 5412TIP3    H237728   2.862   4.864  13.524 -0.5384  1.4186 -0.7604
 5413TIP3   OH237729   2.705   5.295  13.294  0.2386  0.4174  0.5283
 5413TIP3    H137730   2.725   5.209  13.255 -0.4846 -0.2431  1.5835
 5413TIP3    H237731   2.659   5.274  13.375 -3.2494  1.8081 -0.9527
 5414TIP3   OH237732   4.977   1.148  16.342 -0.4933  0.5202 -0.0659
 5414TIP3    H137733   4.948   1.199  16.266  1.6085  1.3489 -0.3361
 5414TIP3    H237734   4.977   1.057  16.310 -0.2575  0.7901 -0.8572
 5415TIP3   OH237735   3.109   5.126   0.974  0.0300  0.0898  0.8244
 5415TIP3    H137736   3.172   5.055   0.958  1.0708  1.1565  0.0842
 5415TIP3    H237737   3.162   5.206   0.971 -1.3040  0.9756  0.6280
 5416TIP3   OH237738   0.241   6.463   1.035 -0.3423 -0.2156  0.3512
 5416TIP3    H137739   0.152   6.458   1.071 -1.6400  0.0970 -2.6477
 5416TIP3    H237740   0.270   6.372   1.028 -0.5527 -0.3372  1.0597
 5417TIP3   OH237741   3.206   4.569  16.480  0.5325  0.2590 -0.6980
 5417TIP3    H137742   3.179   4.515  16.554 -0.2690  1.0389 -0.4187
 5417TIP3    H237743   3.175   4.521  16.403  1.1800 -0.4431 -0.5330
 5418TIP3   OH237744   5.922   2.276   4.417  0.0630 -0.4532 -0.2256
 5418TIP3    H137745   5.968   2.312   4.493 -0.4741 -0.8210  0.2769
 5418TIP3    H237746   5.840   2.242   4.452 -0.0205 -0.9718 -0.9041
 5419TIP3   OH237747   4.466   3.640  11.720 -0.1723 -0.2513  0.0335
 5419TIP3    H137748   4.450   3.633  11.626 -0.8818 -0.6669  0.1850
 5419TIP3    H237749   4.504   3.556  11.745 -0.0453 -0.1650  0.1338
 5420TIP3   OH237750   6.450   4.477   3.432  0.0639  0.0659 -0.1563
 5420TIP3    H137751   6.532   4.492   3.385  1.5401 -1.9624  1.6633
 5420TIP3    H237752   6.386   4.458   3.364  1.4870  0.0015 -1.5092
 5421TIP3   OH237753   4.872   3.413  12.569  0.8619 -0.3429 -0.0405
 5421TIP3    H137754   4.822   3.401  12.489  1.0912 -0.2862 -0.1929
 5421TIP3    H237755   4.806   3.429  12.637  0.6730 -0.3021 -0.2324
 5422TIP3   OH237756   2.435   1.891   3.952  0.0378  0.2565  0.2505
 5422TIP3    H137757   2.472   1.972   3.917  1.2427 -0.8133 -1.0591
 5422TIP3    H237758   2.479   1.822   3.901 -2.0387 -1.1482  0.3337
 5423TIP3   OH237759   5.478   1.335   3.700  0.2130 -0.2171 -0.3833
 5423TIP3    H137760   5.396   1.286   3.708 -0.9359  1.7331  0.0171
 5423TIP3    H237761   5.487   1.351   3.606 -1.1409  1.6456 -0.2209
 5424TIP3   OH237762   0.026   2.538  12.291 -0.0784 -0.1667  0.0812
 5424TIP3    H137763  -0.049   2.596  12.295 -0.9934 -1.4029  1.5531
 5424TIP3    H237764   0.083   2.566  12.362  0.8215  0.6941 -0.9577
 5425TIP3   OH237765   1.546   6.437  11.393 -0.3495 -0.5785  0.3838
 5425TIP3    H137766   1.622   6.489  11.366 -2.2777  0.8425 -2.6036
 5425TIP3    H237767   1.572   6.346  11.377  0.7583 -0.1068 -0.5611
 5426TIP3   OH237768   2.214   6.526  12.807  0.3241 -0.0621 -0.2621
 5426TIP3    H137769   2.154   6.506  12.734  0.5865 -2.2527  0.0947
 5426TIP3    H237770   2.294   6.477  12.786  1.9693  2.7155 -0.6530
 5427TIP3   OH237771   3.705   4.638  15.436 -0.5285 -0.1231 -0.0467
 5427TIP3    H137772   3.690   4.672  15.524 -0.7088  0.8206 -0.4306
 5427TIP3    H237773   3.709   4.543  15.447  1.9367  0.1089  1.3466
 5428TIP3   OH237774   5.290   4.561  16.379  0.4428  0.1928  0.0528
 5428TIP3    H137775   5.208   4.607  16.364  0.4301 -0.2949 -1.4312
 5428TIP3    H237776   5.300   4.560  16.475 -1.3329  0.1221  0.2437
 5429TIP3   OH237777   2.520   4.118   1.522  0.1838 -0.3458  0.0934
 5429TIP3    H137778   2.498   4.035   1.563  0.9176 -0.4873  0.2153
 5429TIP3    H237779   2.443   4.142   1.471 -0.4005 -0.6026  0.8657
 5430TIP3   OH237780   6.338   0.077  17.098 -0.0779 -0.5291 -0.3835
 5430TIP3    H137781   6.289   0.156  17.073 -0.1897  0.1101  1.8199
 5430TIP3    H237782   6.413   0.077  17.038  0.7066  2.0667  0.5061
 5431TIP3   OH237783   6.374   1.074  11.937  0.1345 -0.1719  0.4645
 5431TIP3    H137784   6.452   1.093  11.989 -0.1602 -1.7479  1.5034
 5431TIP3    H237785   6.304   1.064  12.000 -0.7030  0.1931 -0.3965
 5432TIP3   OH237786   1.570   5.179   4.786 -0.0911  0.3045  0.4097
 5432TIP3    H137787   1.524   5.207   4.706  1.3891 -1.1886 -0.9984
 5432TIP3    H237788   1.652   5.228   4.784 -0.0281  0.2178  0.9873
 5433TIP3   OH237789   3.383   4.721  16.616 -0.0003  0.5391  0.5556
 5433TIP3    H137790   3.330   4.672  16.554 -0.1557  1.9763 -0.4858
 5433TIP3    H237791   3.330   4.726  16.695 -1.6924  2.3906 -0.6367
 5434TIP3   OH237792   1.777   3.609   1.870 -0.0822 -0.1730  0.3342
 5434TIP3    H137793   1.753   3.569   1.786  1.4763 -0.4753  0.0155
 5434TIP3    H237794   1.694   3.622   1.914 -1.0056  0.8813 -1.6514
 5435TIP3   OH237795   3.532   5.142   5.877  0.4433 -0.5951  0.5426
 5435TIP3    H137796   3.575   5.215   5.921 -0.2493  0.0602  0.1287
 5435TIP3    H237797   3.546   5.159   5.784 -0.7764 -0.3329  0.3981
 5436TIP3   OH237798   1.806   4.698   6.555  0.7517  0.3488 -0.1137
 5436TIP3    H137799   1.772   4.778   6.595 -0.0520  0.0783 -0.2353
 5436TIP3    H237800   1.783   4.705   6.462  0.7120  0.0035 -0.1331
 5437TIP3   OH237801   6.402   3.066   1.990  0.1854  0.2026 -0.0604
 5437TIP3    H137802   6.341   2.995   1.970  1.0204 -0.3540 -0.6554
 5437TIP3    H237803   6.355   3.146   1.964 -0.9427 -0.0703  1.0564
 5438TIP3   OH237804   6.429   4.564  14.784  0.1099 -0.2381 -0.8485
 5438TIP3    H137805   6.502   4.624  14.769  1.2265 -1.4031 -0.1079
 5438TIP3    H237806   6.399   4.585  14.872 -0.6635  0.4526 -1.2676
 5439TIP3   OH237807   1.306   0.564   3.826 -0.2790 -0.0464  0.3903
 5439TIP3    H137808   1.338   0.515   3.750  0.3057 -0.1026  0.6747
 5439TIP3    H237809   1.229   0.610   3.794  0.4478  0.5870 -0.4592
 5440TIP3   OH237810   2.705   5.594   0.893 -0.0745  0.0096  0.2309
 5440TIP3    H137811   2.797   5.604   0.919 -0.4832  1.3165  1.2645
 5440TIP3    H237812   2.708   5.541   0.814  1.5523 -0.2633  0.4539
 5441TIP3   OH237813   6.804   1.436  11.925 -0.3533 -0.0266 -0.0796
 5441TIP3    H137814   6.723   1.446  11.975 -1.4608 -2.5592 -1.2969
 5441TIP3    H237815   6.857   1.377  11.977 -0.0871  0.0890 -0.2197
 5442TIP3   OH237816   6.198   2.800   2.374 -0.3510 -0.2550  0.2928
 5442TIP3    H137817   6.216   2.883   2.418 -0.4849  0.0656 -0.2549
 5442TIP3    H237818   6.169   2.825   2.286  1.2872 -0.9366 -0.4530
 5443TIP3   OH237819   6.406   1.846   1.521  0.4675  0.0266 -0.0264
 5443TIP3    H137820   6.413   1.922   1.578  0.3172  0.3845 -0.4812
 5443TIP3    H237821   6.313   1.840   1.500  0.3142 -0.9846  0.9575
 5444TIP3   OH237822   3.259   0.701  12.934 -0.1009  0.1859  0.6780
 5444TIP3    H137823   3.257   0.689  12.839 -0.1138 -0.9855  0.8245
 5444TIP3    H237824   3.167   0.697  12.961 -0.0123 -0.6437  0.8754
 5445TIP3   OH237825   5.230   0.287  16.371  0.1929  0.0245  0.0577
 5445TIP3    H137826   5.215   0.382  16.369  0.0580 -0.0199 -1.1783
 5445TIP3    H237827   5.176   0.256  16.443  1.0033  1.0210  1.1139
 5446TIP3   OH237828   4.272   6.362   0.204 -0.0636 -0.1953 -0.2415
 5446TIP3    H137829   4.197   6.351   0.146 -0.1173 -0.7844 -0.0593
 5446TIP3    H237830   4.254   6.444   0.251 -0.4699 -0.2107 -0.3700
 5447TIP3   OH237831   5.390   3.467   4.870  0.8498  0.0370 -0.1400
 5447TIP3    H137832   5.463   3.415   4.838 -0.2870 -1.0536 -1.0150
 5447TIP3    H237833   5.400   3.552   4.826  3.0404  0.8003  1.7517
 5448TIP3   OH237834   1.210   4.634  17.064 -0.5691  0.4414  0.2940
 5448TIP3    H137835   1.169   4.550  17.044  1.2348 -0.8527  1.8924
 5448TIP3    H237836   1.209   4.639  17.159 -0.6378  2.2510  0.2204
 5449TIP3   OH237837   1.949   4.533  15.833 -1.0656 -0.1693 -0.8607
 5449TIP3    H137838   1.948   4.491  15.747 -0.7492 -0.0489 -0.9231
 5449TIP3    H237839   2.015   4.485  15.882 -1.4490 -0.4245 -0.5902
 5450TIP3   OH237840   6.312   3.964  16.223 -0.2233  0.5673  0.3326
 5450TIP3    H137841   6.365   3.889  16.248 -1.1043 -0.2871 -0.3416
 5450TIP3    H237842   6.244   3.970  16.290 -2.0017 -1.1340 -1.2598
 5451TIP3   OH237843   5.007   6.549   2.328 -0.3660 -0.3735  0.2131
 5451TIP3    H137844   5.089   6.501   2.336 -0.7313 -0.8693  1.0814
 5451TIP3    H237845   5.032   6.641   2.341  0.0133 -0.5472  0.7137
 5452TIP3   OH237846   3.405   0.030  11.251  0.1604  0.0850  0.0830
 5452TIP3    H137847   3.374   0.015  11.162  1.8782  2.8003 -1.0256
 5452TIP3    H237848   3.328   0.012  11.306 -1.1956 -0.6864 -2.0079
 5453TIP3   OH237849   3.707   3.678  14.339  0.9556 -0.1837 -0.0588
 5453TIP3    H137850   3.773   3.747  14.340  1.3579 -0.5678  1.3851
 5453TIP3    H237851   3.643   3.705  14.406  0.7696 -0.8647  0.0400
 5454TIP3   OH237852   5.146   2.094  14.101  0.5814 -0.5117 -0.5596
 5454TIP3    H137853   5.073   2.044  14.139  1.1873 -1.0110 -0.0541
 5454TIP3    H237854   5.222   2.070  14.153  0.8861  0.9723 -0.3069
 5455TIP3   OH237855   1.283   5.599   1.227 -0.2827 -0.0883 -0.1269
 5455TIP3    H137856   1.233   5.524   1.259 -1.7619  0.1372 -1.8176
 5455TIP3    H237857   1.330   5.567   1.151  1.1068  0.0552  0.6629
 5456TIP3   OH237858   3.743   6.447  11.440  0.1933  0.2189 -0.3097
 5456TIP3    H137859   3.774   6.492  11.518  0.1599 -0.3120  0.0085
 5456TIP3    H237860   3.676   6.505  11.403 -0.7697 -0.1656  0.8127
 5457TIP3   OH237861   5.814   5.352  14.882 -1.0272 -0.6984  0.0354
 5457TIP3    H137862   5.767   5.418  14.932  0.0026 -1.2371  1.7816
 5457TIP3    H237863   5.869   5.401  14.821  0.4448  0.1412  1.9684
 5458TIP3   OH237864   5.012   5.926   4.042  0.0811  0.5380 -0.2258
 5458TIP3    H137865   5.003   5.966   4.129 -0.0593  1.8638 -0.8350
 5458TIP3    H237866   4.926   5.934   4.003  0.8879  2.6771 -1.6199
 5459TIP3   OH237867   5.426   5.561  14.225 -0.1163 -0.2552  0.1034
 5459TIP3    H137868   5.519   5.583  14.216  0.5942 -2.0872  2.4389
 5459TIP3    H237869   5.399   5.535  14.138  1.4462  0.7576 -0.7142
 5460TIP3   OH237870   1.891   6.103  12.177 -0.3563  0.6553 -0.3160
 5460TIP3    H137871   1.812   6.124  12.128 -0.7329  1.1447  0.4871
 5460TIP3    H237872   1.928   6.189  12.200  0.5113  0.4278 -0.8554
 5461TIP3   OH237873   4.610   4.938   0.179  0.4384 -0.3391 -0.6733
 5461TIP3    H137874   4.683   4.925   0.118  0.4094 -0.0690 -0.7684
 5461TIP3    H237875   4.609   5.033   0.194 -0.4363 -0.2444 -1.3415
 5462TIP3   OH237876   3.180   1.009  16.666  0.4126  0.2801 -0.2752
 5462TIP3    H137877   3.223   1.014  16.752  0.8477  0.4174 -0.4935
 5462TIP3    H237878   3.092   1.043  16.681  0.1704 -0.5956  0.3218
 5463TIP3   OH237879   1.451   5.541   0.495  0.4583 -0.3094 -0.5125
 5463TIP3    H137880   1.509   5.466   0.503 -0.2633 -0.8205  0.0388
 5463TIP3    H237881   1.388   5.530   0.566 -0.2290  0.2988 -1.0211
 5464TIP3   OH237882   6.432   2.251   2.592 -0.3553  0.2245  0.4716
 5464TIP3    H137883   6.383   2.268   2.673 -0.2693 -1.6440  0.9475
 5464TIP3    H237884   6.515   2.213   2.622 -0.7675 -1.4943 -0.5196
 5465TIP3   OH237885   1.260   6.459   3.332  0.6506  0.6686 -0.2874
 5465TIP3    H137886   1.242   6.419   3.247 -0.1532  1.0102 -0.2828
 5465TIP3    H237887   1.177   6.454   3.379  1.1805  0.1544  0.6229
 5466TIP3   OH237888   0.627   5.696   1.391 -0.2730  0.4503  0.2163
 5466TIP3    H137889   0.579   5.678   1.472 -0.5614  2.3430  0.5020
 5466TIP3    H237890   0.638   5.611   1.350 -0.7583 -0.4507  1.8998
 5467TIP3   OH237891   6.728   4.730   5.925 -0.1504 -0.2404 -0.2099
 5467TIP3    H137892   6.822   4.714   5.924 -0.1820 -0.4374 -2.9744
 5467TIP3    H237893   6.691   4.661   5.870 -1.5834  1.5426 -1.5378
 5468TIP3   OH237894   3.299   1.856  16.215 -0.0544  0.1573 -0.1321
 5468TIP3    H137895   3.252   1.776  16.193 -2.2600  0.8388  1.8656
 5468TIP3    H237896   3.276   1.917  16.145 -0.4364 -0.2021 -0.3247
 5469TIP3   OH237897   2.987   4.822   5.102  0.2768  0.0641 -0.1175
 5469TIP3    H137898   2.927   4.883   5.145  0.5898  0.5693 -0.3898
 5469TIP3    H237899   3.061   4.813   5.163  0.2250 -0.0544 -0.0716
 5470TIP3   OH237900   4.645   2.106  11.912 -0.5084 -0.0904  0.3291
 5470TIP3    H137901   4.606   2.191  11.934  0.1981  0.5828 -0.9968
 5470TIP3    H237902   4.647   2.103  11.817  0.7423 -1.0100  0.3565
 5471TIP3   OH237903   1.138   4.180   4.629 -0.3413  0.2918 -0.3105
 5471TIP3    H137904   1.230   4.208   4.626 -0.5727  1.1577  0.4069
 5471TIP3    H237905   1.136   4.098   4.578  0.7143  0.5626 -0.8057
 5472TIP3   OH237906   4.992   1.517   3.276  0.2699  0.4386 -0.2604
 5472TIP3    H137907   5.006   1.446   3.339  0.0734 -0.2397 -0.9760
 5472TIP3    H237908   4.939   1.478   3.206 -1.2537  1.7420  0.1448
 5473TIP3   OH237909   5.952   0.150  11.629 -0.1841 -0.4781  0.2533
 5473TIP3    H137910   5.975   0.105  11.549  0.8013 -0.1855  0.3657
 5473TIP3    H237911   5.981   0.091  11.699 -0.1471 -0.2963  0.3922
 5474TIP3   OH237912   3.464   2.846  11.623 -0.1924  0.0518 -0.5142
 5474TIP3    H137913   3.520   2.801  11.560 -0.2446  0.7133 -1.0384
 5474TIP3    H237914   3.391   2.785  11.639 -0.1584 -0.1319 -1.0607
 5475TIP3   OH237915   2.624   3.382   2.807 -0.5501  0.3529  0.1255
 5475TIP3    H137916   2.690   3.379   2.738 -1.8751 -2.6684 -1.0962
 5475TIP3    H237917   2.670   3.351   2.885  0.1044  0.6328 -0.1417
 5476TIP3   OH237918   0.865   4.230  16.946 -0.6107 -0.4014  0.7467
 5476TIP3    H137919   0.864   4.227  16.850  0.4902  0.7545  0.6900
 5476TIP3    H237920   0.797   4.168  16.973  0.2799 -2.0545 -0.7567
 5477TIP3   OH237921   4.940   6.487   2.052 -0.1751  0.0932  0.1554
 5477TIP3    H137922   4.954   6.488   2.147 -1.5854 -0.7575  0.3845
 5477TIP3    H237923   4.997   6.418   2.020  1.7859  1.6835  0.1172
 5478TIP3   OH237924   5.970   6.656   3.362 -0.1571  0.4102 -0.3000
 5478TIP3    H137925   5.978   6.709   3.441  0.4921  0.1444 -0.1826
 5478TIP3    H237926   6.055   6.614   3.352  0.2863  1.6804 -2.0364
 5479TIP3   OH237927   2.360   0.379   5.653 -0.2842  0.5737  0.1540
 5479TIP3    H137928   2.326   0.388   5.564 -0.6055 -4.3893 -0.3680
 5479TIP3    H237929   2.447   0.340   5.642  0.3995  1.4952  1.9870
 5480TIP3   OH237930   3.200   6.570   4.135 -0.1131 -0.3653 -0.3723
 5480TIP3    H137931   3.194   6.592   4.227  0.8690 -0.1414 -0.3609
 5480TIP3    H237932   3.125   6.613   4.095 -1.1958 -1.3985  0.4906
 5481TIP3   OH237933   5.989   5.060  16.873 -0.2445 -0.3426 -0.0210
 5481TIP3    H137934   5.898   5.077  16.896  0.2079  0.3976  1.3119
 5481TIP3    H237935   5.999   5.096  16.785 -1.0062  0.3844  0.1833
 5482TIP3   OH237936   5.412   1.682   0.279 -0.1086  0.1281 -0.0190
 5482TIP3    H137937   5.434   1.590   0.263 -1.8283 -0.3767  0.5019
 5482TIP3    H237938   5.436   1.726   0.197 -1.4680 -1.1658 -1.1587
 5483TIP3   OH237939   0.379   3.923   4.957  0.2781 -0.1286 -0.0074
 5483TIP3    H137940   0.285   3.925   4.940 -0.0962 -2.0956  1.6111
 5483TIP3    H237941   0.398   4.011   4.992 -1.2316 -0.1584  0.9546
 5484TIP3   OH237942   6.171   0.654  16.921  0.2342 -0.2266  0.0175
 5484TIP3    H137943   6.097   0.647  16.860 -1.0578 -3.6666  1.7764
 5484TIP3    H237944   6.247   0.673  16.866 -1.1611 -1.6019 -2.4720
 5485TIP3   OH237945   2.345   3.781  14.918  0.1676  0.3084 -0.0394
 5485TIP3    H137946   2.348   3.874  14.939  1.5467  0.0974  0.8033
 5485TIP3    H237947   2.327   3.777  14.824 -0.8302  1.3972  0.0959
 5486TIP3   OH237948   4.047   1.247  12.827  0.3020  0.1120 -0.0936
 5486TIP3    H137949   4.034   1.280  12.916  1.4881  0.3707  0.0036
 5486TIP3    H237950   4.112   1.177  12.837  2.5614  2.0039 -1.0823
 5487TIP3   OH237951   3.844   0.619   3.568  0.5243 -0.2397 -0.3398
 5487TIP3    H137952   3.850   0.595   3.476  0.2098 -1.4079 -0.0705
 5487TIP3    H237953   3.793   0.700   3.569 -0.5539 -0.9010 -1.0908
 5488TIP3   OH237954   5.221   4.412   3.399 -0.1009  0.0092 -0.8076
 5488TIP3    H137955   5.256   4.455   3.478 -0.6909 -1.4640  0.2804
 5488TIP3    H237956   5.277   4.444   3.328  2.3526 -0.9165  0.6228
 5489TIP3   OH237957   0.188   4.360   4.403 -0.1853  0.3498 -0.1956
 5489TIP3    H137958   0.149   4.413   4.333 -2.1324  0.0131  0.6110
 5489TIP3    H237959   0.219   4.281   4.358 -1.1824  0.2542 -0.7310
 5490TIP3   OH237960   6.207   5.627   0.382 -0.0572 -0.5278  0.4118
 5490TIP3    H137961   6.239   5.612   0.294  0.2885  0.9089  0.2670
 5490TIP3    H237962   6.147   5.702   0.373  0.6645  0.2024  1.5094
 5491TIP3   OH237963   0.564   0.395  10.498 -0.0535  0.4853  0.7065
 5491TIP3    H137964   0.573   0.409  10.404 -0.9244 -1.7586  0.2451
 5491TIP3    H237965   0.482   0.437  10.522 -0.1593  0.4877  0.3347
 5492TIP3   OH237966   1.740   0.218  10.929  0.6794 -0.0013  0.4259
 5492TIP3    H137967   1.812   0.182  10.980  0.1852  0.4981  1.5010
 5492TIP3    H237968   1.678   0.146  10.919  1.8685 -0.7968 -1.5836
 5493TIP3   OH237969   5.210   5.966   5.720  0.2716 -0.0138 -0.3938
 5493TIP3    H137970   5.302   5.992   5.724  0.1820  0.1700  0.4056
 5493TIP3    H237971   5.198   5.909   5.795 -0.5596  0.8741  0.1443
 5494TIP3   OH237972   3.749   1.115  15.519 -0.5094  0.7216  0.5453
 5494TIP3    H137973   3.818   1.147  15.461 -1.0474 -0.9836 -1.0880
 5494TIP3    H237974   3.795   1.059  15.581 -0.1339  1.3441  0.8345
 5495TIP3   OH237975   5.061   2.370   3.512 -0.4207  0.6646 -0.4314
 5495TIP3    H137976   4.997   2.316   3.465  0.2593 -0.0488 -0.5565
 5495TIP3    H237977   5.029   2.459   3.503 -3.4983  0.0028  2.7716
 5496TIP3   OH237978   0.791   1.141   3.142 -0.0001  0.6957  0.5248
 5496TIP3    H137979   0.885   1.153   3.129  0.2053 -1.5352 -0.2086
 5496TIP3    H237980   0.784   1.062   3.194 -1.4691  1.0478  0.8662
 5497TIP3   OH237981   5.853   1.515   1.750  0.2311  0.2486  0.4478
 5497TIP3    H137982   5.784   1.581   1.757 -0.1374  0.0376 -0.9479
 5497TIP3    H237983   5.933   1.566   1.738  0.2290  0.4787  1.3584
 5498TIP3   OH237984   3.859   4.340  12.395 -0.5155  0.4664 -0.5282
 5498TIP3    H137985   3.875   4.398  12.470  0.3257 -1.0550  0.4998
 5498TIP3    H237986   3.934   4.281  12.393 -1.2522 -0.4691 -1.6744
 5499TIP3   OH237987   3.740   6.198   4.431 -0.3574  0.6395 -0.7669
 5499TIP3    H137988   3.747   6.285   4.472 -0.5981  0.1983  0.2458
 5499TIP3    H237989   3.830   6.167   4.425 -0.3314  0.6438 -0.4212
 5500TIP3   OH237990   3.789   3.265  14.793  0.3862 -0.6884 -0.2350
 5500TIP3    H137991   3.855   3.288  14.728 -1.5881 -1.3997 -2.5963
 5500TIP3    H237992   3.719   3.329  14.779 -1.5107 -2.8865 -1.1587
 5501TIP3   OH237993   0.687   0.267  11.866 -0.0985 -0.6854 -0.4967
 5501TIP3    H137994   0.742   0.284  11.943 -0.5766  1.7496 -0.6461
 5501TIP3    H237995   0.692   0.348  11.815 -0.4096 -1.9926 -2.6607
 5502TIP3   OH237996   4.975   1.001   4.999  0.3099  0.0720  0.0628
 5502TIP3    H137997   5.045   1.020   4.936 -0.5043 -0.1040 -0.9073
 5502TIP3    H237998   4.942   0.915   4.973 -1.2070  0.7635 -0.3744
 5503TIP3   OH237999   1.121   6.752   1.326  0.3403  0.2381  0.2165
 5503TIP3    H138000   1.102   6.662   1.353  3.8514 -0.3874  0.8554
 5503TIP3    H238001   1.135   6.799   1.408  0.8514  0.8062 -0.1950
 5504TIP3   OH238002   2.422   6.306   1.815 -0.0590  0.2481 -0.2423
 5504TIP3    H138003   2.446   6.394   1.786 -0.5322  0.1824 -0.8275
 5504TIP3    H238004   2.370   6.321   1.894  0.4940  0.4592  0.0874
 5505TIP3   OH238005   1.088   1.746   4.150 -1.0967  0.0587  0.2263
 5505TIP3    H138006   1.102   1.668   4.204 -3.0036 -0.8069 -0.4900
 5505TIP3    H238007   1.034   1.804   4.204 -2.9899 -0.8000 -0.7084
 5506TIP3   OH238008   4.740   0.769   5.959  0.6516  0.3069 -0.4366
 5506TIP3    H138009   4.717   0.766   6.051 -0.7253 -1.9068 -0.8240
 5506TIP3    H238010   4.817   0.712   5.951 -1.4139 -2.4883 -1.2052
 5507TIP3   OH238011   1.181   2.852  15.021 -0.2373 -0.0211 -0.0038
 5507TIP3    H138012   1.161   2.795  14.947 -1.4241 -1.0155  1.0532
 5507TIP3    H238013   1.275   2.867  15.016 -0.2888 -0.1688 -1.6333
 5508TIP3   OH238014   4.884   2.232   6.272  0.0719 -0.0039  0.1096
 5508TIP3    H138015   4.958   2.219   6.332  0.0066 -0.1283  0.1644
 5508TIP3    H238016   4.892   2.322   6.243  0.3184 -0.0543  0.0182
 5509TIP3   OH238017   6.738   6.072  15.955  0.3428  0.5609  0.2960
 5509TIP3    H138018   6.658   6.103  15.912 -0.5105  2.5336  3.1602
 5509TIP3    H238019   6.708   6.036  16.039  2.4548  1.3991  1.4460
 5510TIP3   OH238020   0.003   5.479  12.005  0.1200 -0.5493  0.3051
 5510TIP3    H138021  -0.039   5.546  11.950  0.4351  0.8970  1.7979
 5510TIP3    H238022   0.096   5.486  11.985  0.0265 -1.4543 -0.4996
 5511TIP3   OH238023   5.525   0.779  11.990 -0.0298  0.5582  0.2805
 5511TIP3    H138024   5.507   0.850  12.051  0.2269  0.2077  0.7769
 5511TIP3    H238025   5.599   0.733  12.029 -2.1623 -1.8744  1.6118
 5512TIP3   OH238026   2.067   4.666   6.427  0.2649 -0.2809  0.1811
 5512TIP3    H138027   2.135   4.649   6.492 -0.6932  0.7839  1.5042
 5512TIP3    H238028   1.987   4.633   6.468 -0.2130 -0.3619 -0.8180
 5513TIP3   OH238029   1.044   1.056   3.127  0.0450  0.0269 -0.4550
 5513TIP3    H138030   1.067   1.018   3.042  0.9079 -0.2127 -0.1181
 5513TIP3    H238031   1.095   1.005   3.190 -0.1992  0.5475  0.1635
 5514TIP3   OH238032   6.778   2.864   0.844 -0.2199  0.9848  0.0270
 5514TIP3    H138033   6.822   2.841   0.926  0.2203  2.5401  0.2351
 5514TIP3    H238034   6.849   2.883   0.783 -0.5573  0.2203 -0.6130
 5515TIP3   OH238035   1.302   5.713   5.299 -0.1638  0.0399 -0.4533
 5515TIP3    H138036   1.258   5.638   5.340  1.2771 -0.6257 -0.0978
 5515TIP3    H238037   1.333   5.679   5.215 -0.6225  0.6018 -0.8511
 5516TIP3   OH238038   0.152   6.554   2.712  0.0317 -0.4555  0.3072
 5516TIP3    H138039   0.212   6.602   2.656 -1.7609  1.8654  0.2712
 5516TIP3    H238040   0.124   6.479   2.660  2.0699 -0.9700 -0.0497
 5517TIP3   OH238041   0.684   6.001   0.062  0.6169  0.0351 -0.3845
 5517TIP3    H138042   0.764   6.010   0.115  0.8437 -1.8376 -0.3836
 5517TIP3    H238043   0.713   5.957  -0.018 -0.8149 -3.1122  0.7260
 5518TIP3   OH238044   4.989   0.981  14.878 -0.1394 -0.0544  0.5353
 5518TIP3    H138045   5.068   1.005  14.926 -0.2708  1.1534  0.1539
 5518TIP3    H238046   4.991   1.035  14.799 -0.9191 -0.6249  0.1164
 5519TIP3   OH238047   6.008   0.576   1.355  0.1636 -0.4635  0.5483
 5519TIP3    H138048   5.962   0.495   1.335 -1.0147  0.5341 -0.8635
 5519TIP3    H238049   6.100   0.555   1.338 -0.2159 -1.2696 -0.6041
 5520TIP3   OH238050   6.350   0.701  17.266 -0.2029  0.2649  0.4140
 5520TIP3    H138051   6.297   0.762  17.317 -0.1680  0.1306  0.6154
 5520TIP3    H238052   6.416   0.755  17.224 -1.3951  0.6270 -1.0319
 5521TIP3   OH238053   6.294   3.211   0.333 -0.1454  0.0276  0.2501
 5521TIP3    H138054   6.350   3.196   0.409  0.3258 -0.5603 -0.2053
 5521TIP3    H238055   6.209   3.175   0.359 -0.1049  0.2293  0.6632
 5522TIP3   OH238056   3.214   1.818  10.901  0.2596  0.2872  0.3042
 5522TIP3    H138057   3.242   1.747  10.844  0.0261 -0.5828  1.2580
 5522TIP3    H238058   3.118   1.819  10.894  0.3185  1.1112 -0.4192
 5523TIP3   OH238059   1.480   5.526   6.265  0.3006 -0.3072  0.0637
 5523TIP3    H138060   1.408   5.566   6.216  0.2680 -0.1369  0.2509
 5523TIP3    H238061   1.448   5.439   6.288 -0.1854  0.1019  0.9235
 5524TIP3   OH238062   1.508   3.709  15.577  0.0593  0.7442  1.0518
 5524TIP3    H138063   1.533   3.639  15.517  0.0741  0.1315  1.7768
 5524TIP3    H238064   1.420   3.686  15.606 -0.9421  2.3221 -0.6340
 5525TIP3   OH238065   5.938   3.044   3.238 -0.1980 -0.4286 -0.0584
 5525TIP3    H138066   5.911   3.078   3.323  2.0076 -0.2875  0.6134
 5525TIP3    H238067   5.895   3.100   3.174  0.5103  1.3323  0.9955
 5526TIP3   OH238068   3.443   1.991   0.185 -0.3039  1.0421 -0.0351
 5526TIP3    H138069   3.532   2.025   0.190  0.7077 -1.6081  0.7243
 5526TIP3    H238070   3.403   2.039   0.113  2.0931  1.5055 -1.1090
 5527TIP3   OH238071   4.243   3.636   0.005 -0.1075 -0.6326 -0.1374
 5527TIP3    H138072   4.304   3.575  -0.036  0.7161  0.6031 -0.7882
 5527TIP3    H238073   4.270   3.640   0.097  0.7362 -0.1786 -0.3994
 5528TIP3   OH238074   1.578   4.353  12.492 -0.4619  0.5702  0.2027
 5528TIP3    H138075   1.549   4.274  12.538  0.9688 -0.2220 -0.2087
 5528TIP3    H238076   1.537   4.425  12.539 -1.5705 -0.4034  0.7551
 5529TIP3   OH238077   0.292   3.317  14.747 -0.3983 -0.5749  0.3086
 5529TIP3    H138078   0.257   3.341  14.662 -0.8756  0.8067  0.8879
 5529TIP3    H238079   0.369   3.372  14.759 -0.6811 -0.3201  1.0287
 5530TIP3   OH238080   5.175   2.574  12.624 -0.2595 -0.1092 -0.2571
 5530TIP3    H138081   5.110   2.507  12.601 -0.6454  0.6323 -1.3843
 5530TIP3    H238082   5.237   2.529  12.680 -2.2379 -0.6226  1.6053
 5531TIP3   OH238083   0.847   1.654  17.275  0.5041  0.0934  0.1662
 5531TIP3    H138084   0.808   1.573  17.307  0.6894  0.5345  1.5435
 5531TIP3    H238085   0.776   1.718  17.280  0.6405  0.2544  0.0393
 5532TIP3   OH238086   1.643   4.994  15.778  0.9403 -0.0272  0.4844
 5532TIP3    H138087   1.672   4.975  15.689  1.8423  1.3677  0.4479
 5532TIP3    H238088   1.561   5.042  15.767  1.7045  1.2711  0.3372
 5533TIP3   OH238089   3.936   2.162   4.658 -0.3930 -0.3465 -0.3220
 5533TIP3    H138090   3.850   2.197   4.634 -1.1276  0.1019  2.7031
 5533TIP3    H238091   3.993   2.239   4.660 -1.1320  0.1873  2.5924
 5534TIP3   OH238092   6.288   4.104  14.499 -0.7353 -0.7561  0.0460
 5534TIP3    H138093   6.218   4.159  14.463  0.5155 -0.6215 -2.2687
 5534TIP3    H238094   6.332   4.161  14.562 -0.0718  0.6141 -1.6063
 5535TIP3   OH238095   2.209   3.535   4.090 -0.5345 -0.8469 -0.1145
 5535TIP3    H138096   2.272   3.606   4.095 -0.5056 -0.7188 -1.7776
 5535TIP3    H238097   2.124   3.578   4.098 -0.4350 -0.9739  1.7368
 5536TIP3   OH238098   5.876   0.072  15.010  0.3430 -0.1515  0.0184
 5536TIP3    H138099   5.783   0.053  15.002  0.1287  0.5921  0.7634
 5536TIP3    H238100   5.885   0.162  14.976  0.9671 -0.6399 -1.1447
 5537TIP3   OH238101   0.606   3.459   2.168 -0.4141  0.2857 -0.8581
 5537TIP3    H138102   0.522   3.420   2.190 -1.2013  2.7639  0.7075
 5537TIP3    H238103   0.662   3.442   2.244 -0.0190  0.0804 -1.1915
 5538TIP3   OH238104   0.768   4.485   2.640 -0.0664  0.2814 -0.3531
 5538TIP3    H138105   0.710   4.526   2.705 -2.0419 -1.2925 -1.0289
 5538TIP3    H238106   0.772   4.547   2.568 -1.0320  0.3702 -0.3388
 5539TIP3   OH238107   5.066   4.121   1.618  0.1457  0.2037  0.4245
 5539TIP3    H138108   5.012   4.132   1.696 -2.4562 -0.6746 -1.1823
 5539TIP3    H238109   5.085   4.028   1.615  1.5713  0.4699  0.8350
 5540TIP3   OH238110   0.294   2.234   5.160 -0.3216 -0.3672  0.1315
 5540TIP3    H138111   0.256   2.299   5.219 -0.6561  0.7542 -1.2991
 5540TIP3    H238112   0.307   2.157   5.215  1.0478  1.2215  2.1160
 5541TIP3   OH238113   3.844   0.349  12.379 -0.0199 -0.0440  0.0018
 5541TIP3    H138114   3.788   0.407  12.431  0.0655  0.1038 -0.0721
 5541TIP3    H238115   3.782   0.301  12.323 -0.2350 -1.2203  1.2296
 5542TIP3   OH238116   0.311   5.145  12.836 -0.0950  0.1745  0.0419
 5542TIP3    H138117   0.350   5.188  12.760  0.4548  1.1124  0.8539
 5542TIP3    H238118   0.384   5.097  12.876 -0.2687  0.1087  0.2802
 5543TIP3   OH238119   2.327   4.705   1.167 -0.3477 -0.3530 -0.1877
 5543TIP3    H138120   2.271   4.783   1.169  0.3269  0.1648 -1.2372
 5543TIP3    H238121   2.314   4.669   1.079  0.4890 -0.5728 -0.2239
 5544TIP3   OH238122   4.491   3.312   2.765 -1.1334  1.1509 -0.0476
 5544TIP3    H138123   4.533   3.297   2.680 -1.3543  1.3004 -0.1844
 5544TIP3    H238124   4.556   3.283   2.829 -0.9629  1.0416 -0.2669
 5545TIP3   OH238125   2.242   0.215  15.524 -0.0917 -0.0951 -0.2055
 5545TIP3    H138126   2.215   0.284  15.463 -1.6431  0.1193  0.6764
 5545TIP3    H238127   2.204   0.135  15.488  1.5056 -0.4520 -1.1007
 5546TIP3   OH238128   1.308   0.817  12.380 -0.2408 -0.5152 -0.2335
 5546TIP3    H138129   1.231   0.760  12.377 -1.1029  0.7110 -3.5813
 5546TIP3    H238130   1.370   0.770  12.437 -2.2362 -3.0592 -0.0382
 5547TIP3   OH238131   2.658   5.189   1.697 -0.0254  0.0365  0.8247
 5547TIP3    H138132   2.669   5.100   1.662 -1.9365 -0.2573  0.9270
 5547TIP3    H238133   2.591   5.229   1.642  4.2645  3.1920 -2.3872
 5548TIP3   OH238134   0.212   1.829  16.708 -0.2250 -0.6228 -0.1659
 5548TIP3    H138135   0.288   1.810  16.763  1.5787  3.0102 -1.2589
 5548TIP3    H238136   0.137   1.825  16.768  1.0571 -2.0089  1.3948
 5549TIP3   OH238137   6.160   0.176   3.263  0.1733 -0.6222 -0.2174
 5549TIP3    H138138   6.077   0.202   3.224  0.9763 -0.3077 -1.7374
 5549TIP3    H238139   6.176   0.088   3.229  0.9146 -0.3169 -0.6674
 5550TIP3   OH238140   3.166   4.934  13.642 -0.4199 -0.1941  0.1283
 5550TIP3    H138141   3.160   4.907  13.551  1.0522  0.7146 -0.2548
 5550TIP3    H238142   3.154   5.029  13.640  0.7344 -0.0269  0.7510
 5551TIP3   OH238143   6.010   4.274   2.855 -0.7767  0.4569  0.1981
 5551TIP3    H138144   6.079   4.293   2.919 -1.5697  0.9122  0.9127
 5551TIP3    H238145   5.973   4.360   2.833 -1.6521  0.1338  0.4056
 5552TIP3   OH238146   2.855   0.487  17.148  0.7362 -0.3671  0.2832
 5552TIP3    H138147   2.862   0.392  17.154 -1.9244 -0.6878 -0.6781
 5552TIP3    H238148   2.828   0.515  17.236 -1.0242 -0.8142 -0.0977
 5553TIP3   OH238149   5.155   6.590  15.107  0.3505 -0.1339  0.1782
 5553TIP3    H138150   5.156   6.502  15.145 -1.9632 -0.1641  0.2417
 5553TIP3    H238151   5.062   6.610  15.095  0.9193  0.5302 -3.9546
 5554TIP3   OH238152   0.491   1.606   0.081 -0.3470 -0.1893 -0.0242
 5554TIP3    H138153   0.417   1.627   0.137  1.7538  0.6237  2.5779
 5554TIP3    H238154   0.514   1.690   0.041 -1.1434 -0.5444 -1.2339
 5555TIP3   OH238155   5.159   1.945   1.567 -0.0282  0.3328  0.5613
 5555TIP3    H138156   5.195   2.002   1.498 -0.9987 -1.4951 -1.5298
 5555TIP3    H238157   5.236   1.910   1.611  0.5858  3.3957  2.0548
 5556TIP3   OH238158   3.357   2.399   5.342 -0.0725  0.6024 -0.2045
 5556TIP3    H138159   3.415   2.352   5.401  0.4153  0.1050 -1.0642
 5556TIP3    H238160   3.376   2.492   5.356  1.6057  0.4126 -1.1473
 5557TIP3   OH238161   1.439   2.101  13.118  0.2778 -0.0808  0.2171
 5557TIP3    H138162   1.433   2.126  13.210 -1.0058 -1.6076  0.5518
 5557TIP3    H238163   1.349   2.091  13.089  0.6671  0.5124 -1.2597
 5558TIP3   OH238164   6.477   1.441   4.695 -0.3570 -0.2018  0.2295
 5558TIP3    H138165   6.455   1.399   4.778  0.5019  0.4859  0.8092
 5558TIP3    H238166   6.395   1.440   4.645 -1.0115 -0.1247  1.3027
 5559TIP3   OH238167   3.137   0.873   5.294  0.1975  0.1446  0.0846
 5559TIP3    H138168   3.232   0.861   5.301  0.3978  1.7608  0.2871
 5559TIP3    H238169   3.122   0.895   5.202  0.0967  0.5622  0.2014
 5560TIP3   OH238170   0.564   3.681   4.162 -0.0181 -0.6203 -0.0108
 5560TIP3    H138171   0.583   3.695   4.069  0.9911  0.8502  0.3945
 5560TIP3    H238172   0.469   3.667   4.164 -0.0332 -0.8073 -1.2754
 5561TIP3   OH238173   3.475   3.254   2.419 -0.2042  0.3678  0.5078
 5561TIP3    H138174   3.514   3.171   2.445 -1.0463 -0.1718  0.0997
 5561TIP3    H238175   3.534   3.321   2.452  1.3216 -0.4330 -0.5335
 5562TIP3   OH238176   5.628   1.037   3.470 -0.2610  0.3009 -0.3664
 5562TIP3    H138177   5.647   1.093   3.395 -0.4794  0.5724 -0.2165
 5562TIP3    H238178   5.614   0.950   3.432 -1.2892  0.6300 -0.7268
 5563TIP3   OH238179   1.716   5.698  12.160  0.3174 -0.3500  0.1138
 5563TIP3    H138180   1.658   5.629  12.130  0.4698 -0.0433 -0.8923
 5563TIP3    H238181   1.800   5.679  12.119  0.0935  1.0325 -1.0385
 5564TIP3   OH238182   1.668   0.738  14.341  0.2020 -0.3835  0.0800
 5564TIP3    H138183   1.595   0.792  14.372 -0.2929 -1.7873  1.4160
 5564TIP3    H238184   1.640   0.709  14.254 -1.3306 -1.7526  0.9879
 5565TIP3   OH238185   4.922   0.085   1.309 -0.4625 -0.6301 -0.0135
 5565TIP3    H138186   4.929   0.013   1.372  0.9535  0.0645  0.6507
 5565TIP3    H238187   4.828   0.094   1.293 -0.7801 -1.3395  1.3936
 5566TIP3   OH238188   0.709   6.205  16.321  0.0084 -0.2309  0.1598
 5566TIP3    H138189   0.645   6.191  16.390 -1.8937  2.8319 -0.8819
 5566TIP3    H238190   0.675   6.154  16.247 -0.5199  0.3565 -0.0003
 5567TIP3   OH238191   2.564   0.222  11.552 -0.2818  0.7889  0.1102
 5567TIP3    H138192   2.599   0.310  11.537 -0.3691  0.7902 -0.0957
 5567TIP3    H238193   2.471   0.235  11.566 -0.2055  0.7820  0.6229
 5568TIP3   OH238194   6.301   5.320   3.379  0.0085 -0.1717 -0.1473
 5568TIP3    H138195   6.359   5.391   3.405  0.1970 -0.8327  1.3397
 5568TIP3    H238196   6.359   5.244   3.372 -0.6421 -0.8368  1.3379
 5569TIP3   OH238197   5.932   4.996  16.317 -0.0402 -0.3801  0.1755
 5569TIP3    H138198   5.858   4.952  16.358  0.8960 -1.8677  0.2841
 5569TIP3    H238199   5.892   5.051  16.249 -1.4197  0.5642  1.7177
 5570TIP3   OH238200   3.713   0.564   2.709 -0.2938  0.2147  0.2368
 5570TIP3    H138201   3.637   0.530   2.757  0.9367  0.9345  2.7839
 5570TIP3    H238202   3.676   0.606   2.632 -2.3639 -0.8674  0.6017
 5571TIP3   OH238203   1.748   5.227  14.292  0.7201 -0.7954 -0.4829
 5571TIP3    H138204   1.804   5.176  14.233  1.1926 -2.5126  1.4046
 5571TIP3    H238205   1.695   5.161  14.337  0.7290  0.4499  1.3680
 5572TIP3   OH238206   2.632   6.660  13.458 -0.4155  0.1984 -0.1854
 5572TIP3    H138207   2.623   6.573  13.496  0.1580 -0.0498 -0.6017
 5572TIP3    H238208   2.591   6.653  13.372 -2.1018  0.8769  0.5428
 5573TIP3   OH238209   4.400   3.267  15.500  0.1633 -0.0050  0.0134
 5573TIP3    H138210   4.485   3.233  15.525 -0.0333 -1.2459 -0.9509
 5573TIP3    H238211   4.379   3.332  15.567 -0.0800 -2.7596  2.7250
 5574TIP3   OH238212   1.492   4.423  16.384  0.6556 -0.4193  0.2235
 5574TIP3    H138213   1.581   4.423  16.348  0.5865 -1.6669  0.0219
 5574TIP3    H238214   1.502   4.461  16.471  1.3944 -0.5531  0.2034
 5575TIP3   OH238215   4.547   6.777   1.013 -0.4419 -0.5079 -0.1713
 5575TIP3    H138216   4.642   6.784   1.021 -0.5786 -0.0868  1.2338
 5575TIP3    H238217   4.525   6.831   0.938  0.5225 -1.3719 -1.0918
 5576TIP3   OH238218   6.394   0.616   3.220  0.4256 -0.4778  0.2253
 5576TIP3    H138219   6.457   0.687   3.230 -0.9975  1.1639 -1.8766
 5576TIP3    H238220   6.311   0.653   3.251 -0.5589 -0.7933 -1.9491
 5577TIP3   OH238221   5.512   2.503  15.523 -0.1380 -0.1371 -0.3921
 5577TIP3    H138222   5.436   2.533  15.472 -0.1966 -0.0652 -0.2624
 5577TIP3    H238223   5.577   2.573  15.512 -1.0575  1.0845  1.6912
 5578TIP3   OH238224   4.730   3.395  11.378  0.1135  0.0026  0.4059
 5578TIP3    H138225   4.660   3.430  11.323 -0.2197 -0.1893  0.7162
 5578TIP3    H238226   4.701   3.308  11.403  0.9838 -0.5551 -0.4362
 5579TIP3   OH238227   1.674   5.243   5.757 -0.0482 -0.3387  0.9956
 5579TIP3    H138228   1.612   5.224   5.686 -0.9883  3.2481  0.7861
 5579TIP3    H238229   1.637   5.200   5.834 -1.0426 -1.0027  0.1552
 5580TIP3   OH238230   3.096   1.025   0.494  0.8401 -0.0097  0.0010
 5580TIP3    H138231   3.156   1.076   0.440 -1.6348  2.3011 -0.6747
 5580TIP3    H238232   3.062   0.957   0.435  1.8937 -0.6121  0.0751
 5581TIP3   OH238233   3.641   0.414  12.575  0.2779  0.3912 -0.4322
 5581TIP3    H138234   3.594   0.331  12.571  1.1006 -0.0588 -1.0071
 5581TIP3    H238235   3.575   0.478  12.598 -0.1032 -0.6526  1.5508
 5582TIP3   OH238236   0.337   2.780  14.384 -0.0839  0.1871  0.2973
 5582TIP3    H138237   0.428   2.775  14.355 -0.7517  1.0530 -2.0546
 5582TIP3    H238238   0.314   2.872  14.373 -1.4674 -0.1636  0.2217
 5583TIP3   OH238239   5.483   1.861   4.045 -0.0437  0.0135 -0.0976
 5583TIP3    H138240   5.518   1.821   4.124  0.0606 -1.2818 -0.7815
 5583TIP3    H238241   5.388   1.848   4.052  0.0264 -0.8108 -0.5415
 5584TIP3   OH238242   6.577   3.936  15.050 -0.3517  0.1400 -0.2081
 5584TIP3    H138243   6.591   4.015  14.999 -0.2413 -0.3039 -0.8700
 5584TIP3    H238244   6.649   3.935  15.113 -0.6415  0.8247  0.1438
 5585TIP3   OH238245   1.726   0.860  12.011  0.2728 -0.0047  0.1589
 5585TIP3    H138246   1.746   0.780  12.058  2.4260 -1.2777 -2.7441
 5585TIP3    H238247   1.805   0.878  11.959 -1.3900  2.1415 -1.7732
 5586TIP3   OH238248   0.433   4.373   4.817  0.1331  0.2378  0.0371
 5586TIP3    H138249   0.463   4.458   4.850  1.3365 -0.0953 -0.1761
 5586TIP3    H238250   0.382   4.395   4.739 -0.8255  0.8658  0.8185
 5587TIP3   OH238251   0.118   3.232   2.648  0.5787 -0.6400  0.1037
 5587TIP3    H138252   0.064   3.295   2.696  1.9099  0.0331  0.7646
 5587TIP3    H238253   0.114   3.262   2.557 -0.6693 -0.9807  0.0335
 5588TIP3   OH238254   4.235   4.645   2.867  0.2585  0.4369  0.3723
 5588TIP3    H138255   4.161   4.643   2.806  0.3588 -2.6031  0.2597
 5588TIP3    H238256   4.203   4.693   2.943 -1.0356  1.2001 -0.6319
 5589TIP3   OH238257   4.031   3.025   3.489  0.1652 -0.3967 -0.0531
 5589TIP3    H138258   3.996   2.945   3.529 -0.0995 -0.1661  0.1813
 5589TIP3    H238259   3.955   3.067   3.449  0.0556  0.3790  0.9176
 5590TIP3   OH238260   0.727   5.374  14.241 -0.3375  0.0541  0.2457
 5590TIP3    H138261   0.758   5.294  14.282  0.6938  0.2862 -0.0746
 5590TIP3    H238262   0.703   5.347  14.152 -0.9122 -0.0954  0.4470
 5591TIP3   OH238263   0.325   2.036  11.102  0.7870 -1.0901 -0.5653
 5591TIP3    H138264   0.284   1.955  11.069  1.8999 -1.4225 -1.1816
 5591TIP3    H238265   0.277   2.057  11.182 -1.1748 -0.9658 -1.7468
 5592TIP3   OH238266   1.947   1.615   4.891  0.3232  0.5938 -0.1670
 5592TIP3    H138267   1.942   1.706   4.862  0.8087  0.9390  0.7937
 5592TIP3    H238268   1.869   1.574   4.854 -0.9575  1.8792  0.9945
 5593TIP3   OH238269   0.516   2.309   4.047 -0.2836  0.1955  0.1065
 5593TIP3    H138270   0.556   2.295   3.962  1.1037 -2.1427  1.0893
 5593TIP3    H238271   0.544   2.397   4.073 -0.7413  0.9281 -1.8315
 5594TIP3   OH238272   2.973   4.506   1.587 -0.3106 -0.5677  0.4017
 5594TIP3    H138273   2.923   4.489   1.508  0.5482 -0.2596 -0.2141
 5594TIP3    H238274   2.925   4.459   1.656 -1.7457  0.1682 -0.0662
 5595TIP3   OH238275   5.117   3.477   5.916  0.3617 -0.5239  0.3213
 5595TIP3    H138276   5.171   3.556   5.921 -3.1531  1.9212  1.3808
 5595TIP3    H238277   5.123   3.438   6.003 -0.4240  0.3604  0.7824
 5596TIP3   OH238278   3.097   6.596  15.180  0.0121 -0.5136  0.0183
 5596TIP3    H138279   3.056   6.667  15.228  0.2040  0.4197 -1.1541
 5596TIP3    H238280   3.188   6.625  15.168 -0.0563 -0.6723 -0.9613
 5597TIP3   OH238281   5.138   6.618  15.441 -0.0255  0.1494 -0.2072
 5597TIP3    H138282   5.052   6.658  15.450  0.3117  0.9276 -0.3526
 5597TIP3    H238283   5.199   6.692  15.447  0.5661 -0.2373 -1.3679
 5598TIP3   OH238284   5.977   3.192  10.606  0.1137 -0.6047 -0.7809
 5598TIP3    H138285   5.912   3.227  10.667  0.5821 -1.1551  0.0484
 5598TIP3    H238286   5.937   3.112  10.572  0.3683 -0.9674 -0.2370
 5599TIP3   OH238287   4.502   2.025   5.455 -0.2096  0.2363 -0.1398
 5599TIP3    H138288   4.490   1.939   5.496  0.0873  0.1865 -0.1581
 5599TIP3    H238289   4.595   2.043   5.463 -0.3312  0.7371  0.2165
 5600TIP3   OH238290   0.537   6.746   5.230  0.2748 -0.1711 -0.0922
 5600TIP3    H138291   0.503   6.730   5.142  1.3513 -1.0447 -0.3525
 5600TIP3    H238292   0.576   6.834   5.225  2.4182 -1.1460 -1.1481
 5601TIP3   OH238293   4.561   0.397   0.824 -0.1269  0.0668 -0.3988
 5601TIP3    H138294   4.539   0.486   0.852  1.7809  0.7740 -1.0461
 5601TIP3    H238295   4.633   0.372   0.882 -1.4243 -1.5205  0.5598
 5602TIP3   OH238296   1.876   1.343   3.127  0.0557 -0.4127 -0.0209
 5602TIP3    H138297   1.838   1.272   3.178 -1.1234  0.4860  0.3787
 5602TIP3    H238298   1.829   1.341   3.044 -1.7367  1.4467  0.9106
 5603TIP3   OH238299   5.888   0.744   5.968  0.0289  0.0548 -0.3702
 5603TIP3    H138300   5.949   0.814   5.944 -0.1793  0.1824 -0.5224
 5603TIP3    H238301   5.824   0.786   6.025  0.9797 -0.4153  1.0924
 5604TIP3   OH238302   4.473   5.930  14.885  0.1924 -0.1744  0.4704
 5604TIP3    H138303   4.535   5.889  14.825  0.3063  1.5357 -0.6447
 5604TIP3    H238304   4.528   5.977  14.948  0.0601 -0.5478  0.8599
 5605TIP3   OH238305   3.465   6.230   4.172  0.5242  0.7538 -0.2687
 5605TIP3    H138306   3.390   6.176   4.197  1.9360 -0.6624  0.9641
 5605TIP3    H238307   3.475   6.214   4.078 -1.5088  2.0003 -0.7450
 5606TIP3   OH238308   0.380   2.537  11.196 -0.1488 -0.4236 -0.0133
 5606TIP3    H138309   0.314   2.564  11.132  0.4653 -0.1387 -0.5354
 5606TIP3    H238310   0.411   2.620  11.234  0.6926 -0.4762 -0.5665
 5607TIP3   OH238311   6.745   5.029  13.054  0.4459  0.9015 -0.1667
 5607TIP3    H138312   6.756   5.005  13.146  0.9477  0.3864 -0.3595
 5607TIP3    H238313   6.739   5.124  13.055 -2.6802  0.7633  0.7320
 5608TIP3   OH238314   6.546   4.665   6.174  0.3303  0.3664 -0.0135
 5608TIP3    H138315   6.467   4.715   6.152  1.0094  0.6475 -1.8799
 5608TIP3    H238316   6.563   4.613   6.096  0.4708 -1.7127  1.3838
 5609TIP3   OH238317   6.484   5.787  13.319  0.1670 -0.0129 -0.2335
 5609TIP3    H138318   6.451   5.863  13.271  1.5334  0.6088 -0.2021
 5609TIP3    H238319   6.509   5.822  13.405  0.5116 -0.5553 -0.1099
 5610TIP3   OH238320   6.631   4.645  14.376  0.0087  0.1163 -0.7325
 5610TIP3    H138321   6.641   4.568  14.320 -0.1951  1.1879 -2.2771
 5610TIP3    H238322   6.542   4.638  14.411  0.2450 -0.7157 -0.2774
 5611TIP3   OH238323   3.251   1.398   1.917 -0.1744 -0.0575  0.2096
 5611TIP3    H138324   3.279   1.427   1.830 -1.5378  1.1502  0.1472
 5611TIP3    H238325   3.210   1.312   1.902 -0.8168  0.3522 -0.4189
 5612TIP3   OH238326   4.281   5.827   3.472  0.1079  0.1659  0.0602
 5612TIP3    H138327   4.332   5.875   3.407 -0.1127 -0.4222 -0.5427
 5612TIP3    H238328   4.192   5.826   3.437  0.1588 -0.8856 -0.0417
 5613TIP3   OH238329   3.537   2.114  14.637  0.5025 -0.5411  0.4812
 5613TIP3    H138330   3.594   2.189  14.655  0.9133 -0.6917 -0.1784
 5613TIP3    H238331   3.448   2.150  14.641  0.4415 -0.8736  4.4206
 5614TIP3   OH238332   0.572   3.506  13.168 -0.5532 -0.3184 -0.0148
 5614TIP3    H138333   0.659   3.527  13.201 -0.3401  0.1742 -0.8797
 5614TIP3    H238334   0.521   3.586  13.182 -0.1995  0.2193 -1.7631
 5615TIP3   OH238335   6.612   1.358  15.739  0.1182 -0.7958  0.4021
 5615TIP3    H138336   6.681   1.297  15.711  1.1620 -0.4510  2.1409
 5615TIP3    H238337   6.629   1.437  15.689 -0.2709 -1.3873 -0.6855
 5616TIP3   OH238338   4.464   4.203  16.427  0.3987  0.5110 -0.3317
 5616TIP3    H138339   4.404   4.248  16.367 -0.4958  0.8018  0.7655
 5616TIP3    H238340   4.407   4.156  16.487  1.2426  1.4757  1.2638
 5617TIP3   OH238341   3.142   1.759  15.974 -0.0071 -0.5945  0.0387
 5617TIP3    H138342   3.169   1.851  15.972  0.8563 -0.7509  2.5198
 5617TIP3    H238343   3.048   1.762  15.993  0.1412 -0.2118  0.7463
 5618TIP3   OH238344   4.801   1.088  14.472  0.1599 -0.1056 -0.5295
 5618TIP3    H138345   4.777   1.035  14.397  0.1743 -2.1257  0.8432
 5618TIP3    H238346   4.718   1.113  14.513  0.2020 -1.2282  0.2622
 5619TIP3   OH238347   1.104   3.077   4.710 -0.3980  0.2253 -0.0702
 5619TIP3    H138348   1.094   3.164   4.748  1.1316 -0.6500  2.4019
 5619TIP3    H238349   1.026   3.029   4.738 -0.0381  0.0569  0.6464
 5620TIP3   OH238350   2.396   5.237  16.653  0.2416  0.0425 -0.1704
 5620TIP3    H138351   2.315   5.209  16.695 -0.8907  0.0369 -2.2829
 5620TIP3    H238352   2.386   5.332  16.642  1.0433  0.2260  0.6556
 5621TIP3   OH238353   1.898   2.571  16.989 -0.1567  0.3724  0.1895
 5621TIP3    H138354   1.808   2.600  16.976 -0.4418  0.0547  1.3939
 5621TIP3    H238355   1.930   2.550  16.901 -1.3430  0.2339 -0.2077
 5622TIP3   OH238356   2.967   1.132  13.975  0.4892  0.3737 -0.0241
 5622TIP3    H138357   2.885   1.106  13.935  1.1588 -0.2496 -1.0154
 5622TIP3    H238358   2.951   1.219  14.010  0.1209  1.2500 -2.3069
 5623TIP3   OH238359   2.731   4.952  12.631 -0.1371 -0.0634  0.0642
 5623TIP3    H138360   2.741   4.871  12.682 -2.9936 -0.8776 -0.5840
 5623TIP3    H238361   2.772   5.019  12.685  1.8116 -1.8195  0.8715
 5624TIP3   OH238362   1.820   1.856   3.950  0.5304 -0.3000 -0.3038
 5624TIP3    H138363   1.887   1.804   3.995 -1.2348 -1.3473  1.1618
 5624TIP3    H238364   1.766   1.893   4.019  1.1746  2.7908 -1.3741
 5625TIP3   OH238365   2.607   3.108  11.422  0.0931  0.1276  0.0015
 5625TIP3    H138366   2.524   3.156  11.419 -0.6263 -1.0571  0.6329
 5625TIP3    H238367   2.609   3.059  11.340 -0.7169 -1.2737  0.8008
 5626TIP3   OH238368   3.171   2.008   1.535 -0.7205  0.0775  0.5329
 5626TIP3    H138369   3.165   2.103   1.522  1.4936  0.0164 -1.1247
 5626TIP3    H238370   3.253   1.996   1.584  1.1250 -1.2401 -2.7470
 5627TIP3   OH238371   5.689   1.715   2.772  0.1893  0.0179  0.0062
 5627TIP3    H138372   5.617   1.777   2.761  1.1091  1.3593  1.4296
 5627TIP3    H238373   5.707   1.684   2.683 -0.4862  1.5693 -0.6913
 5628TIP3   OH238374   6.237   3.968   1.949 -0.5385  0.2428  0.0295
 5628TIP3    H138375   6.159   3.970   2.005 -1.4451 -0.2264 -1.2141
 5628TIP3    H238376   6.295   4.034   1.987 -0.8052 -0.6264  2.0153
 5629TIP3   OH238377   1.769   1.231   5.504 -0.4406 -0.6251 -0.1625
 5629TIP3    H138378   1.819   1.312   5.502  0.1068 -0.9332  0.6914
 5629TIP3    H238379   1.685   1.255   5.543 -0.6691 -0.2618 -0.8793
 5630TIP3   OH238380   6.030   1.316  12.448 -0.1097  0.8606 -0.2329
 5630TIP3    H138381   5.965   1.249  12.471  0.0801  0.4982 -0.7263
 5630TIP3    H238382   6.013   1.334  12.356  0.4567  0.8045 -0.3489
 5631TIP3   OH238383   1.123   1.064  16.841 -0.1297  0.1480 -0.0550
 5631TIP3    H138384   1.057   0.996  16.855 -0.3055  0.8294  2.6866
 5631TIP3    H238385   1.075   1.146  16.851  0.1681  0.7068 -2.9285
 5632TIP3   OH238386   0.873   2.690   2.891  0.4322  0.1707 -0.0272
 5632TIP3    H138387   0.787   2.652   2.909  0.6638 -0.3530 -0.0299
 5632TIP3    H238388   0.902   2.723   2.976  0.1750  0.4603 -0.0507
 5633TIP3   OH238389   1.711   3.338   1.046  0.0768 -0.2939 -0.2919
 5633TIP3    H138390   1.647   3.372   0.984  0.9863  0.7520 -0.6821
 5633TIP3    H238391   1.740   3.255   1.008 -0.3008 -0.2744 -0.6262
 5634TIP3   OH238392   5.116   6.716   4.418  0.3090 -0.1935 -0.2160
 5634TIP3    H138393   5.204   6.755   4.418  0.7037 -1.0907 -0.4645
 5634TIP3    H238394   5.122   6.643   4.357 -0.8266  0.2087 -0.8251
 5635TIP3   OH238395   0.465   3.112  14.614 -0.3093  0.7004 -0.4428
 5635TIP3    H138396   0.435   3.176  14.678 -0.4160  1.1607 -0.9513
 5635TIP3    H238397   0.480   3.032  14.665  3.0248  2.0245  0.8230
 5636TIP3   OH238398   1.725   4.292   1.529 -0.6114  0.5466  0.0396
 5636TIP3    H138399   1.794   4.229   1.509 -2.5563 -1.3172 -1.1037
 5636TIP3    H238400   1.742   4.319   1.619  1.9493  0.6266 -0.4324
 5637TIP3   OH238401   0.861   3.424  11.392 -0.4010 -0.0359 -0.5058
 5637TIP3    H138402   0.774   3.427  11.432  0.1073 -1.9526  0.8183
 5637TIP3    H238403   0.915   3.481  11.446 -0.5526  0.2285 -0.6305
 5638TIP3   OH238404   6.019   4.729  14.507  0.0587 -0.2189  0.2388
 5638TIP3    H138405   6.066   4.731  14.423  1.2414 -0.6188  0.8763
 5638TIP3    H238406   5.935   4.689  14.487  0.8954 -1.6579 -0.4891
 5639TIP3   OH238407   0.600   6.550  11.675 -0.1845 -0.3625  0.1051
 5639TIP3    H138408   0.626   6.524  11.764  1.2140  1.6008  0.3140
 5639TIP3    H238409   0.611   6.470  11.623 -0.0392 -1.2789  1.5067
 5640TIP3   OH238410   4.606   3.898   2.382 -0.0179 -0.2688  0.5635
 5640TIP3    H138411   4.572   3.880   2.294  0.9994  1.0362 -0.0979
 5640TIP3    H238412   4.536   3.949   2.425  0.9211  2.1441 -0.6931
 5641TIP3   OH238413   2.974   4.010  14.168 -0.3252  0.2201  0.2093
 5641TIP3    H138414   2.952   3.924  14.201 -2.0165  0.6766  0.3169
 5641TIP3    H238415   2.951   4.070  14.239  1.1297  0.7419  0.2549
 5642TIP3   OH238416   1.475   6.155  13.483  0.2263 -0.1446 -0.2108
 5642TIP3    H138417   1.460   6.098  13.407  0.2385 -3.2647  2.0131
 5642TIP3    H238418   1.387   6.179  13.512  0.1648 -0.6521  0.0217
 5643TIP3   OH238419   6.793   6.058  11.421 -0.0288 -0.1162 -0.2035
 5643TIP3    H138420   6.755   6.143  11.399 -2.7901 -1.4889 -0.9004
 5643TIP3    H238421   6.831   6.070  11.508  2.0413  2.5517 -1.4103
 5644TIP3   OH238422   5.274   3.114   5.762 -0.1382 -0.0018  0.0387
 5644TIP3    H138423   5.217   3.073   5.696 -2.6301  0.1280  2.0226
 5644TIP3    H238424   5.256   3.065   5.842  2.1579  0.4310  0.8307
 5645TIP3   OH238425   6.313   5.539  15.319 -0.4192  0.3031 -0.3161
 5645TIP3    H138426   6.371   5.615  15.329 -1.7913  1.3227  0.0480
 5645TIP3    H238427   6.272   5.530  15.405  1.0925 -2.0020  0.1940
 5646TIP3   OH238428   4.712   0.947  12.005 -0.7754 -0.1609  0.0561
 5646TIP3    H138429   4.799   0.907  12.005 -0.5560  0.3101  0.0749
 5646TIP3    H238430   4.657   0.886  11.957 -0.2138  0.0070 -0.8052
 5647TIP3   OH238431   0.251   1.984   1.818  0.0238 -0.2270 -0.4563
 5647TIP3    H138432   0.174   1.955   1.866  0.3134 -0.1041  0.0788
 5647TIP3    H238433   0.310   2.019   1.885 -0.8587  2.8200 -1.1903
 5648TIP3   OH238434   4.981   2.530  14.730 -0.1618 -0.1800  0.2346
 5648TIP3    H138435   4.925   2.455  14.751  0.7857 -0.7001  0.9183
 5648TIP3    H238436   4.942   2.567  14.651  0.4596 -2.4955 -1.1785
 5649TIP3   OH238437   4.005   5.568   3.941 -0.4864 -0.1506 -0.4844
 5649TIP3    H138438   3.936   5.509   3.971  1.5175 -1.2748  2.0208
 5649TIP3    H238439   4.048   5.519   3.870 -0.5462 -0.5533 -0.2451
 5650TIP3   OH238440   1.782   4.940   4.380 -0.1028  0.2505 -0.2986
 5650TIP3    H138441   1.812   4.968   4.467 -1.0632 -1.7034  0.7194
 5650TIP3    H238442   1.749   5.019   4.339  0.2251  1.1889  1.2043
 5651TIP3   OH238443   5.096   0.779   1.868  0.2787  0.3067  0.0948
 5651TIP3    H138444   5.161   0.779   1.939  0.0715 -0.0252  0.2830
 5651TIP3    H238445   5.092   0.688   1.839 -1.3652  0.0148  1.2317
 5652TIP3   OH238446   3.137   6.146  11.480 -0.2798  0.2660 -0.0161
 5652TIP3    H138447   3.209   6.209  11.486 -0.1964  0.2204 -0.5651
 5652TIP3    H238448   3.179   6.063  11.458 -0.3333 -0.1028  1.2303
 5653TIP3   OH238449   2.702   2.375   4.453 -0.1714  0.0338 -0.4056
 5653TIP3    H138450   2.765   2.384   4.525 -1.4455 -1.5355  0.9537
 5653TIP3    H238451   2.685   2.464   4.424  1.7922  0.5573 -0.0029
 5654TIP3   OH238452   2.922   1.818  14.498  0.1273  0.0589 -0.1174
 5654TIP3    H138453   2.959   1.885  14.441  2.2426  1.1333  2.3896
 5654TIP3    H238454   2.929   1.856  14.586 -1.7398 -2.0986  1.0186
 5655TIP3   OH238455   1.795   3.278   5.285  0.2556 -0.0470  0.3121
 5655TIP3    H138456   1.744   3.328   5.221  1.4319  0.0920 -0.5273
 5655TIP3    H238457   1.735   3.266   5.359 -1.3469 -0.7917 -1.0820
 5656TIP3   OH238458   3.622   1.070   3.379 -0.3810 -0.0973 -0.6506
 5656TIP3    H138459   3.536   1.046   3.414  0.4110 -0.7284  0.9218
 5656TIP3    H238460   3.625   1.165   3.385 -0.6928 -0.1257 -0.0478
 5657TIP3   OH238461   5.224   4.757   1.521 -0.2876  0.5820 -0.0097
 5657TIP3    H138462   5.251   4.669   1.496  0.9647  1.1255 -0.5867
 5657TIP3    H238463   5.301   4.795   1.564 -0.8620  1.3515  0.3556
 5658TIP3   OH238464   2.000   4.385  16.116  0.3495 -0.2384 -0.3491
 5658TIP3    H138465   1.908   4.369  16.137  0.0572 -0.7814 -2.0041
 5658TIP3    H238466   2.032   4.439  16.188 -0.2749 -3.1173  2.1877
 5659TIP3   OH238467   5.318   5.879   4.098 -0.5267 -0.1343 -0.0816
 5659TIP3    H138468   5.328   5.785   4.114 -1.9756 -0.1799  0.6463
 5659TIP3    H238469   5.229   5.889   4.065 -0.5983  1.0653  0.4426
 5660TIP3   OH238470   5.177   4.221  11.665  0.3430  0.2987 -0.0224
 5660TIP3    H138471   5.094   4.172  11.660  1.0798 -0.8939 -1.0250
 5660TIP3    H238472   5.158   4.303  11.621 -0.6729  0.5777  0.9032
 5661TIP3   OH238473   5.376   0.278  13.437  0.2979 -0.3763 -0.3720
 5661TIP3    H138474   5.375   0.196  13.387 -0.0862 -0.4590 -0.2286
 5661TIP3    H238475   5.365   0.346  13.370 -2.2163 -0.5927 -0.1951
 5662TIP3   OH238476   0.794   2.083  14.320  0.0025  0.0041 -0.0390
 5662TIP3    H138477   0.704   2.114  14.329 -0.5518 -1.3659 -0.7196
 5662TIP3    H238478   0.830   2.086  14.408 -0.1656  2.1474 -0.0097
 5663TIP3   OH238479   2.524   1.879  15.429  0.1559 -0.3215  0.5053
 5663TIP3    H138480   2.507   1.810  15.365  0.6080 -0.7030  0.8049
 5663TIP3    H238481   2.523   1.960  15.377 -1.6869 -0.4136  0.3615
 5664TIP3   OH238482   4.142   0.368  15.577 -0.0969  0.3253 -0.7856
 5664TIP3    H138483   4.051   0.372  15.605 -0.3067 -1.0945 -1.2366
 5664TIP3    H238484   4.188   0.426  15.637 -0.8550 -1.1236  1.2653
 5665TIP3   OH238485   5.647   2.713  16.525 -0.1398  0.3059 -0.2615
 5665TIP3    H138486   5.574   2.651  16.531 -1.5569  1.8552 -0.9008
 5665TIP3    H238487   5.723   2.658  16.508 -1.5096 -1.2091 -1.8113
 5666TIP3   OH238488   0.721   0.491   1.111  0.3266 -0.3397  0.3661
 5666TIP3    H138489   0.726   0.559   1.044 -1.6071 -0.4411  0.0930
 5666TIP3    H238490   0.776   0.421   1.078 -0.8558 -0.5118 -1.2907
 5667TIP3   OH238491   1.394   3.167  16.959 -0.0914  0.3273  0.7433
 5667TIP3    H138492   1.399   3.071  16.969 -0.4334  0.3688  1.3347
 5667TIP3    H238493   1.300   3.185  16.949 -0.1769  0.7523  2.2406
 5668TIP3   OH238494   4.417   4.843  11.490 -0.3583  0.4334  0.2909
 5668TIP3    H138495   4.412   4.855  11.395 -0.9793 -0.9562  0.1372
 5668TIP3    H238496   4.471   4.765  11.501  0.0909  0.8452  1.1147
 5669TIP3   OH238497   6.286   2.098   4.382  0.7246  0.3523 -0.7080
 5669TIP3    H138498   6.204   2.049   4.380  1.4313 -0.8009 -2.9225
 5669TIP3    H238499   6.281   2.150   4.462 -1.0157 -1.6867  0.5651
 5670TIP3   OH238500   2.960   4.792   1.549 -0.3059  0.0496 -0.0373
 5670TIP3    H138501   2.890   4.816   1.488  0.6843  0.2055 -1.1291
 5670TIP3    H238502   2.940   4.702   1.574 -0.4818 -0.1676 -0.9399
 5671TIP3   OH238503   6.213   1.359  16.933  0.0672  0.0571  0.8768
 5671TIP3    H138504   6.294   1.369  16.984 -0.0919  3.5673  0.5792
 5671TIP3    H238505   6.226   1.416  16.857 -1.8639 -1.0034 -0.2806
 5672TIP3   OH238506   0.930   0.119  14.708 -0.0600 -0.4038 -0.0112
 5672TIP3    H138507   0.872   0.167  14.767 -0.8103  0.1999 -1.2185
 5672TIP3    H238508   0.894   0.030  14.706 -1.0648  0.0221 -0.9139
 5673TIP3   OH238509   1.323   3.875   0.265  0.4234 -0.1979 -0.5348
 5673TIP3    H138510   1.298   3.782   0.270  2.1206 -0.6646 -0.3729
 5673TIP3    H238511   1.308   3.908   0.354 -0.6708 -0.1932 -0.7238
 5674TIP3   OH238512   5.116   3.105   1.578 -0.9152 -0.4062  0.2650
 5674TIP3    H138513   5.208   3.104   1.552 -1.4943 -0.2210 -1.8967
 5674TIP3    H238514   5.116   3.070   1.667  1.4939  1.7071  1.1591
 5675TIP3   OH238515   6.521   1.701  13.378  0.5723 -0.2352 -0.9021
 5675TIP3    H138516   6.561   1.698  13.291  0.8105  1.9502 -0.8878
 5675TIP3    H238517   6.527   1.792  13.404 -1.9687 -0.3602  0.2667
 5676TIP3   OH238518   6.238   1.341  11.482  0.0994 -0.7597  0.0544
 5676TIP3    H138519   6.293   1.273  11.521 -1.3350 -1.6743  0.4935
 5676TIP3    H238520   6.150   1.305  11.482 -0.3113  0.1576 -1.9258
 5677TIP3   OH238521   4.641   1.569  13.328  0.5713 -0.3723 -0.6698
 5677TIP3    H138522   4.678   1.655  13.349  1.3715 -1.0126  0.6177
 5677TIP3    H238523   4.718   1.512  13.317  0.0190 -1.6650  1.7696
 5678TIP3   OH238524   4.634   5.542  12.032  0.2312  0.4289 -0.0078
 5678TIP3    H138525   4.570   5.608  12.005  1.6242  1.7746 -0.0716
 5678TIP3    H238526   4.611   5.523  12.123 -0.0692  1.1318  0.0661
 5679TIP3   OH238527   6.304   2.413   0.854  0.3386 -0.1702 -0.5736
 5679TIP3    H138528   6.227   2.469   0.852  0.7727  0.4020 -1.9528
 5679TIP3    H238529   6.269   2.324   0.853 -0.2919  0.0841 -1.5709
 5680TIP3   OH238530   3.461   2.322  12.865 -0.1881 -0.2959  0.6968
 5680TIP3    H138531   3.554   2.324  12.886 -0.1061 -0.9444  0.4254
 5680TIP3    H238532   3.442   2.229  12.850 -0.8013 -0.1296  0.4226
 5681TIP3   OH238533   0.230   0.025  15.219 -0.0369  0.1669  0.0087
 5681TIP3    H138534   0.157   0.083  15.237  0.7167  1.0244  0.3465
 5681TIP3    H238535   0.205  -0.021  15.139 -0.7007  0.8675 -0.1937
 5682TIP3   OH238536   3.445   1.754  10.478  0.1694 -0.1903 -0.0096
 5682TIP3    H138537   3.523   1.793  10.438  0.6983 -0.1356  1.0474
 5682TIP3    H238538   3.419   1.818  10.545 -2.0880  0.8427 -1.8130
 5683TIP3   OH238539   0.510   6.646   2.768  0.3214  0.3536  0.3216
 5683TIP3    H138540   0.419   6.620   2.755  0.2867  1.4694 -1.8707
 5683TIP3    H238541   0.505   6.737   2.795  0.8332  0.8342 -1.1671
 5684TIP3   OH238542   5.466   2.624   3.009  0.0420 -0.6864 -0.2828
 5684TIP3    H138543   5.420   2.674   2.941  0.7094 -2.5903 -2.1822
 5684TIP3    H238544   5.396   2.583   3.060 -0.5318  2.2661  1.4563
 5685TIP3   OH238545   3.411   6.413   3.370  0.2377  0.3539 -0.3846
 5685TIP3    H138546   3.375   6.374   3.291 -1.3208  3.1060 -1.0806
 5685TIP3    H238547   3.358   6.378   3.441  1.3446 -1.7620 -0.5610
 5686TIP3   OH238548   0.839   2.440  14.597 -0.0356 -0.0205  0.6776
 5686TIP3    H138549   0.890   2.477  14.525  0.5290 -3.3393 -0.7442
 5686TIP3    H238550   0.748   2.444  14.566  0.0246  0.1642  0.5242
 5687TIP3   OH238551   4.566   0.672   1.244 -0.2631 -0.1091  0.2981
 5687TIP3    H138552   4.554   0.729   1.319 -1.7743  1.6923 -1.2550
 5687TIP3    H238553   4.563   0.584   1.280  1.0568  0.7449  2.6073
 5688TIP3   OH238554   0.848   6.113  13.929  0.9250 -0.0758 -0.0543
 5688TIP3    H138555   0.905   6.067  13.990 -0.3144 -0.7609  0.5852
 5688TIP3    H238556   0.847   6.203  13.960 -0.4512 -0.6094  1.5178
 5689TIP3   OH238557   3.274   1.736  17.101  0.0571  0.1361  0.4049
 5689TIP3    H138558   3.366   1.758  17.116 -0.1452  0.3268  1.3781
 5689TIP3    H238559   3.241   1.710  17.188 -0.2677 -1.9029 -0.2953
 5690TIP3   OH238560   6.460   1.436  12.527  0.7382 -0.3163  0.0190
 5690TIP3    H138561   6.384   1.432  12.585  0.4322 -0.5712 -0.3950
 5690TIP3    H238562   6.486   1.528  12.528 -0.1998 -0.0345 -0.6263
 5691TIP3   OH238563   6.745   1.618   5.792  0.5278  0.1885  0.0078
 5691TIP3    H138564   6.697   1.549   5.837 -0.5899  2.1735  1.9802
 5691TIP3    H238565   6.766   1.581   5.707 -1.4911 -1.9936  0.4003
 5692TIP3   OH238566   0.996   5.719  15.102  0.6591 -0.3698 -0.3521
 5692TIP3    H138567   1.010   5.628  15.076 -0.6603 -0.6959  0.0419
 5692TIP3    H238568   1.025   5.770  15.026  0.2476 -1.1685 -1.0503
 5693TIP3   OH238569   6.234   3.309   0.706  0.1577 -0.1641  0.5897
 5693TIP3    H138570   6.168   3.277   0.769 -2.5185  0.7895 -1.6364
 5693TIP3    H238571   6.225   3.404   0.709  1.6490 -0.0126  0.4416
 5694TIP3   OH238572   2.673   0.514   2.134  0.1328  0.4698 -0.1781
 5694TIP3    H138573   2.720   0.527   2.217  3.3081 -0.2846 -1.7837
 5694TIP3    H238574   2.673   0.601   2.093  2.0207  0.0568 -1.1016
 5695TIP3   OH238575   4.559   4.776  13.246  0.0251  0.0423 -0.1914
 5695TIP3    H138576   4.556   4.749  13.154 -0.2295  1.2675 -0.5663
 5695TIP3    H238577   4.470   4.806  13.264  0.1196 -0.0410  0.3995
 5696TIP3   OH238578   0.902   5.233  13.587  0.4612 -0.5800 -0.1886
 5696TIP3    H138579   0.894   5.282  13.505 -0.0602 -0.2570  0.0493
 5696TIP3    H238580   0.843   5.278  13.648 -0.4572 -1.8502 -0.1300
 5697TIP3   OH238581   5.139   5.376  13.840  0.3773 -0.6801  0.1110
 5697TIP3    H138582   5.155   5.288  13.806  1.6879  0.6822 -2.9458
 5697TIP3    H238583   5.105   5.425  13.765  2.0946  2.0802  1.0666
 5698TIP3   OH238584   2.387   2.180  14.158  0.1900 -0.3438  0.1236
 5698TIP3    H138585   2.475   2.147  14.141 -0.0301  0.1395 -2.0610
 5698TIP3    H238586   2.351   2.118  14.222  2.5002  0.1252  1.9428
 5699TIP3   OH238587   2.367   1.757  16.628 -0.5111  0.0729  0.1494
 5699TIP3    H138588   2.454   1.769  16.665 -0.3080  1.1174 -0.6222
 5699TIP3    H238589   2.362   1.664  16.606 -0.4347 -0.4484  2.2275
 5700TIP3   OH238590   6.170   0.908  15.467  0.0986  0.5742  0.0572
 5700TIP3    H138591   6.206   0.829  15.509  1.0720  0.4595 -0.9807
 5700TIP3    H238592   6.233   0.929  15.398 -0.3340  2.0780  0.1205
 5701TIP3   OH238593   5.686   1.837  14.516  0.5977 -0.1547  0.3231
 5701TIP3    H138594   5.635   1.846  14.596  1.3650 -0.1394  0.8191
 5701TIP3    H238595   5.777   1.828  14.546  1.0694  1.3761 -0.6051
 5702TIP3   OH238596   4.669   6.085   0.634 -0.3910 -0.3577  0.3020
 5702TIP3    H138597   4.600   6.032   0.594 -1.0608  0.3142  0.5579
 5702TIP3    H238598   4.660   6.171   0.594  1.3923 -0.6999 -0.9243
 5703TIP3   OH238599   6.706   2.677   4.126  0.2990  0.7096 -0.0972
 5703TIP3    H138600   6.684   2.679   4.033  1.6503 -0.2583 -0.4517
 5703TIP3    H238601   6.628   2.640   4.168  1.0508 -2.4227 -1.3119
 5704TIP3   OH238602   3.903   0.827  12.360  0.1527  0.1445 -0.2106
 5704TIP3    H138603   3.918   0.798  12.450 -0.1910  2.0647  0.5072
 5704TIP3    H238604   3.808   0.842  12.355  0.1002 -0.4683 -1.0530
 5705TIP3   OH238605   2.136   6.504   5.132 -0.3257 -0.1193 -0.2567
 5705TIP3    H138606   2.047   6.471   5.141 -0.4830  0.6856  1.2763
 5705TIP3    H238607   2.128   6.599   5.147  1.1369 -0.3764  2.4720
 5706TIP3   OH238608   0.025   0.098   2.919  0.1393  0.3122 -0.2529
 5706TIP3    H138609  -0.012   0.183   2.942  1.3845  0.8502 -0.2034
 5706TIP3    H238610  -0.020   0.074   2.838 -1.3290  0.2880  0.5594
 5707TIP3   OH238611   5.910   5.836   2.435 -0.4189  0.1067 -0.2149
 5707TIP3    H138612   5.996   5.809   2.467  0.0730 -0.6535 -2.0724
 5707TIP3    H238613   5.911   5.931   2.440  0.0779  0.0474  0.8981
 5708TIP3   OH238614   1.153   1.960  14.955  0.2298  0.4171  0.3009
 5708TIP3    H138615   1.156   1.899  14.882  3.0284  1.6902 -0.7231
 5708TIP3    H238616   1.192   1.912  15.028  0.1664  0.1481  0.1576
 5709TIP3   OH238617   4.759   1.593  12.637 -0.4703  0.3625 -0.1152
 5709TIP3    H138618   4.744   1.654  12.709 -0.7549  0.2284 -0.0620
 5709TIP3    H238619   4.743   1.507  12.675  1.2636  0.1536  0.1773
 5710TIP3   OH238620   0.389   6.132  15.149  0.7099 -0.4530  0.4659
 5710TIP3    H138621   0.296   6.156  15.153  1.3077  2.0113  0.3184
 5710TIP3    H238622   0.393   6.066  15.080 -0.8344 -0.0471 -0.0375
 5711TIP3   OH238623   4.935   0.786   0.042 -0.0648  0.4509 -0.5663
 5711TIP3    H138624   4.846   0.797   0.008 -0.1077 -0.2624 -0.6925
 5711TIP3    H238625   4.942   0.693   0.062  1.4102  0.0604 -2.7031
 5712TIP3   OH238626   2.227   4.050   1.493 -0.1997  0.0494 -0.5897
 5712TIP3    H138627   2.260   4.025   1.580 -0.2335  2.1506  0.0519
 5712TIP3    H238628   2.165   4.121   1.511 -1.0585 -0.2725 -2.2443
 5713TIP3   OH238629   3.867   2.724   0.372  0.0144 -0.1806  0.1844
 5713TIP3    H138630   3.962   2.712   0.373  0.1163  0.6663  0.6531
 5713TIP3    H238631   3.838   2.675   0.295  0.9413  0.4533 -0.5874
 5714TIP3   OH238632   3.042   0.706  14.194  0.0835  0.5563  0.0339
 5714TIP3    H138633   3.075   0.778  14.140  0.3061 -0.2300 -0.8955
 5714TIP3    H238634   2.956   0.735  14.222  0.1637  1.1855 -0.3448
 5715TIP3   OH238635   4.511   0.347  12.127 -0.0957 -0.6267 -0.6438
 5715TIP3    H138636   4.443   0.348  12.195 -0.0070 -0.7311 -0.5543
 5715TIP3    H238637   4.586   0.390  12.167 -0.4325  0.3848 -1.0825
 5716TIP3   OH238638   6.285   3.662   0.067 -0.4338  0.2526 -0.2858
 5716TIP3    H138639   6.316   3.750   0.090  1.0590 -0.3786  0.1747
 5716TIP3    H238640   6.271   3.619   0.152 -1.4194  0.1116 -0.5052
 5717TIP3   OH238641   4.977   5.347  16.731 -0.4978  0.2076  0.6264
 5717TIP3    H138642   5.038   5.421  16.735 -0.6438  0.2988  1.3238
 5717TIP3    H238643   5.022   5.281  16.680 -0.2009  0.6307  0.3311
 5718TIP3   OH238644   6.392   1.664   0.814 -0.1130 -0.2703  0.5524
 5718TIP3    H138645   6.322   1.704   0.762  0.3837  1.1159  0.9254
 5718TIP3    H238646   6.416   1.731   0.878  1.1072 -0.9732  0.8461
 5719TIP3   OH238647   4.059   0.159   2.812 -0.2480  0.5070 -0.5896
 5719TIP3    H138648   4.110   0.147   2.893 -2.1039 -1.3433  0.3842
 5719TIP3    H238649   4.119   0.202   2.752  1.8611  0.0664  1.1115
 5720TIP3   OH238650   0.913   2.967  16.575  0.7812  0.3441  0.1306
 5720TIP3    H138651   1.007   2.954  16.563  0.4397  0.3978 -2.9092
 5720TIP3    H238652   0.878   2.879  16.585  0.8153  0.1111 -1.6616
 5721TIP3   OH238653   4.509   1.895   2.458 -0.2227  0.1475 -0.4842
 5721TIP3    H138654   4.549   1.811   2.435  0.0634  0.1468 -0.0010
 5721TIP3    H238655   4.544   1.915   2.545 -2.5997 -0.6869  0.7108
 5722TIP3   OH238656   5.604   0.725   4.596 -0.3194 -0.7115 -0.3067
 5722TIP3    H138657   5.571   0.700   4.682 -1.2426  0.7137 -0.2255
 5722TIP3    H238658   5.697   0.744   4.611 -0.0190 -2.3554 -0.0316
 5723TIP3   OH238659   3.761   0.424  15.900  0.0276  0.2397 -0.2803
 5723TIP3    H138660   3.847   0.464  15.888 -0.2286  0.6058 -0.9672
 5723TIP3    H238661   3.778   0.331  15.908  0.6305  0.4675  1.2331
 5724TIP3   OH238662   1.448   2.163   4.515 -0.5156  0.1322  0.3915
 5724TIP3    H138663   1.432   2.155   4.609 -0.8458 -0.7950  0.2663
 5724TIP3    H238664   1.541   2.144   4.504 -0.4063  0.5690  0.5690
 5725TIP3   OH238665   4.888   6.441   2.575 -0.0715  0.7258 -0.3179
 5725TIP3    H138666   4.820   6.383   2.541  0.9987 -0.5902 -0.2802
 5725TIP3    H238667   4.915   6.493   2.500  2.4812 -2.3645 -1.6656
 5726TIP3   OH238668   2.985   5.227   5.744  0.0083 -0.0630 -0.1180
 5726TIP3    H138669   2.970   5.310   5.699  0.7522  0.5459  0.7319
 5726TIP3    H238670   3.080   5.213   5.738 -0.3392 -1.8260 -1.9207
 5727TIP3   OH238671   6.263   0.425   0.778 -0.3429  0.9126  0.3071
 5727TIP3    H138672   6.253   0.346   0.726 -3.4747  0.4741  1.4773
 5727TIP3    H238673   6.331   0.404   0.842 -0.8815 -0.6966  0.3563
 5728TIP3   OH238674   0.183   0.307  13.846 -0.5245 -0.5364 -0.0901
 5728TIP3    H138675   0.191   0.391  13.801  0.7443  0.1698  1.4216
 5728TIP3    H238676   0.222   0.244  13.785  0.7602  0.3382 -0.1813
 5729TIP3   OH238677   3.255   5.578  11.154 -0.7052 -0.5351 -0.2286
 5729TIP3    H138678   3.212   5.663  11.164  0.9450  0.2430  0.3507
 5729TIP3    H238679   3.270   5.569  11.060  0.8472  0.6915 -0.1100
 5730TIP3   OH238680   0.020   4.265  17.268 -0.1122 -1.0937  0.1106
 5730TIP3    H138681  -0.038   4.256  17.193 -0.5413 -3.5898  0.6846
 5730TIP3    H238682  -0.037   4.296  17.339 -0.0317 -0.2485 -0.1927
 5731TIP3   OH238683   0.919   0.673   3.403 -0.4618 -0.5763 -0.6703
 5731TIP3    H138684   0.851   0.618   3.364 -2.4638 -0.2662  2.1902
 5731TIP3    H238685   0.958   0.619   3.472 -0.5356  0.5874  0.3149
 5732TIP3   OH238686   4.725   3.080  15.338  0.1234  0.2802  1.0022
 5732TIP3    H138687   4.680   3.165  15.340  0.0932  0.2577  1.2578
 5732TIP3    H238688   4.696   3.040  15.256  0.2555  0.5811  0.8049
 5733TIP3   OH238689   2.492   3.615   0.681 -0.0880  0.2015  0.0306
 5733TIP3    H138690   2.579   3.577   0.687  0.7127  1.8097 -1.2275
 5733TIP3    H238691   2.485   3.673   0.757  0.6555  1.4987 -0.8783
 5734TIP3   OH238692   1.262   4.776   3.517  0.3529  0.0346 -0.4134
 5734TIP3    H138693   1.221   4.803   3.599  0.3985 -1.6494  0.1698
 5734TIP3    H238694   1.192   4.781   3.452 -0.2069 -0.5952  0.1324
 5735TIP3   OH238695   3.843   1.560   1.833 -0.0954 -0.3426  0.4008
 5735TIP3    H138696   3.921   1.510   1.856  0.6481  0.5758 -0.1222
 5735TIP3    H238697   3.792   1.562   1.914 -0.5338 -2.6330  0.2251
 5736TIP3   OH238698   4.538   2.808  13.111  0.6556 -0.2655 -0.2506
 5736TIP3    H138699   4.455   2.805  13.064  0.5295  1.6070 -0.1853
 5736TIP3    H238700   4.565   2.717  13.118 -1.7290 -0.9439  0.3449
 5737TIP3   OH238701   2.959   4.391  11.565 -0.1238  0.5235 -0.0050
 5737TIP3    H138702   2.947   4.423  11.654  0.0844  0.6423 -0.0206
 5737TIP3    H238703   2.904   4.313  11.560 -1.1898  1.2667 -0.1781
 5738TIP3   OH238704   5.491   2.378   5.115  0.4977 -0.2718  0.5013
 5738TIP3    H138705   5.398   2.385   5.098  0.8541  1.3068 -0.8760
 5738TIP3    H238706   5.515   2.462   5.155  1.3807 -0.5804  0.6354
 5739TIP3   OH238707   0.285   0.940  11.890  0.3960 -0.0298  0.2735
 5739TIP3    H138708   0.342   0.933  11.966  1.4999 -1.4272 -0.6486
 5739TIP3    H238709   0.345   0.939  11.815 -0.6531  1.5362 -0.6091
 5740TIP3   OH238710   5.347   4.987  16.347 -0.2167 -0.4699 -0.2028
 5740TIP3    H138711   5.405   4.975  16.422 -0.6598  0.2823  0.2635
 5740TIP3    H238712   5.354   5.080  16.325 -0.4934 -0.5770 -0.7623
 5741TIP3   OH238713   0.640   1.651   3.118  0.3780  0.2746  0.2535
 5741TIP3    H138714   0.680   1.567   3.094  0.5293  0.1284  0.9828
 5741TIP3    H238715   0.606   1.686   3.036 -3.8748 -2.7033  0.5997
 5742TIP3   OH238716   2.784   2.450   5.147  0.6270  0.1058 -0.0082
 5742TIP3    H138717   2.706   2.487   5.188  1.1476  0.3164  0.7965
 5742TIP3    H238718   2.772   2.470   5.054 -1.5425 -2.1712 -0.2712
 5743TIP3   OH238719   4.390   5.665   1.651 -0.4101 -0.6745  0.0847
 5743TIP3    H138720   4.447   5.593   1.624 -1.2512 -1.3048 -0.0604
 5743TIP3    H238721   4.422   5.741   1.602  0.0035 -1.1298 -0.3573
 5744TIP3   OH238722   1.032   5.523  16.076  0.2248  0.2789  0.0134
 5744TIP3    H138723   1.123   5.513  16.104 -0.2900 -0.0658  1.6114
 5744TIP3    H238724   1.007   5.611  16.104 -0.3432 -0.1252  0.7885
 5745TIP3   OH238725   5.579   1.273   4.691  0.8163  0.0111 -0.0284
 5745TIP3    H138726   5.502   1.244   4.642  0.6702  1.4197 -0.6670
 5745TIP3    H238727   5.653   1.238   4.642  0.6071 -0.9361  0.3156
 5746TIP3   OH238728   5.491   5.757  15.108  0.5701 -0.1702 -0.5780
 5746TIP3    H138729   5.426   5.693  15.078  0.3963  0.4289 -1.4655
 5746TIP3    H238730   5.508   5.732  15.199  0.1174 -1.1659 -0.7622
 5747TIP3   OH238731   3.157   5.968  15.503  0.4056 -0.6343  0.2010
 5747TIP3    H138732   3.063   5.978  15.522  0.5536 -1.2445  1.2670
 5747TIP3    H238733   3.173   6.031  15.433 -1.0046 -1.1458 -0.6200
 5748TIP3   OH238734   0.138   3.153   3.744  0.1600  0.0914  0.2930
 5748TIP3    H138735   0.094   3.156   3.828  0.4167  1.6486  0.3928
 5748TIP3    H238736   0.230   3.173   3.764  0.4437 -0.7090 -0.2043
 5749TIP3   OH238737   4.179   3.731  14.346 -0.1158  0.2688 -0.6802
 5749TIP3    H138738   4.165   3.811  14.396 -1.6002 -0.1277 -0.4365
 5749TIP3    H238739   4.253   3.751  14.289 -2.2329  2.7753 -2.6729
 5750TIP3   OH238740   3.200   5.571  11.865 -0.1134  0.1625 -0.4403
 5750TIP3    H138741   3.228   5.499  11.923  1.4733  1.3323  0.3119
 5750TIP3    H238742   3.248   5.647  11.898 -1.4766  1.4850 -1.4693
 5751TIP3   OH238743   0.841   1.280   2.722 -0.0431  0.5575  0.2845
 5751TIP3    H138744   0.866   1.335   2.797  0.7452 -0.1228  0.5243
 5751TIP3    H238745   0.900   1.308   2.651  0.6140 -0.2217  0.5116
 5752TIP3   OH238746   1.787   2.858   3.494 -0.1084  0.5300 -0.7729
 5752TIP3    H138747   1.835   2.817   3.423  1.6989  1.8034 -0.3239
 5752TIP3    H238748   1.713   2.901   3.452 -1.3017 -2.0515 -1.3854
 5753TIP3   OH238749   1.692   6.304   2.553 -0.1450  0.1329 -0.9835
 5753TIP3    H138750   1.660   6.218   2.579 -1.2484  0.5299 -0.9976
 5753TIP3    H238751   1.787   6.294   2.550 -0.0137 -0.1797  2.2341
 5754TIP3   OH238752   2.547   1.851  11.462  0.3806 -0.2135 -0.4861
 5754TIP3    H138753   2.558   1.912  11.535 -1.9093  0.6310 -0.8023
 5754TIP3    H238754   2.521   1.769  11.503  0.7509 -0.1985 -0.2255
 5755TIP3   OH238755   4.410   3.791   6.196  0.4209 -0.1446  0.5256
 5755TIP3    H138756   4.497   3.821   6.224  0.4629 -0.1002  0.3506
 5755TIP3    H238757   4.350   3.829   6.260  0.5604 -0.4483  0.8402
 5756TIP3   OH238758   5.666   0.659   1.438  0.3371  0.4330  0.1218
 5756TIP3    H138759   5.661   0.579   1.490 -0.1255  1.3083  1.4404
 5756TIP3    H238760   5.695   0.726   1.500  0.0421  1.4341 -0.8081
 5757TIP3   OH238761   0.930   1.922  12.078 -0.1858 -0.4205 -0.4080
 5757TIP3    H138762   0.949   1.997  12.021 -0.5614  1.5991  2.0364
 5757TIP3    H238763   0.854   1.950  12.130  0.4808 -1.9641  1.4499
 5758TIP3   OH238764   4.400   5.315  11.944  0.1502 -0.1771  0.1119
 5758TIP3    H138765   4.458   5.287  12.015  0.6490 -1.1248 -0.6588
 5758TIP3    H238766   4.446   5.289  11.864 -0.1820  1.3001 -0.5822
 5759TIP3   OH238767   6.160   6.532  11.324  0.2654 -0.7994 -0.6152
 5759TIP3    H138768   6.103   6.471  11.276  1.0848 -1.8687 -0.2578
 5759TIP3    H238769   6.137   6.517  11.416  0.1904 -0.2790 -0.5508
 5760TIP3   OH238770   6.745   3.090  12.878  0.0394 -0.5280 -0.2283
 5760TIP3    H138771   6.713   3.001  12.865 -1.4372 -0.1652  0.7805
 5760TIP3    H238772   6.721   3.136  12.797  0.1592 -0.8543 -0.4520
 5761TIP3   OH238773   3.569   4.382  12.811 -0.0848  0.3918  0.4810
 5761TIP3    H138774   3.551   4.417  12.723 -0.2953 -0.5112  0.1622
 5761TIP3    H238775   3.484   4.350  12.842  0.7655 -3.3024 -0.7709
 5762TIP3   OH238776   1.566   4.008   1.517  0.3723  0.0909 -0.8886
 5762TIP3    H138777   1.595   4.019   1.608  1.2982  1.1670 -1.3121
 5762TIP3    H238778   1.641   4.034   1.464 -0.7160  1.0241 -1.9786
 5763TIP3   OH238779   3.092   2.610  16.039  0.1492  0.9825 -0.0213
 5763TIP3    H138780   3.028   2.679  16.023 -1.9056 -0.8688 -0.0427
 5763TIP3    H238781   3.045   2.529  16.021  3.2706 -0.3777 -2.6580
 5764TIP3   OH238782   5.190   3.012   1.315  0.3335 -0.0543 -0.1508
 5764TIP3    H138783   5.143   3.011   1.231  1.3140  2.8728 -0.7962
 5764TIP3    H238784   5.135   3.065   1.372  2.2876  2.5156 -0.5982
 5765TIP3   OH238785   5.162   6.467  11.923  0.6939  0.6659  0.0497
 5765TIP3    H138786   5.176   6.409  11.997  2.6153 -0.3169 -1.0265
 5765TIP3    H238787   5.076   6.444  11.890  0.2834  0.3585  1.3100
 5766TIP3   OH238788   6.572   5.163   3.661 -0.1021  0.3165  0.8564
 5766TIP3    H138789   6.590   5.097   3.728 -0.3280  0.9872  1.5960
 5766TIP3    H238790   6.616   5.131   3.583 -0.8820 -1.1106  0.9777
 5767TIP3   OH238791   4.926   3.643   0.028 -0.5389 -0.2765  0.1662
 5767TIP3    H138792   4.949   3.731  -0.002 -1.0843 -0.1567  0.0992
 5767TIP3    H238793   4.974   3.633   0.111  0.0424 -0.1684 -0.1530
 5768TIP3   OH238794   5.512   3.905  14.719  0.2118  0.1738 -0.1482
 5768TIP3    H138795   5.525   3.836  14.784  0.3995 -0.0361 -0.4078
 5768TIP3    H238796   5.433   3.951  14.747  0.7536  0.6100  0.6950
 5769TIP3   OH238797   3.111   0.892  14.014 -1.3553  0.7683  0.1020
 5769TIP3    H138798   3.146   0.950  13.946 -2.1195  1.6660  0.4719
 5769TIP3    H238799   3.052   0.948  14.065 -1.2804 -0.0664  1.1060
 5770TIP3   OH238800   3.962   5.840   0.421  0.0583  0.2728  0.0042
 5770TIP3    H138801   3.884   5.867   0.470 -0.1639 -0.8985  0.3040
 5770TIP3    H238802   4.035   5.861   0.479 -0.1727 -0.6422  0.6264
 5771TIP3   OH238803   4.845   2.867   2.947  0.0547 -0.0700 -0.3099
 5771TIP3    H138804   4.764   2.862   2.897  0.4799 -1.0297 -0.9154
 5771TIP3    H238805   4.892   2.787   2.925  0.0665 -0.7295  1.9443
 5772TIP3   OH238806   6.349   0.973   4.599 -0.0741 -0.4109 -0.1304
 5772TIP3    H138807   6.346   0.959   4.694  0.1903  0.5737  0.0269
 5772TIP3    H238808   6.381   0.890   4.564  3.4447  0.4417  0.9395
 5773TIP3   OH238809   0.580   1.713   0.963  0.4215 -0.2735  0.1284
 5773TIP3    H138810   0.656   1.720   0.905  1.2997 -0.1202  1.2811
 5773TIP3    H238811   0.611   1.660   1.037 -1.0389 -1.5000 -0.1186
 5774TIP3   OH238812   6.416   0.577   2.472 -0.3819 -0.1270  0.5112
 5774TIP3    H138813   6.408   0.671   2.457  1.3738  0.1793  1.3351
 5774TIP3    H238814   6.510   0.562   2.482 -0.5160 -2.1808 -0.8958
 5775TIP3   OH238815   0.118   2.830  10.478  0.6498 -0.0179 -0.1549
 5775TIP3    H138816   0.066   2.901  10.515  0.5582 -0.1093 -0.1064
 5775TIP3    H238817   0.058   2.785  10.418  0.7099 -0.0483 -0.1919
 5776TIP3   OH238818   6.539   1.293  13.354 -0.3660 -0.6045  0.9231
 5776TIP3    H138819   6.600   1.343  13.408  0.8665 -2.4847  1.2797
 5776TIP3    H238820   6.490   1.239  13.416 -0.5807 -1.0411  0.3747
 5777TIP3   OH238821   0.278   0.695  15.755  0.0577 -0.3866  0.0502
 5777TIP3    H138822   0.355   0.643  15.777 -1.7181 -1.5395  3.9833
 5777TIP3    H238823   0.295   0.781  15.794  1.1655  0.7825 -2.8506
 5778TIP3   OH238824   2.221   4.706  13.378  0.0837 -0.1344 -0.0731
 5778TIP3    H138825   2.225   4.693  13.472 -0.4367  0.6823  0.0705
 5778TIP3    H238826   2.206   4.800  13.368  0.0761 -0.2273 -0.9691
 5779TIP3   OH238827   5.822   4.434   2.469  0.0261  0.2511 -0.7164
 5779TIP3    H138828   5.810   4.476   2.384 -0.2882  0.6146 -0.4905
 5779TIP3    H238829   5.886   4.488   2.514  1.3825 -0.8233 -1.3234
 5780TIP3   OH238830   3.655   1.062   2.249  0.5890  0.0135 -0.4274
 5780TIP3    H138831   3.659   0.968   2.264 -1.3508 -0.3398 -1.8420
 5780TIP3    H238832   3.663   1.101   2.336  0.6328 -1.4908  0.2571
 5781TIP3   OH238833   4.206   2.589   0.244  0.3918  0.6158 -0.0023
 5781TIP3    H138834   4.199   2.529   0.169  0.3279  0.1155  0.4004
 5781TIP3    H238835   4.153   2.548   0.312 -0.3160  1.5562  0.0146
 5782TIP3   OH238836   0.283   3.741  16.513  0.8700  0.0880 -0.0771
 5782TIP3    H138837   0.261   3.814  16.454 -0.2168  0.2064  0.4659
 5782TIP3    H238838   0.214   3.742  16.579  0.7951 -1.5061 -0.1141
 5783TIP3   OH238839   5.936   3.148  16.757 -0.4190 -0.3014 -0.0632
 5783TIP3    H138840   5.858   3.111  16.798  0.3518 -0.2118  1.5145
 5783TIP3    H238841   5.966   3.215  16.819  0.9838 -0.4284 -0.5922
 5784TIP3   OH238842   4.569   5.060   3.528 -0.3191  0.1046  0.8051
 5784TIP3    H138843   4.521   4.977   3.520  0.6936 -0.6337  2.1163
 5784TIP3    H238844   4.608   5.057   3.615 -1.6417  2.7403  1.5290
 5785TIP3   OH238845   4.432   6.403   3.185  0.0570 -0.1422 -0.2370
 5785TIP3    H138846   4.403   6.494   3.193  0.2687 -0.0897 -0.0622
 5785TIP3    H238847   4.526   6.406   3.204 -0.2425 -0.6357  1.4105
 5786TIP3   OH238848   3.554   1.498  12.593  0.4066  0.4345 -0.1353
 5786TIP3    H138849   3.477   1.550  12.614  0.0455  0.1911 -0.8554
 5786TIP3    H238850   3.627   1.559  12.601 -0.3240  1.9711 -4.3077
 5787TIP3   OH238851   4.947   2.435  16.089  0.2680 -0.0245 -0.1225
 5787TIP3    H138852   4.911   2.511  16.134  0.9982 -0.3869  1.0705
 5787TIP3    H238853   5.041   2.441  16.102  0.3513 -0.9938 -0.2452
 5788TIP3   OH238854   2.940   2.464  15.582  0.1935  0.0154  0.1796
 5788TIP3    H138855   2.875   2.487  15.648  0.3626 -1.0182  0.7259
 5788TIP3    H238856   2.936   2.535  15.518 -0.8618  0.3936  0.6517
 5789TIP3   OH238857   6.024   0.015  13.697 -0.0127  0.0927 -1.6252
 5789TIP3    H138858   6.022   0.076  13.623  0.0852  2.2889  0.1495
 5789TIP3    H238859   5.937   0.022  13.736  0.1432 -0.5841 -1.1437
 5790TIP3   OH238860   1.795   4.485   2.721 -0.2236  0.0870  0.4414
 5790TIP3    H138861   1.869   4.485   2.661 -0.8044  2.6303 -0.3539
 5790TIP3    H238862   1.718   4.474   2.665 -0.5980 -0.2634  1.0127
 5791TIP3   OH238863   1.618   2.385  15.005  0.0785 -0.5999  0.3823
 5791TIP3    H138864   1.616   2.397  14.910  1.5032  0.5148  0.4685
 5791TIP3    H238865   1.557   2.313  15.021  1.3419 -2.1989 -1.6083
 5792TIP3   OH238866   3.561   2.312   0.020  0.1067 -0.1517  0.4906
 5792TIP3    H138867   3.495   2.318   0.089 -0.7271  1.3045 -0.4165
 5792TIP3    H238868   3.644   2.319   0.067 -0.4469  0.6738  1.3658
 5793TIP3   OH238869   2.298   5.564   0.028  0.0567  0.2091 -0.1669
 5793TIP3    H138870   2.215   5.611   0.023 -0.6913 -1.2469 -2.5634
 5793TIP3    H238871   2.352   5.603  -0.041 -0.0792 -1.4555 -1.2539
 5794TIP3   OH238872   1.729   0.325  15.064 -0.2183  0.2097  0.3466
 5794TIP3    H138873   1.711   0.376  14.985 -1.4351  0.8932  1.0451
 5794TIP3    H238874   1.746   0.236  15.032  2.7158  1.1830 -0.9375
 5795TIP3   OH238875   3.480   5.792   3.815  0.5128 -0.2457 -0.0203
 5795TIP3    H138876   3.500   5.868   3.871  1.1833 -0.4650  0.0410
 5795TIP3    H238877   3.388   5.772   3.834 -0.1939  1.6279 -1.3132
 5796TIP3   OH238878   1.636   1.973   2.665 -0.0151  0.1225  0.3100
 5796TIP3    H138879   1.663   2.063   2.648  1.0813 -0.2895 -0.2388
 5796TIP3    H238880   1.703   1.920   2.620 -0.9537 -0.9506  0.1663
 5797TIP3   OH238881   0.791   3.169   6.172  0.9020 -0.5075  0.3845
 5797TIP3    H138882   0.819   3.208   6.255 -1.2746 -1.1767  1.4557
 5797TIP3    H238883   0.756   3.083   6.196 -0.4294 -0.4094 -1.1145
 5798TIP3   OH238884   0.437   0.349  14.897  0.3373 -0.5247 -0.5767
 5798TIP3    H138885   0.390   0.429  14.920  0.1997 -1.0604  1.0947
 5798TIP3    H238886   0.387   0.311  14.825  0.6911  1.1408 -1.7176
 5799TIP3   OH238887   6.625   6.120  16.558 -0.1832  0.1410 -0.3383
 5799TIP3    H138888   6.710   6.103  16.519  0.3032 -1.2910  1.2741
 5799TIP3    H238889   6.578   6.036  16.552  0.0071 -0.2147  2.2921
 5800TIP3   OH238890   3.907   5.447  10.727 -0.1142 -0.2898  0.7886
 5800TIP3    H138891   3.937   5.501  10.653 -2.0362 -1.9804 -1.2931
 5800TIP3    H238892   3.824   5.487  10.754 -1.1883 -1.7027 -0.3036
 5801TIP3   OH238893   5.940   2.922   6.507  0.0228  0.0650 -0.2952
 5801TIP3    H138894   6.016   2.913   6.450 -0.3796 -1.7674 -0.5488
 5801TIP3    H238895   5.894   3.000   6.474  0.8862  0.2038 -1.1805
 5802TIP3   OH238896   1.605   0.529  14.141  0.1043 -0.1704  0.4307
 5802TIP3    H138897   1.534   0.505  14.081  2.0328  0.6906 -2.2853
 5802TIP3    H238898   1.645   0.445  14.165  0.8732 -0.3934 -1.5214
 5803TIP3   OH238899   6.542   6.091  13.844 -0.4022 -0.8023 -0.1369
 5803TIP3    H138900   6.506   6.100  13.756 -3.2426 -0.9705  0.9439
 5803TIP3    H238901   6.565   6.181  13.870  0.1731 -0.7215 -0.9294
 5804TIP3   OH238902   2.621   6.421  14.013  0.4115  0.7139 -0.9677
 5804TIP3    H138903   2.588   6.469  13.937 -0.6020 -1.0977 -1.6833
 5804TIP3    H238904   2.552   6.431  14.079 -0.3244 -0.6924 -1.5059
 5805TIP3   OH238905   6.012   2.179  11.822 -0.2329  0.7024  0.2138
 5805TIP3    H138906   6.088   2.207  11.873  0.2004 -0.5657  0.2898
 5805TIP3    H238907   5.945   2.159  11.887 -0.4157  1.1783  0.1760
 5806TIP3   OH238908   2.999   4.441   5.608 -0.3880 -0.7567 -0.3816
 5806TIP3    H138909   3.049   4.365   5.580 -0.2854 -0.5793 -0.6780
 5806TIP3    H238910   2.981   4.489   5.527  1.3201  0.6120  0.0209
 5807TIP3   OH238911   0.834   2.605   5.823 -0.7195 -0.4564 -0.0045
 5807TIP3    H138912   0.788   2.580   5.903  0.0847 -2.2188 -0.0722
 5807TIP3    H238913   0.883   2.683   5.847 -2.2031  0.2993  0.6027
 5808TIP3   OH238914   1.676   1.026  12.842 -0.1771  0.0329 -0.1380
 5808TIP3    H138915   1.652   0.997  12.754  1.0535 -0.4179 -0.3495
 5808TIP3    H238916   1.769   1.001  12.850  0.4067  2.3203  0.3616
 5809TIP3   OH238917   0.756   0.000   4.879  0.1154  0.3505  0.5192
 5809TIP3    H138918   0.829   0.004   4.817 -0.2204  0.7441  0.1521
 5809TIP3    H238919   0.685   0.048   4.837  0.2044  1.5071  1.6377
 5810TIP3   OH238920   2.745   6.135  15.531  0.4392  0.3813  0.0418
 5810TIP3    H138921   2.771   6.169  15.445  0.4563  0.4820  0.0880
 5810TIP3    H238922   2.730   6.213  15.584 -3.9552  0.4841 -1.1542
 5811TIP3   OH238923   5.576   1.743   4.264 -0.6061 -1.2925 -0.2858
 5811TIP3    H138924   5.601   1.755   4.355 -2.5912 -0.7645  0.2071
 5811TIP3    H238925   5.533   1.657   4.262 -0.0455 -1.5699 -0.8587
 5812TIP3   OH238926   1.778   3.179  16.425  0.2441 -0.0628 -0.3654
 5812TIP3    H138927   1.793   3.262  16.381 -0.4321  0.6478  0.7245
 5812TIP3    H238928   1.683   3.176  16.441  0.7081  0.8118  3.1222
 5813TIP3   OH238929   3.347   5.883   4.452  0.3280 -0.0533 -0.8172
 5813TIP3    H138930   3.317   5.813   4.509 -1.3154  2.0843  1.0271
 5813TIP3    H238931   3.440   5.893   4.472 -0.0914  0.2364  1.0635
 5814TIP3   OH238932   5.856   0.867  15.154  0.2739  0.5245  0.5238
 5814TIP3    H138933   5.798   0.883  15.080  1.5121  2.9641  0.0242
 5814TIP3    H238934   5.815   0.913  15.227  0.1982  0.0033  0.8100
 5815TIP3   OH238935   2.640   4.443  12.274  0.0072 -0.3588 -0.2686
 5815TIP3    H138936   2.723   4.432  12.320 -0.5981 -1.9023  0.4561
 5815TIP3    H238937   2.608   4.354  12.260 -2.3381  0.2801  0.9014
 5816TIP3   OH238938   1.770   2.804  14.701  0.2360  0.3008  0.1777
 5816TIP3    H138939   1.697   2.842  14.653  0.2397  1.0571  0.7553
 5816TIP3    H238940   1.773   2.713  14.673 -0.8833  0.2851  0.0883
 5817TIP3   OH238941   6.253   4.470  15.542 -0.9011  0.1317 -0.6343
 5817TIP3    H138942   6.167   4.449  15.580 -0.9998 -1.0201 -1.4770
 5817TIP3    H238943   6.314   4.414  15.590 -0.9464 -0.8790 -1.7611
 5818TIP3   OH238944   3.964   3.295   0.445 -0.2614  0.1149 -0.0567
 5818TIP3    H138945   3.949   3.385   0.474  1.7879 -0.1050  1.8734
 5818TIP3    H238946   4.059   3.284   0.450  0.0236 -0.7179 -4.7972
 5819TIP3   OH238947   6.333   3.524   3.303 -0.4784 -0.0097  0.5730
 5819TIP3    H138948   6.268   3.454   3.297 -1.9355  1.3515  0.3560
 5819TIP3    H238949   6.289   3.594   3.350  1.1028  0.6348  1.1117
 5820TIP3   OH238950   2.754   3.468   0.650  0.0232  0.6856 -0.1208
 5820TIP3    H138951   2.826   3.527   0.668 -0.2546  0.8610  0.4277
 5820TIP3    H238952   2.778   3.425   0.568  1.7290 -0.7861  1.1127
 5821TIP3   OH238953   2.001   4.847  16.391  0.0507  0.1551  0.2769
 5821TIP3    H138954   2.008   4.809  16.304  0.0434  1.7346 -0.4182
 5821TIP3    H238955   1.954   4.930  16.378 -1.6494 -0.4929  2.0313
 5822TIP3   OH238956   3.747   4.842   5.278 -0.2057  0.2666  0.0191
 5822TIP3    H138957   3.757   4.838   5.374  0.6456 -0.6314 -0.1068
 5822TIP3    H238958   3.794   4.921   5.253 -0.6975  0.6779  0.3712
 5823TIP3   OH238959   0.243   0.388  14.546  0.0925 -0.0023 -0.1140
 5823TIP3    H138960   0.238   0.484  14.545  1.0540  0.0580  0.2703
 5823TIP3    H238961   0.204   0.363  14.630  2.1443  0.2206  0.9550
 5824TIP3   OH238962   1.846   1.582  12.679 -0.6660 -0.5210  0.8715
 5824TIP3    H138963   1.850   1.554  12.587 -0.1395  0.4850  0.5816
 5824TIP3    H238964   1.831   1.501  12.728  0.2714 -1.2330 -0.0019
 5825TIP3   OH238965   5.033   2.919   5.289 -0.0677  0.2083  0.0634
 5825TIP3    H138966   5.082   2.975   5.229 -2.0288  1.3160 -0.5368
 5825TIP3    H238967   5.038   2.832   5.250  0.1608  0.5907 -0.7781
 5826TIP3   OH238968   2.855   5.379  12.513  0.2564  0.2261 -0.7343
 5826TIP3    H138969   2.824   5.466  12.540  1.5386  0.7591 -0.9539
 5826TIP3    H238970   2.856   5.328  12.594  1.2009  0.9384 -0.2915
 5827TIP3   OH238971   4.059   2.197  14.392  0.4354 -0.1761 -0.3623
 5827TIP3    H138972   4.039   2.184  14.484 -0.5859  0.2973 -0.5060
 5827TIP3    H238973   4.119   2.126  14.369  0.1707 -0.6770  0.4953
 5828TIP3   OH238974   0.585   0.287  16.963 -0.2331  0.3476  0.3231
 5828TIP3    H138975   0.635   0.235  16.900 -2.1722 -0.6104 -0.4780
 5828TIP3    H238976   0.580   0.232  17.041  1.1406  1.0302  0.9012
 5829TIP3   OH238977   5.005   4.832   4.518 -0.5547  0.0688 -0.4788
 5829TIP3    H138978   4.945   4.779   4.465  0.2780 -2.4610  1.0232
 5829TIP3    H238979   4.950   4.866   4.588 -0.6515 -0.6651 -0.1906
 5830TIP3   OH238980   0.694   2.592   3.708  0.1570 -0.3604  0.1033
 5830TIP3    H138981   0.654   2.513   3.671 -0.7956  0.5078 -0.7515
 5830TIP3    H238982   0.778   2.600   3.663 -0.2137 -0.2934 -0.5848
 5831TIP3   OH238983   1.309   2.134   0.833  0.2654 -0.8714  0.1802
 5831TIP3    H138984   1.328   2.185   0.755 -0.6086 -0.5405  0.1717
 5831TIP3    H238985   1.303   2.044   0.801  1.7475 -0.9831  0.1877
 5832TIP3   OH238986   0.517   6.227  12.632 -0.2082 -0.1062 -0.2255
 5832TIP3    H138987   0.465   6.154  12.601 -2.7543  1.3597  0.4737
 5832TIP3    H238988   0.558   6.195  12.713 -0.5890 -1.0582 -0.4073
 5833TIP3   OH238989   3.894   3.617  15.931  0.5637 -0.0096 -0.0183
 5833TIP3    H138990   3.880   3.644  15.840  0.5523  1.0671  0.2905
 5833TIP3    H238991   3.860   3.690  15.983 -0.8406 -1.2552  0.8822
 5834TIP3   OH238992   1.244   2.388  11.287 -0.3422 -0.0606  0.2800
 5834TIP3    H138993   1.254   2.473  11.244 -2.2634 -0.6744 -1.4830
 5834TIP3    H238994   1.151   2.383  11.310 -0.3025 -1.7692  0.1516
 5835TIP3   OH238995   6.157   5.362  14.875  0.0009 -0.5078 -0.0687
 5835TIP3    H138996   6.091   5.379  14.807 -0.7694  1.3728  1.1152
 5835TIP3    H238997   6.112   5.307  14.939 -0.2174  0.1941  0.3890
 5836TIP3   OH238998   3.099   5.616  10.798  0.8237  0.0784 -0.5828
 5836TIP3    H138999   3.188   5.586  10.816  1.1754  0.8755 -0.9527
 5836TIP3    H239000   3.064   5.554  10.734  1.1498 -0.1762 -0.5094
 5837TIP3   OH239001   5.265   5.636  10.957  0.4222 -0.2295 -0.2649
 5837TIP3    H139002   5.354   5.609  10.980  0.9843  0.9883 -0.9343
 5837TIP3    H239003   5.254   5.606  10.866  0.1429 -0.3782 -0.1842
 5838TIP3   OH239004   0.674   2.136   0.162 -0.4642  0.4272  0.5633
 5838TIP3    H139005   0.675   2.168   0.252 -0.8089 -1.4956  1.2644
 5838TIP3    H239006   0.755   2.086   0.153 -0.5320  0.4306 -0.1209
 5839TIP3   OH239007   2.334   1.640   0.453 -0.2129 -0.1959  0.2450
 5839TIP3    H139008   2.251   1.620   0.409 -0.3905 -0.4178  0.6697
 5839TIP3    H239009   2.308   1.666   0.542  0.1694 -0.2350  0.3704
 5840TIP3   OH239010   0.465   2.347   0.783  0.3901  0.0925  0.6241
 5840TIP3    H139011   0.498   2.398   0.857  3.6653 -3.8219  2.0303
 5840TIP3    H239012   0.523   2.369   0.710  0.3703  0.0760  0.6032
 5841TIP3   OH239013   1.833   3.784  12.896 -0.4609 -0.4115 -0.1495
 5841TIP3    H139014   1.803   3.837  12.822  0.8212  0.8845  0.2291
 5841TIP3    H239015   1.757   3.731  12.920 -1.1447 -0.2438 -1.8530
 5842TIP3   OH239016   6.819   4.270  15.100 -0.3531 -0.0235  0.7855
 5842TIP3    H139017   6.753   4.209  15.067 -0.9026  0.6418  0.6389
 5842TIP3    H239018   6.892   4.214  15.126 -0.9566 -0.7659  0.9124
 5843TIP3   OH239019   4.460   1.328  11.572  0.5089 -0.1382 -0.3198
 5843TIP3    H139020   4.385   1.379  11.603 -1.4444 -2.0378 -1.7834
 5843TIP3    H239021   4.514   1.314  11.649  0.5207  3.1567  0.3442
 5844TIP3   OH239022   1.645   5.342  11.458  0.1909  0.7674 -0.7339
 5844TIP3    H139023   1.729   5.312  11.493 -1.1153 -0.3719  1.5346
 5844TIP3    H239024   1.636   5.298  11.374  2.0044  1.1549 -1.1426
 5845TIP3   OH239025   4.467   4.947   5.939 -0.0891 -0.7313  0.5060
 5845TIP3    H139026   4.493   4.874   5.883  0.2043  0.2449 -0.6538
 5845TIP3    H239027   4.461   4.909   6.027 -0.3232 -2.2285 -0.1417
 5846TIP3   OH239028   4.808   6.608  15.724  0.7386 -0.0796 -0.5224
 5846TIP3    H139029   4.882   6.557  15.757  0.5344  0.2889  0.5277
 5846TIP3    H239030   4.776   6.656  15.800 -0.6316 -0.2943 -0.9409
 5847TIP3   OH239031   1.549   2.813  12.284 -0.2873  0.0759  0.9382
 5847TIP3    H139032   1.588   2.775  12.363 -1.1855 -0.1125  1.3108
 5847TIP3    H239033   1.620   2.817  12.221 -0.0387 -1.7544  1.0685
 5848TIP3   OH239034   1.991   0.654   5.785 -0.5465 -0.1758 -0.9397
 5848TIP3    H139035   1.996   0.577   5.842  0.9640  0.1191 -0.6535
 5848TIP3    H239036   2.080   0.662   5.748 -0.2407  2.3427  0.2277
 5849TIP3   OH239037   4.179   0.699   3.933  0.4308  0.0407  0.0250
 5849TIP3    H139038   4.088   0.670   3.926  1.1634 -2.1477 -0.8822
 5849TIP3    H239039   4.175   0.778   3.987 -1.8555 -0.7891  1.1499
 5850TIP3   OH239040   4.144   2.592   3.006  0.0031 -0.7173 -0.8718
 5850TIP3    H139041   4.089   2.659   3.046 -0.2530 -0.2840 -1.9400
 5850TIP3    H239042   4.182   2.635   2.930  0.5758 -1.5049 -1.0361
 5851TIP3   OH239043   6.227   6.576   1.777 -0.1209 -0.4388  0.1524
 5851TIP3    H139044   6.163   6.580   1.706 -0.0769 -0.8783  0.0858
 5851TIP3    H239045   6.252   6.667   1.792  1.0969 -0.4933 -1.5066
 5852TIP3   OH239046   1.266   3.228  13.032  0.8985 -0.2388 -0.2880
 5852TIP3    H139047   1.245   3.242  12.940 -4.2070  0.7963  0.8843
 5852TIP3    H239048   1.233   3.141  13.052 -1.6819  1.0593  1.4337
 5853TIP3   OH239049   4.641   2.315  15.029  1.1995 -0.9716  0.6758
 5853TIP3    H139050   4.626   2.224  15.056  1.0474 -0.9185  0.7647
 5853TIP3    H239051   4.638   2.365  15.110 -2.5029 -0.3525  0.2457
 5854TIP3   OH239052   5.928   2.553  16.597 -0.5049  0.2626  0.2067
 5854TIP3    H139053   5.965   2.590  16.677 -0.1394 -2.0930  1.1547
 5854TIP3    H239054   6.000   2.554  16.534 -0.7751  2.0532 -0.1145
 5855TIP3   OH239055   2.874   0.481   6.088 -0.1246 -0.2105 -0.1693
 5855TIP3    H139056   2.955   0.455   6.132 -0.9222  0.3514  1.6857
 5855TIP3    H239057   2.902   0.544   6.021  1.1195 -1.1258 -0.5387
 5856TIP3   OH239058   2.539   6.092   1.356  0.5817 -0.0343  0.2549
 5856TIP3    H139059   2.548   6.186   1.371  0.3391  0.1468 -0.7166
 5856TIP3    H239060   2.455   6.083   1.311  0.7044 -0.6957  0.1585
 5857TIP3   OH239061   1.325   4.042   1.388  0.2373  0.4314  0.4444
 5857TIP3    H139062   1.306   3.992   1.309  0.3955 -0.5896  1.0373
 5857TIP3    H239063   1.418   4.025   1.405 -0.4307 -1.5655  2.3418
 5858TIP3   OH239064   6.655   4.517   4.697  0.0977  0.4208 -0.1790
 5858TIP3    H139065   6.573   4.562   4.718 -0.0990  0.5350 -1.1640
 5858TIP3    H239066   6.629   4.425   4.686  0.8948 -0.4389  4.3118
 5859TIP3   OH239067   5.607   2.831   3.140 -0.1648  0.1400  0.1035
 5859TIP3    H139068   5.539   2.769   3.114 -1.0597  0.7720  0.9192
 5859TIP3    H239069   5.633   2.875   3.059  1.2977 -2.0876 -0.6948
 5860TIP3   OH239070   1.594   5.589  16.583 -0.4098  0.2341  0.1864
 5860TIP3    H139071   1.534   5.577  16.657 -0.2372  0.6246  0.3892
 5860TIP3    H239072   1.676   5.618  16.623 -0.2399  0.1947 -0.1346
 5861TIP3   OH239073   6.020   3.366  11.448 -0.0270 -0.3833  0.0015
 5861TIP3    H139074   5.976   3.360  11.533 -0.9157 -1.2737 -0.5076
 5861TIP3    H239075   5.949   3.371  11.384  0.6346  0.0745 -0.7095
 5862TIP3   OH239076   0.159   0.160  12.623  0.0898 -0.2821 -0.4228
 5862TIP3    H139077   0.177   0.087  12.681  0.2177  1.6480  2.0475
 5862TIP3    H239078   0.072   0.141  12.587 -1.3838 -0.0604  2.8097
 5863TIP3   OH239079   3.923   0.841   0.433  0.0892 -0.3380  0.1044
 5863TIP3    H139080   4.002   0.878   0.472  1.2903 -1.3512 -1.3497
 5863TIP3    H239081   3.950   0.756   0.399 -1.4982 -0.4809 -0.8545
 5864TIP3   OH239082   3.257   0.167  13.826 -0.2112  0.3357 -0.0934
 5864TIP3    H139083   3.278   0.107  13.898 -2.3196 -1.5283 -0.9994
 5864TIP3    H239084   3.253   0.112  13.748  0.3610  2.0756 -1.3894
 5865TIP3   OH239085   5.733   1.892  14.975 -0.1160 -0.0236 -0.5055
 5865TIP3    H139086   5.757   1.934  15.058  1.7128 -0.9979 -0.5309
 5865TIP3    H239087   5.754   1.800  14.987 -0.4547 -0.2889 -1.8306
 5866TIP3   OH239088   1.413   3.805   1.608  0.2734 -0.3267  0.4900
 5866TIP3    H139089   1.425   3.756   1.527  0.1627  2.0547 -1.0110
 5866TIP3    H239090   1.453   3.891   1.591 -2.0774  1.1316  2.0039
 5867TIP3   OH239091   2.116   0.415   0.239 -0.4315  0.1448 -0.3713
 5867TIP3    H139092   2.140   0.339   0.291 -1.5901 -0.2278 -0.3586
 5867TIP3    H239093   2.191   0.431   0.183 -0.5163 -1.5189 -0.9718
 5868TIP3   OH239094   5.342   1.987  14.240 -0.1415  0.0886 -0.2678
 5868TIP3    H139095   5.415   2.016  14.295 -0.1287 -0.4230 -0.0126
 5868TIP3    H239096   5.286   1.938  14.300 -0.7315  0.5427 -0.4505
 5869TIP3   OH239097   3.865   0.756  11.692 -0.2967  0.4150 -0.1699
 5869TIP3    H139098   3.837   0.797  11.774 -0.8107 -2.3010  1.0820
 5869TIP3    H239099   3.945   0.709  11.716 -1.4932 -1.9707 -0.7299
 5870TIP3   OH239100   2.810   6.300  16.618 -0.1620 -0.2615  0.3819
 5870TIP3    H139101   2.827   6.360  16.545 -1.3771  3.7248  3.1863
 5870TIP3    H239102   2.896   6.281  16.655  0.3069 -0.9594 -1.0270
 5871TIP3   OH239103   4.502   3.352   3.677  0.7596  0.4220  1.0351
 5871TIP3    H139104   4.543   3.428   3.718 -0.3780  1.6605 -0.0836
 5871TIP3    H239105   4.529   3.356   3.586  0.6339 -0.4798  0.9521
 5872TIP3   OH239106   5.178   0.208   4.374  0.1132  0.0103  0.2230
 5872TIP3    H139107   5.202   0.163   4.293  0.8201  1.0339 -0.1442
 5872TIP3    H239108   5.259   0.212   4.425  0.2323  1.5331 -0.0722
 5873TIP3   OH239109   2.652   2.662  13.784  0.3096  0.5400  0.0726
 5873TIP3    H139110   2.580   2.635  13.726  1.6756 -1.0913 -0.9248
 5873TIP3    H239111   2.621   2.742  13.825 -2.2607 -0.3599 -0.0033
 5874TIP3   OH239112   3.486   1.249   0.132  0.1628 -0.7871  0.1799
 5874TIP3    H139113   3.448   1.279   0.215 -1.4911 -3.7084  0.5444
 5874TIP3    H239114   3.580   1.264   0.142 -0.2834  1.3113  1.5354
 5875TIP3   OH239115   1.640   3.638  15.893  0.4808 -0.0028  0.6816
 5875TIP3    H139116   1.702   3.572  15.925  1.9227  0.6223 -0.7688
 5875TIP3    H239117   1.624   3.612  15.802 -0.6001  0.4290  0.7550
 5876TIP3   OH239118   3.483   4.885  12.622  0.0609 -0.0278  0.1169
 5876TIP3    H139119   3.549   4.816  12.612  0.6866  0.7365 -1.1502
 5876TIP3    H239120   3.421   4.871  12.550  1.9531  2.6149 -2.1554
 5877TIP3   OH239121   0.737   5.241  17.236  0.0146  0.0259  0.0114
 5877TIP3    H139122   0.790   5.261  17.313 -2.6456  1.2946  1.5925
 5877TIP3    H239123   0.788   5.177  17.187  2.1337 -0.1731  2.4118
 5878TIP3   OH239124   5.436   4.619  15.320 -0.0693 -0.4635 -0.6182
 5878TIP3    H139125   5.518   4.614  15.369  0.1749  0.3199 -0.9490
 5878TIP3    H239126   5.463   4.646  15.232 -0.9258  2.3628 -0.0587
 5879TIP3   OH239127   2.200   1.461  14.061  0.6203  0.3762  0.4114
 5879TIP3    H139128   2.151   1.401  14.117 -1.1782  0.1296 -1.3693
 5879TIP3    H239129   2.274   1.410  14.029 -0.3690 -0.6051 -0.3245
 5880TIP3   OH239130   3.200   5.214  12.209 -0.0592  0.1652  0.2457
 5880TIP3    H139131   3.175   5.219  12.301 -0.9498 -1.7007  0.1427
 5880TIP3    H239132   3.293   5.235  12.208 -0.2468  1.1262  1.4400
 5881TIP3   OH239133   1.700   4.045   2.730  0.6236 -0.0150 -0.0241
 5881TIP3    H139134   1.686   3.954   2.754 -1.2279 -0.1244 -1.4177
 5881TIP3    H239135   1.617   4.089   2.750  0.6879  0.8610 -1.5736
 5882TIP3   OH239136   2.237   6.018  14.006  0.1094  0.0591 -0.0468
 5882TIP3    H139137   2.205   5.976  13.926  1.2198 -0.7266 -0.0911
 5882TIP3    H239138   2.321   5.976  14.023  0.7602  1.5447  0.4925
 5883TIP3   OH239139   3.539   0.384   6.043 -0.1083  0.1249 -0.3670
 5883TIP3    H139140   3.472   0.408   5.980 -0.0535  0.9713 -0.1078
 5883TIP3    H239141   3.607   0.341   5.991 -0.1728  0.6036 -0.8445
 5884TIP3   OH239142   0.891   4.711   6.022 -0.1289 -0.2459  0.7190
 5884TIP3    H139143   0.813   4.740   5.975 -0.2491  0.8785  1.6005
 5884TIP3    H239144   0.947   4.674   5.954  0.7026  3.4725 -0.7352
 5885TIP3   OH239145   5.455   3.720  17.077  0.2770  0.6890  0.8032
 5885TIP3    H139146   5.386   3.786  17.084  0.0468  0.5324  0.0256
 5885TIP3    H239147   5.426   3.649  17.135  0.0028  0.8106  0.8167
 5886TIP3   OH239148   3.183   6.061   1.266  0.2398 -0.0847 -0.0195
 5886TIP3    H139149   3.254   6.069   1.330 -0.6381  0.0116  0.9665
 5886TIP3    H239150   3.178   5.967   1.249 -1.3623 -0.4447  2.2179
 5887TIP3   OH239151   5.321   3.051   2.112 -0.8399 -0.0060  0.3668
 5887TIP3    H139152   5.333   3.066   2.206 -1.1307  0.2197  0.3679
 5887TIP3    H239153   5.378   3.115   2.070 -0.0167 -0.7036  0.3915
 5888TIP3   OH239154   5.533   2.738   1.007 -0.2149 -0.8945 -0.4820
 5888TIP3    H139155   5.471   2.774   0.943 -0.0561 -0.7818 -0.5712
 5888TIP3    H239156   5.492   2.657   1.037 -0.3389 -0.8944 -0.6505
 5889TIP3   OH239157   3.443   2.319  13.232  0.1386  0.1167 -0.3132
 5889TIP3    H139158   3.379   2.385  13.259 -0.7643 -0.8364 -0.0667
 5889TIP3    H239159   3.391   2.239  13.222  1.5298 -1.0015  1.2371
 5890TIP3   OH239160   4.249   2.697  13.422  0.4567 -0.8817  0.2647
 5890TIP3    H139161   4.329   2.749  13.421  1.9301 -3.0889  0.6115
 5890TIP3    H239162   4.205   2.719  13.340  0.0798  2.3199  1.2668
 5891TIP3   OH239163   2.693   4.592  11.263  0.3448  0.2949  0.7125
 5891TIP3    H139164   2.600   4.568  11.266  0.1497  0.8259 -0.6040
 5891TIP3    H239165   2.734   4.524  11.209  0.6132  0.3733  0.8168
 5892TIP3   OH239166   5.462   4.632   3.843  0.1587  0.1213 -0.2633
 5892TIP3    H139167   5.477   4.606   3.934 -2.9498 -1.3739 -0.1005
 5892TIP3    H239168   5.546   4.619   3.800  1.4421 -0.0239  2.1889
 5893TIP3   OH239169   1.130   1.260   5.622  0.5260  0.3966 -0.3947
 5893TIP3    H139170   1.113   1.167   5.641  0.1866  0.2169 -1.5463
 5893TIP3    H239171   1.169   1.294   5.703  1.0926 -0.8675 -0.1199
 5894TIP3   OH239172   3.768   1.280  17.191 -0.0494  0.4740  0.6359
 5894TIP3    H139173   3.817   1.203  17.219  0.5521  1.4614  2.4377
 5894TIP3    H239174   3.774   1.280  17.096  0.3151 -1.4450  0.6375
 5895TIP3   OH239175   1.547   4.556   0.205 -0.2290 -0.0577 -0.5644
 5895TIP3    H139176   1.640   4.537   0.217 -0.6157 -0.9330  1.1472
 5895TIP3    H239177   1.513   4.569   0.294 -2.0409 -1.1545 -1.0708
 5896TIP3   OH239178   6.454   0.508  15.407 -0.3347  0.4092  0.4414
 5896TIP3    H139179   6.369   0.484  15.444 -1.5977  0.3661 -2.3100
 5896TIP3    H239180   6.517   0.489  15.476 -2.5395  0.2899  2.4887
 5897TIP3   OH239181   5.454   4.399   1.450  0.3422 -0.0708 -0.0573
 5897TIP3    H139182   5.453   4.362   1.362 -1.1908 -1.0113  0.3355
 5897TIP3    H239183   5.512   4.341   1.499  1.8567  0.9290 -0.6219
 5898TIP3   OH239184   3.382   1.326  11.982 -0.2184 -0.5020  0.5176
 5898TIP3    H139185   3.443   1.378  12.035  0.9977 -0.1885 -1.1514
 5898TIP3    H239186   3.406   1.345  11.892 -2.9310 -0.2251 -0.2057
 5899TIP3   OH239187   2.058   0.743  15.430  0.1612 -0.4494 -0.6229
 5899TIP3    H139188   2.129   0.795  15.391  0.4989 -0.4645 -0.0220
 5899TIP3    H239189   1.980   0.798  15.417  0.5964  0.4528  0.4596
 5900TIP3   OH239190   4.787   2.092   4.828  0.0590  0.1897 -0.4375
 5900TIP3    H139191   4.822   2.016   4.783  0.1364  0.8290 -1.4687
 5900TIP3    H239192   4.696   2.098   4.801 -0.6779 -1.0027  1.6277
 5901TIP3   OH239193   0.444   1.708  10.925  0.3465  0.2065  0.0676
 5901TIP3    H139194   0.486   1.670  10.848  1.0917 -0.7523  0.9182
 5901TIP3    H239195   0.366   1.752  10.892  1.2847  0.8108 -1.3673
 5902TIP3   OH239196   3.020   4.285   5.010  0.0784  0.5620 -0.2369
 5902TIP3    H139197   3.073   4.216   4.970 -0.2333 -0.6109  1.3022
 5902TIP3    H239198   3.076   4.362   5.009  0.8199  0.0240 -1.0552
 5903TIP3   OH239199   2.903   3.089  16.857 -0.3571  0.1386 -0.3872
 5903TIP3    H139200   2.829   3.036  16.826  0.0782 -0.2743 -0.7400
 5903TIP3    H239201   2.971   3.076  16.790  0.2289  0.0725  0.2096
 5904TIP3   OH239202   3.798   4.439   0.229 -0.4230 -0.1679 -0.1046
 5904TIP3    H139203   3.801   4.346   0.206 -1.2479 -0.7111  1.8390
 5904TIP3    H239204   3.772   4.483   0.148 -0.9857 -1.7287 -0.7939
 5905TIP3   OH239205   5.483   4.021   1.666  0.3293  0.5080  0.0970
 5905TIP3    H139206   5.527   3.942   1.699  1.1523  0.1706 -1.7686
 5905TIP3    H239207   5.542   4.092   1.686 -1.1356  0.9165  3.2539
 5906TIP3   OH239208   0.168   3.116  13.343  0.1834  0.0590 -0.1012
 5906TIP3    H139209   0.246   3.161  13.310 -0.1934  1.9003  1.4473
 5906TIP3    H239210   0.096   3.177  13.325 -0.7126 -1.0154 -0.2127
 5907TIP3   OH239211   4.179   1.053  11.578  0.5647  0.5558  0.2100
 5907TIP3    H139212   4.142   0.970  11.547 -0.6130  0.9462  0.5630
 5907TIP3    H239213   4.144   1.119  11.519  0.2281  0.9994  0.8968
 5908TIP3   OH239214   1.987   5.550   1.823  0.1931  0.4886 -0.3938
 5908TIP3    H139215   2.038   5.627   1.797  0.9240  0.5434  1.1382
 5908TIP3    H239216   2.052   5.482   1.838 -0.3487 -0.0284 -0.3769
 5909TIP3   OH239217   4.075   5.603  15.643 -0.4058 -0.1115 -0.2237
 5909TIP3    H139218   4.035   5.631  15.725  0.6881  0.7045  0.0349
 5909TIP3    H239219   4.145   5.666  15.627 -1.2576  0.3404 -2.3181
 5910TIP3   OH239220   3.873   3.626  16.786  0.5330 -0.8006  0.0335
 5910TIP3    H139221   3.803   3.610  16.849  2.2066 -2.3606  1.5612
 5910TIP3    H239222   3.829   3.625  16.701 -1.2540 -2.2011  0.9258
 5911TIP3   OH239223   5.050   4.391  13.756  0.1980 -0.2097 -0.0995
 5911TIP3    H139224   4.984   4.448  13.796  0.4655  0.6045 -0.8171
 5911TIP3    H239225   5.034   4.398  13.662 -1.3754 -3.2484 -0.1293
 5912TIP3   OH239226   2.589   5.878   1.168 -0.1813  0.0136 -0.3359
 5912TIP3    H139227   2.591   5.971   1.191 -0.0540  0.2032 -1.1061
 5912TIP3    H239228   2.646   5.871   1.091 -1.5482 -0.4089 -1.3264
 5913TIP3   OH239229   3.884   1.478  12.661  0.3635 -0.0614 -0.0709
 5913TIP3    H139230   3.918   1.418  12.595 -1.1590  0.1035 -1.0374
 5913TIP3    H239231   3.826   1.424  12.715  3.3538 -0.7379  2.6191
 5914TIP3   OH239232   0.626   5.690  14.695  0.2139  0.0802  0.5343
 5914TIP3    H139233   0.706   5.741  14.685  0.5069  0.0862  2.7127
 5914TIP3    H239234   0.657   5.601  14.714 -0.2899  0.0804  1.3565
 5915TIP3   OH239235   6.380   1.567  13.580 -0.4895  0.5365 -0.4072
 5915TIP3    H139236   6.331   1.636  13.625  1.9906  0.7203  2.1555
 5915TIP3    H239237   6.427   1.613  13.510  1.0933  1.4637  1.2414
 5916TIP3   OH239238   4.659   0.214   3.805  0.5596  0.0928 -0.0941
 5916TIP3    H139239   4.602   0.291   3.811 -2.7914 -2.4372  2.0437
 5916TIP3    H239240   4.701   0.208   3.890 -1.3088 -1.9391  0.7320
 5917TIP3   OH239241   1.596   2.441   4.337  0.4935 -0.5850  0.2186
 5917TIP3    H139242   1.574   2.529   4.366 -0.9340 -1.1392  0.8567
 5917TIP3    H239243   1.683   2.425   4.373 -0.6217 -0.6888  2.9833
 5918TIP3   OH239244   2.706   3.119   3.032  0.2927  0.7402  0.4301
 5918TIP3    H139245   2.801   3.122   3.027  0.2869  0.7011  0.3090
 5918TIP3    H239246   2.688   3.117   3.126  0.4624 -0.5847  0.4452
 5919TIP3   OH239247   4.157   3.145  11.229  0.0459  0.0278 -0.2370
 5919TIP3    H139248   4.194   3.122  11.314  0.4342 -1.0535 -0.6825
 5919TIP3    H239249   4.231   3.138  11.169 -0.6185 -0.9626 -0.9483
 5920TIP3   OH239250   2.408   1.401   1.749 -0.4052  0.7302  0.9053
 5920TIP3    H139251   2.466   1.362   1.814  1.8856  0.1750 -1.4378
 5920TIP3    H239252   2.436   1.493   1.743 -0.3284  0.6745  0.3896
 5921TIP3   OH239253   4.731   0.557   5.087 -0.2954 -0.2071 -0.1362
 5921TIP3    H139254   4.658   0.524   5.035  0.2562 -1.2257 -0.2738
 5921TIP3    H239255   4.728   0.506   5.168  1.7555 -2.0129 -1.1615
 5922TIP3   OH239256   6.636   2.346   3.610 -0.4552 -0.9593  0.3057
 5922TIP3    H139257   6.669   2.265   3.570  0.7557  0.0397 -0.7466
 5922TIP3    H239258   6.652   2.334   3.703  2.1769 -0.8749 -0.0764
 5923TIP3   OH239259   3.929   0.674   2.533 -0.2092  0.6116  0.5712
 5923TIP3    H139260   3.975   0.625   2.465  2.1408  0.5209  2.1706
 5923TIP3    H239261   3.863   0.613   2.566 -1.9375  0.9312 -2.1291
 5924TIP3   OH239262   6.611   5.256   0.457 -0.5140 -0.1394 -0.0705
 5924TIP3    H139263   6.609   5.187   0.391 -1.0306  0.7757 -1.0312
 5924TIP3    H239264   6.660   5.327   0.416  0.7178 -0.2307  1.2136
 5925TIP3   OH239265   2.988   1.962   4.344  0.2650 -0.1031  0.1731
 5925TIP3    H139266   3.055   2.013   4.390 -0.3364  0.9951 -0.1823
 5925TIP3    H239267   3.031   1.934   4.263 -0.3972  2.4862 -1.1255
 5926TIP3   OH239268   1.336   2.953   5.464  0.5043  0.3345 -0.3842
 5926TIP3    H139269   1.424   2.949   5.427  0.4970  0.7791 -0.4545
 5926TIP3    H239270   1.317   3.047   5.472 -0.0635  0.2433 -0.6074
 5927TIP3   OH239271   3.560   5.577   5.906 -0.3554  0.4086 -0.6306
 5927TIP3    H139272   3.620   5.502   5.917  0.0598  0.7962 -0.1774
 5927TIP3    H239273   3.551   5.612   5.995 -0.7191  0.7682 -0.8119
 5928TIP3   OH239274   1.727   0.710   5.726  0.3261  0.5569 -0.0244
 5928TIP3    H139275   1.729   0.707   5.630  0.1332 -1.0697 -0.0052
 5928TIP3    H239276   1.810   0.670   5.753 -0.3456 -0.5342  0.4759
 5929TIP3   OH239277   6.818   6.506   2.034  0.1976  0.6408 -0.6463
 5929TIP3    H139278   6.886   6.441   2.016 -0.1087  0.8949 -2.8671
 5929TIP3    H239279   6.757   6.460   2.092  2.1591  0.3715  1.2660
 5930TIP3   OH239280   3.738   6.312  15.176 -0.1775 -0.0548  0.7850
 5930TIP3    H139281   3.690   6.231  15.197  0.6973 -0.6141  0.6451
 5930TIP3    H239282   3.814   6.310  15.233  0.7667 -0.2036 -0.4605
 5931TIP3   OH239283   2.461   4.463   3.146  0.3295  0.0520 -0.0440
 5931TIP3    H139284   2.477   4.436   3.237 -1.2058 -1.7870 -0.2920
 5931TIP3    H239285   2.385   4.520   3.151 -0.8964 -1.4966 -0.3371
 5932TIP3   OH239286   4.223   1.916  13.935 -0.6093 -0.4251  0.2417
 5932TIP3    H139287   4.247   1.858  14.007 -0.2540  0.4962  0.8697
 5932TIP3    H239288   4.282   1.990  13.942  0.9784 -1.3440 -2.3636
 5933TIP3   OH239289   1.254   3.580   0.988  0.1944  0.5321  0.0078
 5933TIP3    H139290   1.315   3.633   1.039 -0.2076 -0.0100  1.0575
 5933TIP3    H239291   1.205   3.643   0.936  1.2042  1.0229 -0.3744
 5934TIP3   OH239292   3.888   0.638  16.547 -0.9270 -0.1165 -0.2020
 5934TIP3    H139293   3.898   0.729  16.577  0.7211  0.4493 -2.3403
 5934TIP3    H239294   3.887   0.645  16.451  1.8820 -2.5886 -0.4651
 5935TIP3   OH239295   5.055   3.386   3.913 -0.4549 -0.0337  0.0112
 5935TIP3    H139296   5.034   3.448   3.983 -1.1913 -1.1322  0.7859
 5935TIP3    H239297   5.142   3.353   3.935 -0.5918 -0.2103  0.2891
 5936TIP3   OH239298   1.757   2.975   2.617  0.2666 -0.3630 -0.0676
 5936TIP3    H139299   1.773   2.887   2.584 -0.5153 -0.1530 -1.0148
 5936TIP3    H239300   1.744   2.963   2.711  0.0242 -1.2742 -0.2126
 5937TIP3   OH239301   4.129   4.836   3.041  0.8157  0.0435  0.3444
 5937TIP3    H139302   4.077   4.791   3.107 -1.0215  1.3270 -0.1874
 5937TIP3    H239303   4.192   4.888   3.091  0.7031 -0.4673  1.0222
 5938TIP3   OH239304   3.836   4.219   4.918  0.7414  0.0347 -0.0626
 5938TIP3    H139305   3.801   4.270   4.845  0.3433  0.1529  0.2084
 5938TIP3    H239306   3.931   4.228   4.911  0.7744 -1.2559 -1.4936
 5939TIP3   OH239307   4.979   1.591  11.594  0.1899  0.2214 -0.0339
 5939TIP3    H139308   4.988   1.533  11.669  0.2004 -0.9196 -0.8934
 5939TIP3    H239309   5.069   1.605  11.564 -0.0023 -1.6739 -1.5637
 5940TIP3   OH239310   5.280   1.288  16.016  0.4229 -0.4044  0.0081
 5940TIP3    H139311   5.292   1.381  15.995  3.6868 -0.9290 -0.6376
 5940TIP3    H239312   5.233   1.289  16.099 -1.0000  1.8026 -0.7857
 5941TIP3   OH239313   6.818   4.486  16.354  0.3814 -0.1165  0.1438
 5941TIP3    H139314   6.856   4.459  16.437  2.5939  2.6726  0.0964
 5941TIP3    H239315   6.891   4.481  16.292 -0.4274  1.0150 -0.9136
 5942TIP3   OH239316   2.480   2.586   4.742 -1.2768  0.1949 -0.6603
 5942TIP3    H139317   2.453   2.536   4.664 -1.1327 -0.0892 -0.5272
 5942TIP3    H239318   2.483   2.677   4.712 -0.0012 -0.0575 -1.3165
 5943TIP3   OH239319   2.298   3.800  12.854 -0.2909 -0.2006 -0.2116
 5943TIP3    H139320   2.217   3.757  12.828  0.0342 -0.3805 -0.9236
 5943TIP3    H239321   2.355   3.729  12.882  0.2431 -0.2352 -1.3827
 5944TIP3   OH239322   1.444   3.756  16.460 -0.6944 -0.2488  0.3086
 5944TIP3    H139323   1.449   3.692  16.389  1.2282  0.1615  0.0461
 5944TIP3    H239324   1.352   3.783  16.462 -0.9934 -1.1264 -1.2521
 5945TIP3   OH239325   6.711   4.982  13.324 -0.2893  0.3302 -0.6299
 5945TIP3    H139326   6.699   4.888  13.337 -0.0560  0.2463 -1.0216
 5945TIP3    H239327   6.784   5.006  13.380  0.1617  0.1290 -1.1314
 5946TIP3   OH239328   5.299   1.964  10.322  0.6846 -0.4073  0.6231
 5946TIP3    H139329   5.261   1.977  10.235  0.5346 -0.0820  0.7343
 5946TIP3    H239330   5.312   1.870  10.329 -0.9247 -0.6229  0.9324
 5947TIP3   OH239331   1.864   0.485  11.876 -0.0014 -0.3486  0.1356
 5947TIP3    H139332   1.846   0.562  11.930 -1.1710 -0.6902  0.2365
 5947TIP3    H239333   1.823   0.412  11.922 -0.7609 -0.6923 -1.0646
 5948TIP3   OH239334   3.436   0.033  12.919 -0.5097  0.6197  0.2700
 5948TIP3    H139335   3.403  -0.044  12.873 -0.0347 -0.0386  1.0344
 5948TIP3    H239336   3.358   0.074  12.956 -0.9480  1.3354 -1.3603
 5949TIP3   OH239337   0.876   0.504  12.962  0.0438  0.6528 -0.0309
 5949TIP3    H139338   0.889   0.599  12.960 -0.4802  0.7411  0.9762
 5949TIP3    H239339   0.794   0.489  12.914 -0.9865  0.8962  1.6344
 5950TIP3   OH239340   6.389   0.542   1.953  0.8236  0.1704 -0.4086
 5950TIP3    H139341   6.445   0.464   1.950  1.2676  0.2403  3.8693
 5950TIP3    H239342   6.437   0.607   1.901  3.4237 -0.5801  0.9635
 5951TIP3   OH239343   4.495   1.709   6.434  0.4094  0.1769  0.0474
 5951TIP3    H139344   4.589   1.699   6.452  0.3399 -0.0295  0.2911
 5951TIP3    H239345   4.466   1.779   6.493 -0.0165 -1.1416  1.4255
 5952TIP3   OH239346   5.883   6.055  11.824 -0.0761  0.6885  0.4279
 5952TIP3    H139347   5.908   5.989  11.888  0.4300 -0.8938 -1.3517
 5952TIP3    H239348   5.854   6.130  11.876 -0.1093 -0.7215  2.4701
 5953TIP3   OH239349   4.616   2.832  10.647  0.5115  0.0875 -0.0522
 5953TIP3    H139350   4.631   2.850  10.740 -0.7981 -1.0489  0.3964
 5953TIP3    H239351   4.572   2.911  10.615 -0.7101 -0.2497  0.7392
 5954TIP3   OH239352   4.041   1.366  15.721  0.0524  0.0522  0.1732
 5954TIP3    H139353   4.024   1.381  15.628  1.0791  0.4161  0.0456
 5954TIP3    H239354   4.028   1.451  15.762  1.9085  0.4097  0.0257
 5955TIP3   OH239355   4.562   1.511   5.977 -0.0610  0.0446 -0.2333
 5955TIP3    H139356   4.658   1.507   5.973 -0.0973  0.0190 -1.5685
 5955TIP3    H239357   4.541   1.520   6.070  1.3157  2.1410 -0.0920
 5956TIP3   OH239358   0.994   4.117   1.148 -0.3302 -0.0334  0.0640
 5956TIP3    H139359   0.951   4.202   1.149 -0.5863 -0.1558  2.3900
 5956TIP3    H239360   0.923   4.054   1.134 -0.4199 -0.0163  0.4587
 5957TIP3   OH239361   0.468   1.251  10.790  0.1739 -0.3037 -0.2316
 5957TIP3    H139362   0.381   1.281  10.816  0.6782  1.7896 -0.9060
 5957TIP3    H239363   0.452   1.175  10.734 -1.1225 -1.2561  1.3978
 5958TIP3   OH239364   2.042   4.816   5.325 -0.0688 -0.2020 -0.4589
 5958TIP3    H139365   1.972   4.751   5.310 -0.4024 -0.1811  0.9025
 5958TIP3    H239366   2.123   4.765   5.317 -0.3151 -0.7078  0.2050
 5959TIP3   OH239367   4.641   0.250  14.847 -0.7081 -0.3445 -0.1625
 5959TIP3    H139368   4.582   0.312  14.892 -1.6228 -0.4503 -1.1903
 5959TIP3    H239369   4.723   0.256  14.896 -1.7708 -0.6820  1.7163
 5960TIP3   OH239370   3.287   2.539   6.313 -0.0958  0.3396 -1.0727
 5960TIP3    H139371   3.243   2.529   6.229  0.1361  0.5950 -1.2273
 5960TIP3    H239372   3.279   2.633   6.333  1.7843  0.7216 -1.8949
 5961TIP3   OH239373   2.339   1.927   1.499  0.6788 -1.1856 -0.3070
 5961TIP3    H139374   2.337   2.006   1.445  0.2935 -0.6617  0.4632
 5961TIP3    H239375   2.412   1.940   1.559 -0.7470 -0.4001  1.3099
 5962TIP3   OH239376   2.196   6.417  15.996 -0.3630  0.3975  0.1252
 5962TIP3    H139377   2.159   6.341  16.041  0.3362  0.0073  0.0504
 5962TIP3    H239378   2.217   6.479  16.065 -0.9150  0.5148  0.1890
 5963TIP3   OH239379   1.871   2.198   3.156  0.0083  0.5442 -0.5565
 5963TIP3    H139380   1.808   2.270   3.150 -1.3303 -0.6079 -0.6368
 5963TIP3    H239381   1.944   2.225   3.101 -1.6094  0.7378 -2.6935
 5964TIP3   OH239382   1.048   1.343  17.224  0.4652  0.2100 -0.2688
 5964TIP3    H139383   1.122   1.402  17.240  1.7786 -1.4001 -0.2594
 5964TIP3    H239384   1.026   1.310  17.311 -0.6342  1.0773 -0.2006
 5965TIP3   OH239385   6.528   4.953  15.387 -0.1052 -0.4262 -0.3095
 5965TIP3    H139386   6.594   4.971  15.454  0.0752  0.9100 -0.8147
 5965TIP3    H239387   6.569   4.888  15.330  1.5972  1.7814 -1.7173
 5966TIP3   OH239388   2.976   2.184  12.613 -0.1650  0.0957  0.2018
 5966TIP3    H139389   2.972   2.172  12.708 -2.1632 -0.7034  0.0493
 5966TIP3    H239390   3.019   2.269  12.601  1.1592 -0.3417  1.7716
 5967TIP3   OH239391   4.000   4.349  14.180 -0.1903 -0.7872  0.3211
 5967TIP3    H139392   3.936   4.382  14.244  0.6998 -0.0549  0.8555
 5967TIP3    H239393   3.963   4.267  14.149 -1.5932 -0.1565  0.3087
 5968TIP3   OH239394   0.805   4.652  16.488 -0.4983  0.0809  0.1653
 5968TIP3    H139395   0.863   4.583  16.520  1.4670  1.9259  0.6460
 5968TIP3    H239396   0.742   4.665  16.559 -1.2837 -1.6300 -0.1908
 5969TIP3   OH239397   0.572   0.014   3.969 -0.4934  0.1385  0.3821
 5969TIP3    H139398   0.602  -0.066   4.013  0.8747 -0.6614 -1.9122
 5969TIP3    H239399   0.525  -0.018   3.892 -0.3495  1.5290 -0.2931
 5970TIP3   OH239400   6.089   0.091  11.178 -0.0098 -0.2689 -0.0550
 5970TIP3    H139401   6.002   0.078  11.141  0.7149 -3.4328 -0.8170
 5970TIP3    H239402   6.086   0.048  11.263  0.3472  0.9947  0.6020
 5971TIP3   OH239403   6.574   0.333  15.085  0.2972  0.0229 -0.4911
 5971TIP3    H139404   6.615   0.264  15.033  1.0068 -1.1194  1.5430
 5971TIP3    H239405   6.561   0.294  15.172  2.7650  3.1438  1.3779
 5972TIP3   OH239406   6.434   3.445  16.384  0.1122  0.3543  0.1872
 5972TIP3    H139407   6.391   3.500  16.449 -0.5706  1.2047 -0.9585
 5972TIP3    H239408   6.522   3.432  16.418  0.5862  2.9200  0.0755
 5973TIP3   OH239409   0.295   1.693   3.252 -0.3219  0.2700  0.2208
 5973TIP3    H139410   0.383   1.685   3.288 -0.4754 -0.2604  0.4698
 5973TIP3    H239411   0.276   1.787   3.258  0.3990  0.4564 -0.2469
 5974TIP3   OH239412   1.867   3.899   4.905  0.3007 -0.3145 -0.3266
 5974TIP3    H139413   1.917   3.971   4.867 -0.7435 -0.6528 -2.3872
 5974TIP3    H239414   1.917   3.821   4.882  1.7824 -0.2482  2.4653
 5975TIP3   OH239415   4.575   2.534  13.143  0.9848  0.6383 -0.0601
 5975TIP3    H139416   4.559   2.499  13.231  1.2378  1.7149  0.4282
 5975TIP3    H239417   4.561   2.460  13.085 -0.5733  0.2567  0.7740
 5976TIP3   OH239418   1.781   4.843   3.423 -0.4310  0.2928  0.1262
 5976TIP3    H139419   1.776   4.848   3.327  0.6861  0.5501  0.0755
 5976TIP3    H239420   1.789   4.750   3.442  2.2299  0.4105 -0.2048
 5977TIP3   OH239421   5.190   6.211  13.520  0.0596  0.2098 -0.3325
 5977TIP3    H139422   5.103   6.175  13.539  0.1397 -0.0638 -0.4971
 5977TIP3    H239423   5.243   6.188  13.596 -0.1603  0.8653  0.0246
 5978TIP3   OH239424   0.642   2.665   4.386 -0.1640 -0.1838 -0.7018
 5978TIP3    H139425   0.577   2.666   4.457  0.4665  0.9951 -0.1312
 5978TIP3    H239426   0.700   2.592   4.407 -1.2331 -1.1715 -1.1531
 5979TIP3   OH239427   3.413   6.492   3.980 -0.3973  0.5321 -0.2607
 5979TIP3    H139428   3.496   6.488   4.027  0.3466  1.4369 -1.4652
 5979TIP3    H239429   3.347   6.492   4.049  0.5786 -0.6745  0.6967
 5980TIP3   OH239430   3.292   4.922  17.025 -0.2753  0.1482 -0.1052
 5980TIP3    H139431   3.383   4.904  17.001 -0.7155 -1.4376 -0.6320
 5980TIP3    H239432   3.260   4.840  17.063 -1.3286  0.8606  0.5897
 5981TIP3   OH239433   0.939   3.575   6.845 -0.0380  0.5648  0.2161
 5981TIP3    H139434   0.892   3.600   6.924 -1.0103 -0.8054  0.0865
 5981TIP3    H239435   0.874   3.529   6.792  0.8510  0.6529 -0.9752
 5982TIP3   OH239436   6.039   6.020  15.159  0.0228 -0.3476  0.2833
 5982TIP3    H139437   6.049   5.975  15.075 -1.7698 -0.1511 -0.0601
 5982TIP3    H239438   6.029   6.113  15.135  2.2368  0.0713  0.8918
 5983TIP3   OH239439   5.697   4.799  12.706 -0.0692  0.2040  0.1676
 5983TIP3    H139440   5.762   4.799  12.635  1.4182 -1.0149  1.5050
 5983TIP3    H239441   5.705   4.712  12.745 -0.5505  1.0286  2.1272
 5984TIP3   OH239442   1.978   3.747  11.982 -0.3496 -0.6019  0.8850
 5984TIP3    H139443   1.901   3.799  11.961  1.2460  1.2570 -0.6513
 5984TIP3    H239444   1.958   3.660  11.948 -0.7435  0.5301 -1.9871
 5985TIP3   OH239445   2.066   2.751   5.861  0.3021  0.6158  0.6211
 5985TIP3    H139446   1.989   2.715   5.906 -1.2877  1.8381 -1.0585
 5985TIP3    H239447   2.059   2.720   5.771  1.8414  0.6592  0.4679
 5986TIP3   OH239448   6.482   1.494   1.632 -0.7971  0.0209  0.3964
 5986TIP3    H139449   6.530   1.445   1.565 -0.6180 -0.3142  0.7697
 5986TIP3    H239450   6.541   1.567   1.654 -1.5970  1.1419 -1.0690
 5987TIP3   OH239451   2.537   4.142  12.255 -0.4843 -0.1060  0.2599
 5987TIP3    H139452   2.445   4.169  12.251 -0.3886  0.1638 -0.2289
 5987TIP3    H239453   2.535   4.057  12.298 -1.0290 -0.3682 -0.2652
 5988TIP3   OH239454   6.289   4.425  12.041 -0.1066 -0.0718 -0.2198
 5988TIP3    H139455   6.346   4.501  12.039  1.0132 -0.8787  0.3330
 5988TIP3    H239456   6.328   4.367  12.107  0.4450 -2.1961 -2.3390
 5989TIP3   OH239457   2.985   1.427  15.716 -0.3539  0.2820  0.0709
 5989TIP3    H139458   3.037   1.403  15.640 -1.1870 -0.5390 -0.2420
 5989TIP3    H239459   2.957   1.517  15.698  1.4736  0.9615  0.5410
 5990TIP3   OH239460   6.620   5.060  12.561 -0.4537 -0.3098 -0.1924
 5990TIP3    H139461   6.542   5.034  12.609 -1.0742 -1.7172 -1.8863
 5990TIP3    H239462   6.678   4.984  12.566  0.6703  0.5770  0.7175
 5991TIP3   OH239463   3.385   1.847  14.018  0.5793  0.2591  0.2383
 5991TIP3    H139464   3.417   1.778  13.959 -0.1533  0.3327 -0.2521
 5991TIP3    H239465   3.397   1.928  13.968  0.3471  0.3652  0.3558
 5992TIP3   OH239466   1.106   5.515   5.326  0.1425  0.0713  0.0564
 5992TIP3    H139467   1.118   5.457   5.251  0.1110 -1.3660  1.1530
 5992TIP3    H239468   1.018   5.552   5.313 -0.4277 -1.2461  0.1049
 5993TIP3   OH239469   1.418   3.091   4.831 -0.0931  0.5072 -0.2592
 5993TIP3    H139470   1.487   3.029   4.856  0.2629  0.3094 -1.6960
 5993TIP3    H239471   1.376   3.114   4.914  0.9579 -0.2466  0.5044
 5994TIP3   OH239472   1.549   2.851  16.901  0.2259 -0.6071 -0.1909
 5994TIP3    H139473   1.638   2.875  16.928  0.0005  0.1131 -0.0856
 5994TIP3    H239474   1.544   2.757  16.918  1.1392 -0.7539 -0.6687
 5995TIP3   OH239475   0.547   4.247  16.233  0.1740 -0.6222  0.2168
 5995TIP3    H139476   0.479   4.302  16.272 -0.1477 -0.2777 -0.8217
 5995TIP3    H239477   0.629   4.290  16.256  0.0797 -1.2982  1.8824
 5996TIP3   OH239478   1.433   3.188   0.847 -0.3391  0.2099 -0.1419
 5996TIP3    H139479   1.418   3.179   0.941  0.0389 -0.3670 -0.1377
 5996TIP3    H239480   1.408   3.104   0.810  1.0048 -0.0913 -0.3724
 5997TIP3   OH239481   4.196   0.888   5.840 -0.1413  0.0148  0.4820
 5997TIP3    H139482   4.119   0.920   5.793  0.8509 -0.2463 -1.3733
 5997TIP3    H239483   4.270   0.907   5.782  1.2602  0.6518  2.4133
 5998TIP3   OH239484   1.680   1.372   0.694  1.0623  0.1547 -0.5176
 5998TIP3    H139485   1.655   1.361   0.785  1.8477 -0.0510 -0.3201
 5998TIP3    H239486   1.605   1.415   0.653  0.8836  0.6483  0.3186
 5999TIP3   OH239487   6.452   3.481  12.995  0.3527 -0.2068  0.3700
 5999TIP3    H139488   6.431   3.495  12.903  0.5836  0.5194  0.4227
 5999TIP3    H239489   6.548   3.477  12.997  0.4586  1.8155  0.8389
 6000TIP3   OH239490   2.351   3.021  13.478  0.1249  0.5435  0.0784
 6000TIP3    H139491   2.298   3.101  13.476 -1.0552 -0.2236  0.4071
 6000TIP3    H239492   2.296   2.954  13.438  0.1633 -0.6550  1.9582
 6001TIP3   OH239493   5.528   2.246  10.428 -0.0522  0.1512 -1.0922
 6001TIP3    H139494   5.488   2.166  10.394 -1.4738  0.3193  0.1586
 6001TIP3    H239495   5.516   2.311  10.358 -0.1430 -0.3485 -1.5404
 6002TIP3   OH239496   0.975   6.452  13.876 -0.2468  0.1281  0.2318
 6002TIP3    H139497   0.895   6.481  13.920  0.0022  3.1139 -1.1434
 6002TIP3    H239498   1.043   6.510  13.909  0.8975 -0.8076 -0.4391
 6003TIP3   OH239499   3.168   5.758   6.003  0.5360  0.1274 -0.4921
 6003TIP3    H139500   3.224   5.686   6.031 -2.2203 -2.1719 -0.6509
 6003TIP3    H239501   3.137   5.797   6.085  2.1863  1.3156 -0.4052
 6004TIP3   OH239502   6.549   1.707  16.710 -0.2652 -0.1735 -0.5615
 6004TIP3    H139503   6.609   1.755  16.653 -0.6325 -0.7131 -1.4092
 6004TIP3    H239504   6.486   1.773  16.739  0.0986  0.1659 -0.5332
 6005TIP3   OH239505   3.181   2.872  13.743 -0.4303  0.0349  0.3551
 6005TIP3    H139506   3.161   2.910  13.657 -2.4296  1.3364  1.3509
 6005TIP3    H239507   3.269   2.902  13.763 -0.5138  0.9446 -0.5947
 6006TIP3   OH239508   6.184   4.034   6.268  0.9674  0.3141 -0.6836
 6006TIP3    H139509   6.161   3.995   6.353  0.6738  0.7624 -0.5561
 6006TIP3    H239510   6.278   4.017   6.258  0.9476  0.0291 -0.3916
 6007TIP3   OH239511   6.692   2.776  12.304 -0.0185 -0.3203  0.0207
 6007TIP3    H139512   6.624   2.833  12.340 -1.0192 -1.8733  0.6067
 6007TIP3    H239513   6.710   2.814  12.217 -0.7292  0.8323  0.3590
 6008TIP3   OH239514   6.528   4.960   5.048 -0.5337 -0.0094  0.0326
 6008TIP3    H139515   6.586   5.022   5.093  0.0134  0.1827 -0.9091
 6008TIP3    H239516   6.454   4.948   5.108  1.1190 -1.3165  1.8897
 6009TIP3   OH239517   3.645   1.879  16.905 -0.2496  0.6819  0.0965
 6009TIP3    H139518   3.557   1.916  16.892 -0.2715  1.3311  1.9394
 6009TIP3    H239519   3.700   1.927  16.843 -0.8386  1.6865  0.3319
 6010TIP3   OH239520   6.603   2.548   5.484  0.3415  0.0270 -0.2904
 6010TIP3    H139521   6.635   2.458   5.478 -2.9452 -1.2463  0.0745
 6010TIP3    H239522   6.552   2.561   5.404  0.0315  1.2323  0.0985
 6011TIP3   OH239523   5.592   5.180  16.094  0.5822  0.5809  0.7499
 6011TIP3    H139524   5.584   5.271  16.122 -0.7248  0.6715  0.0858
 6011TIP3    H239525   5.509   5.139  16.117  1.3993 -0.6296  1.6586
 6012TIP3   OH239526   1.183   5.843   4.818  0.0582  0.0004 -0.2868
 6012TIP3    H139527   1.194   5.938   4.809  1.2873 -0.2297 -1.2958
 6012TIP3    H239528   1.271   5.810   4.836 -0.2377 -1.0305 -0.7216
 6013TIP3   OH239529   1.986   3.063   0.299 -0.2631 -0.1969 -0.2263
 6013TIP3    H139530   2.005   3.050   0.206  1.3534  0.3527  0.0139
 6013TIP3    H239531   2.058   3.019   0.344 -0.2879  0.7579  0.7453
 6014TIP3   OH239532   3.549   3.922   1.835 -0.0872  0.0347 -0.6777
 6014TIP3    H139533   3.597   3.967   1.765  0.3159  0.2889 -0.2409
 6014TIP3    H239534   3.585   3.958   1.916  0.4020 -1.2459 -0.3179
 6015TIP3   OH239535   6.094   1.069   4.067  0.4839  0.4829  0.4063
 6015TIP3    H139536   6.179   1.025   4.065  0.6016  0.7673 -0.7093
 6015TIP3    H239537   6.061   1.053   4.156  0.6087 -1.6899  0.0833
 6016TIP3   OH239538   2.794   3.043   6.420  0.3007 -0.0061  0.3500
 6016TIP3    H139539   2.738   2.970   6.393  0.8238 -0.1742 -0.2941
 6016TIP3    H239540   2.733   3.112   6.445 -0.1972 -0.3536  0.0991
 6017TIP3   OH239541   0.961   1.043  12.424 -0.2705  0.1563 -0.4154
 6017TIP3    H139542   0.924   1.028  12.511  0.0263  0.1955 -0.2825
 6017TIP3    H239543   0.960   1.138  12.412  0.5583  0.2090 -0.0740
 6018TIP3   OH239544   0.550   3.022   2.518  0.3405  0.3270  0.3764
 6018TIP3    H139545   0.484   2.955   2.500  2.0543 -1.5872  1.0795
 6018TIP3    H239546   0.571   3.011   2.611  3.0310 -0.4126 -0.2649
 6019TIP3   OH239547   4.767   6.462  16.690  0.5828  0.7402  0.1017
 6019TIP3    H139548   4.763   6.467  16.785 -1.6183 -2.4928  0.2608
 6019TIP3    H239549   4.857   6.486  16.668  0.6760  3.1016  2.8398
 6020TIP3   OH239550   3.047   2.034   5.414  0.2969 -0.5210  0.2125
 6020TIP3    H139551   2.964   2.001   5.449  1.4180 -5.3592 -1.3387
 6020TIP3    H239552   3.107   2.035   5.489  0.0266 -1.1877  0.4333
 6021TIP3   OH239553   0.926   0.761  12.901 -0.0351  0.2178 -0.4126
 6021TIP3    H139554   1.019   0.784  12.902  0.1985 -0.7676  0.1863
 6021TIP3    H239555   0.882   0.844  12.881  0.8919  0.9243  0.4113
 6022TIP3   OH239556   2.896   1.115   1.176  0.1836  0.1242 -0.1603
 6022TIP3    H139557   2.943   1.074   1.249  0.5037  0.9487  0.1033
 6022TIP3    H239558   2.957   1.108   1.102 -0.0002 -0.3981 -0.2651
 6023TIP3   OH239559   0.899   1.278  16.525 -0.6208  0.1155  0.2409
 6023TIP3    H139560   0.892   1.183  16.512  1.3228 -0.0928  0.4578
 6023TIP3    H239561   0.855   1.295  16.608 -2.4695 -0.3302 -0.6156
 6024TIP3   OH239562   5.220   1.358   3.905 -0.0174 -0.0361 -0.8256
 6024TIP3    H139563   5.289   1.418   3.876  0.3227  0.2650  0.5731
 6024TIP3    H239564   5.226   1.284   3.844  1.2262  0.2091 -1.0251
 6025TIP3   OH239565   2.005   2.823  16.031  0.1461 -0.4468 -0.1324
 6025TIP3    H139566   2.100   2.808  16.041 -0.0231 -0.4553  1.6972
 6025TIP3    H239567   1.967   2.735  16.031  0.1815 -0.4634 -1.3974
 6026TIP3   OH239568   3.230   1.649   3.902  0.6315 -0.3258  0.2891
 6026TIP3    H139569   3.239   1.627   3.810 -0.3100  1.7560 -0.3378
 6026TIP3    H239570   3.318   1.676   3.929  0.7710 -0.3283 -0.1642
 6027TIP3   OH239571   3.184   4.586  11.969  0.1944 -0.4047  0.0033
 6027TIP3    H139572   3.137   4.560  12.048  0.7694  0.8591  0.7684
 6027TIP3    H239573   3.192   4.505  11.918 -0.5931 -1.1278  1.0098
 6028TIP3   OH239574   4.935   0.795   4.501  0.1492  0.6264 -0.2849
 6028TIP3    H139575   4.913   0.758   4.587  0.2684 -1.2868 -1.0363
 6028TIP3    H239576   5.024   0.829   4.511  0.5471 -0.4881  0.0982
 6029TIP3   OH239577   6.086   4.357   0.806 -0.1577 -0.1094  0.2228
 6029TIP3    H139578   6.085   4.440   0.759  0.0355  0.2864  0.9208
 6029TIP3    H239579   5.993   4.338   0.821 -0.1557  0.6164  1.1830
 6030TIP3   OH239580   6.727   5.394   3.814  0.4556  0.4599 -0.0555
 6030TIP3    H139581   6.816   5.360   3.825  1.2097  2.0251 -1.1155
 6030TIP3    H239582   6.727   5.432   3.726 -0.7458  1.9852  0.5879
 6031TIP3   OH239583   5.050   0.924   3.729  0.5169 -0.1825 -0.2381
 6031TIP3    H139584   5.101   0.945   3.807  0.7460  1.2948 -0.7670
 6031TIP3    H239585   5.107   0.869   3.676 -0.3982 -2.9582  1.5534
 6032TIP3   OH239586   0.846   6.410  17.220  0.4319 -0.2374 -0.3295
 6032TIP3    H139587   0.853   6.503  17.197 -0.2767 -0.0735  0.1174
 6032TIP3    H239588   0.757   6.386  17.196  0.1889 -0.4688  0.7829
 6033TIP3   OH239589   4.740   0.494  12.846  0.2643 -0.0326 -0.3143
 6033TIP3    H139590   4.792   0.468  12.922 -0.4561 -0.1488  0.1475
 6033TIP3    H239591   4.663   0.537  12.884  0.6529  1.3146 -1.0254
 6034TIP3   OH239592   5.171   0.881  11.090 -0.0247  0.1382 -0.3927
 6034TIP3    H139593   5.217   0.797  11.093  0.6103  0.4966 -0.1832
 6034TIP3    H239594   5.155   0.903  11.182 -1.9998 -0.7424 -0.4959
 6035TIP3   OH239595   0.880   0.541  15.572  0.3763  0.5593  0.3581
 6035TIP3    H139596   0.890   0.554  15.478 -0.0483  1.0830  0.3839
 6035TIP3    H239597   0.957   0.582  15.611  1.4834 -1.2547  0.1253
 6036TIP3   OH239598   4.600   1.697  16.095  0.0788 -0.2408  0.2798
 6036TIP3    H139599   4.616   1.784  16.131  0.0433 -0.2659  0.3562
 6036TIP3    H239600   4.516   1.704  16.051  0.6901  0.1186 -0.8512
 6037TIP3   OH239601   3.730   4.340  15.487  0.5947  0.4269 -0.5361
 6037TIP3    H139602   3.795   4.385  15.542  0.4898 -0.5446  0.4105
 6037TIP3    H239603   3.777   4.263  15.454  0.2444  0.2857 -0.7021
 6038TIP3   OH239604   6.773   0.978  16.830 -0.5001  0.2113 -0.6882
 6038TIP3    H139605   6.776   1.072  16.813  0.3232  0.3931  0.4243
 6038TIP3    H239606   6.707   0.967  16.898  0.0425  0.0953 -0.1699
 6039TIP3   OH239607   3.348   4.299  16.558  0.0698 -0.0118 -0.1227
 6039TIP3    H139608   3.301   4.333  16.634 -0.9923 -0.0001 -0.7823
 6039TIP3    H239609   3.280   4.274  16.496  0.9151 -0.5360 -0.8566
 6040TIP3   OH239610   6.631   3.476  13.616  0.1265 -1.3820  0.3839
 6040TIP3    H139611   6.676   3.530  13.550 -3.5692  0.5991 -0.6642
 6040TIP3    H239612   6.671   3.503  13.699  0.6947  0.5212 -0.4701
 6041TIP3   OH239613   5.886   6.228   4.109 -0.2200 -0.2539  0.0805
 6041TIP3    H139614   5.802   6.204   4.149 -1.5151  3.0364 -0.4650
 6041TIP3    H239615   5.938   6.263   4.182 -0.2285 -0.0948  0.0113
 6042TIP3   OH239616   2.417   5.869   2.537 -0.0927 -0.0480  0.1819
 6042TIP3    H139617   2.361   5.943   2.517  0.2000 -0.0189 -0.5544
 6042TIP3    H239618   2.425   5.870   2.632 -0.2943  0.7132  0.1957
 6043TIP3   OH239619   4.029   1.043  16.402  0.4541 -0.4761  0.4416
 6043TIP3    H139620   4.087   0.982  16.357  0.4123 -1.0026  1.0845
 6043TIP3    H239621   3.981   1.088  16.332  2.4637  0.8087 -0.1601
 6044TIP3   OH239622   5.833   3.685   0.139  0.1316 -0.9527 -0.0237
 6044TIP3    H139623   5.904   3.629   0.108  0.6848  1.2791 -3.0279
 6044TIP3    H239624   5.814   3.742   0.065 -1.9722  1.2905  2.1668
 6045TIP3   OH239625   6.755   0.616   4.973 -0.0004 -0.2466  0.3043
 6045TIP3    H139626   6.766   0.528   4.937  2.4816  0.9872 -2.0859
 6045TIP3    H239627   6.835   0.631   5.024 -1.1493  0.0296  2.0625
 6046TIP3   OH239628   5.425   6.386  14.511  0.8844  0.0089 -0.6066
 6046TIP3    H139629   5.340   6.428  14.520  1.1493  0.5010 -0.3619
 6046TIP3    H239630   5.466   6.396  14.597  2.0046  1.5818 -1.3055
 6047TIP3   OH239631   3.142   5.915  14.893  0.1077  0.0563  0.4220
 6047TIP3    H139632   3.211   5.912  14.827 -0.5652 -0.4098 -0.2645
 6047TIP3    H239633   3.153   5.834  14.943  0.8731  0.5999  1.1583
 6048TIP3   OH239634   3.923   1.686  14.613 -0.4856  0.0850 -0.4536
 6048TIP3    H139635   4.015   1.698  14.589  0.7131  0.3435  3.9185
 6048TIP3    H239636   3.902   1.598  14.582  2.2029 -1.2061  1.2275
 6049TIP3   OH239637   4.830   6.567   0.641 -0.1877  0.6167  0.4387
 6049TIP3    H139638   4.800   6.551   0.552 -1.7606 -0.9899  1.2221
 6049TIP3    H239639   4.754   6.606   0.685 -0.6419 -1.9407  2.0105
 6050TIP3   OH239640   5.058   3.403  10.595  0.1873  0.8188 -0.1926
 6050TIP3    H139641   5.067   3.326  10.539 -0.4805  0.9447 -0.4707
 6050TIP3    H239642   5.148   3.422  10.623  0.2111 -0.8413  0.9242
 6051TIP3   OH239643   3.580   4.508  16.518  0.1454  0.1922 -0.1336
 6051TIP3    H139644   3.635   4.587  16.517  0.0037  0.2874 -0.5361
 6051TIP3    H239645   3.497   4.537  16.557 -0.3240  0.5250 -1.3681
 6052TIP3   OH239646   3.810   2.424   0.607 -0.5578 -0.3838  0.3067
 6052TIP3    H139647   3.804   2.501   0.663  0.5361  0.5422 -0.8353
 6052TIP3    H239648   3.727   2.424   0.558 -0.3653  0.3211 -0.0208
 6053TIP3   OH239649   0.764   0.857  15.577 -0.6566 -0.2184 -0.2862
 6053TIP3    H139650   0.845   0.891  15.538 -0.6174  1.6968  1.3660
 6053TIP3    H239651   0.789   0.835  15.667 -1.1498 -2.9639 -0.7703
 6054TIP3   OH239652   4.578   0.778   3.565  0.5379  0.2401 -0.8368
 6054TIP3    H139653   4.648   0.792   3.628  1.9090 -2.0555 -1.7972
 6054TIP3    H239654   4.504   0.749   3.618  1.3471 -0.5829 -0.1399
 6055TIP3   OH239655   3.739   3.370   2.556  0.3771 -0.0587  0.1595
 6055TIP3    H139656   3.778   3.304   2.499  1.7519 -0.3930  1.4589
 6055TIP3    H239657   3.775   3.351   2.643  0.5508  2.2167  0.6163
 6056TIP3   OH239658   2.522   5.517  11.745 -0.1640  0.6974 -0.6528
 6056TIP3    H139659   2.615   5.494  11.750 -0.1953  0.8512  0.7624
 6056TIP3    H239660   2.487   5.493  11.831 -1.2535  1.4309 -0.8904
 6057TIP3   OH239661   1.728   6.517   5.083 -0.2807  0.3702  0.0797
 6057TIP3    H139662   1.696   6.593   5.036 -0.0547  1.0541  1.0168
 6057TIP3    H239663   1.657   6.452   5.074  0.0049  0.2874 -1.6498
 6058TIP3   OH239664   1.130   6.375   2.063 -0.6970 -0.0485 -0.1324
 6058TIP3    H139665   1.129   6.464   2.098 -2.7223  0.7095 -1.9670
 6058TIP3    H239666   1.210   6.370   2.011 -1.7991  1.5551 -2.0349
 6059TIP3   OH239667   4.392   2.226  11.758 -0.2386  0.8170  0.5469
 6059TIP3    H139668   4.410   2.207  11.666 -2.7700  0.4356  0.1137
 6059TIP3    H239669   4.376   2.320  11.760 -4.0635  0.2474 -0.1129
 6060TIP3   OH239670   2.891   2.300   3.025  0.0384 -0.0204 -0.4208
 6060TIP3    H139671   2.917   2.390   3.003 -0.8533 -0.5218 -3.8422
 6060TIP3    H239672   2.968   2.248   3.006  0.7945  0.0676  2.2653
 6061TIP3   OH239673   2.067   0.687   4.974 -0.3211  0.6905  0.1044
 6061TIP3    H139674   1.979   0.650   4.969  0.4720 -1.6016  2.3433
 6061TIP3    H239675   2.092   0.701   4.883 -2.3465 -0.1956 -0.6220
 6062TIP3   OH239676   3.065   5.617   2.014  0.1240 -0.1871 -1.5022
 6062TIP3    H139677   2.992   5.656   1.966 -1.6965  0.7382  1.8588
 6062TIP3    H239678   3.117   5.692   2.043 -0.6429 -0.4901  0.7474
 6063TIP3   OH239679   6.012   6.345  11.732 -0.0072 -0.2377 -0.0131
 6063TIP3    H139680   5.960   6.405  11.785  2.5123  0.4839  1.7652
 6063TIP3    H239681   5.948   6.289  11.688 -2.2380  0.1083  2.6635
 6064TIP3   OH239682   6.459   3.342   3.573 -0.2592 -0.1908 -0.2612
 6064TIP3    H139683   6.393   3.368   3.508  0.6767  1.4133 -0.5975
 6064TIP3    H239684   6.453   3.246   3.577 -1.1097 -0.2169 -1.8853
 6065TIP3   OH239685   0.019   2.152   2.094 -0.0339  0.0527 -0.0631
 6065TIP3    H139686   0.015   2.085   2.026  0.0897 -2.7084  2.5596
 6065TIP3    H239687  -0.072   2.167   2.119  0.0313 -0.0849  0.2572
 6066TIP3   OH239688   2.804   6.706   6.434  0.1467  0.5447 -0.0325
 6066TIP3    H139689   2.811   6.707   6.529  0.3193 -1.3192 -0.0080
 6066TIP3    H239690   2.711   6.688   6.417  0.7518 -2.7784 -0.1578
 6067TIP3   OH239691   6.669   2.711   5.203 -0.4004 -0.1430 -0.5097
 6067TIP3    H139692   6.634   2.776   5.142 -0.7555  0.6721  0.5584
 6067TIP3    H239693   6.607   2.709   5.275 -0.6715 -2.0629 -0.7802
 6068TIP3   OH239694   6.646   6.620   6.016 -0.2286 -0.4637 -0.3502
 6068TIP3    H139695   6.701   6.657   6.084 -1.2972  0.2880  0.1254
 6068TIP3    H239696   6.613   6.696   5.968 -0.4250 -0.9313 -0.9657
 6069TIP3   OH239697   4.265   1.802   6.275 -0.8214 -0.3143  0.0354
 6069TIP3    H139698   4.291   1.833   6.361 -1.9811  3.3727 -0.8617
 6069TIP3    H239699   4.214   1.723   6.292 -2.7784  1.4884  2.9091
 6070TIP3   OH239700   5.331   1.865   3.033 -0.0270  0.4075 -0.5316
 6070TIP3    H139701   5.314   1.778   3.067 -0.3937  0.3568 -0.8387
 6070TIP3    H239702   5.387   1.851   2.956  1.1198  0.5489  0.2711
 6071TIP3   OH239703   5.501   1.573  17.041  0.3307  0.3406  0.1602
 6071TIP3    H139704   5.509   1.661  17.006 -0.2033  0.9735  1.6045
 6071TIP3    H239705   5.515   1.516  16.965 -0.9311  1.6684 -1.1004
 6072TIP3   OH239706   3.307   3.620   3.237 -0.3233 -0.1509  0.5799
 6072TIP3    H139707   3.293   3.684   3.167 -1.0957 -1.1743 -0.2065
 6072TIP3    H239708   3.402   3.608   3.240 -0.1235  1.4265  1.0976
 6073TIP3   OH239709   3.820   1.150  16.209  0.4541 -0.5696 -0.5835
 6073TIP3    H139710   3.745   1.178  16.262 -0.9297 -0.4604 -2.5126
 6073TIP3    H239711   3.838   1.226  16.152  3.4092  0.1999  1.2819
 6074TIP3   OH239712   1.974   6.384   2.526  0.0063  0.1921 -0.9086
 6074TIP3    H139713   2.028   6.444   2.475  0.5711  1.2517  0.8886
 6074TIP3    H239714   1.989   6.409   2.617 -0.4875 -2.0502 -0.1623
 6075TIP3   OH239715   4.450   1.093   4.207  0.1729 -0.5004 -0.8166
 6075TIP3    H139716   4.411   1.101   4.121 -0.8016  1.4876 -0.2094
 6075TIP3    H239717   4.544   1.086   4.190 -0.1170 -1.4837 -2.0823
 6076TIP3   OH239718   4.175   4.239  11.419 -0.1326 -0.4420  0.6075
 6076TIP3    H139719   4.178   4.184  11.340  1.1773 -0.2621  0.5129
 6076TIP3    H239720   4.109   4.198  11.474 -0.2288 -1.2526 -0.0961
 6077TIP3   OH239721   5.361   5.856   4.701 -0.1450  0.0190 -0.3859
 6077TIP3    H139722   5.442   5.820   4.737  0.8982  2.4990 -0.1599
 6077TIP3    H239723   5.311   5.780   4.672  2.8256 -1.4727 -1.6967
 6078TIP3   OH239724   6.107   1.597  12.434 -0.7294  0.0665 -0.5934
 6078TIP3    H139725   6.038   1.602  12.368 -0.6965  1.2160 -0.5415
 6078TIP3    H239726   6.091   1.514  12.479 -0.6130 -0.8538 -2.1994
 6079TIP3   OH239727   2.954   2.359  15.978 -0.8926  0.8820 -0.0443
 6079TIP3    H139728   2.996   2.346  15.892 -1.1935  0.6366 -0.1550
 6079TIP3    H239729   2.919   2.273  16.001 -1.5524  1.1411 -0.0671
 6080TIP3   OH239730   5.246   3.009  15.874 -0.6529 -0.3454 -0.1107
 6080TIP3    H139731   5.269   2.957  15.952 -0.8632  0.9187  0.7952
 6080TIP3    H239732   5.194   3.081  15.908 -2.0818 -0.6489 -1.6347
 6081TIP3   OH239733   1.544   1.280  17.109 -0.2543  0.5993 -0.2917
 6081TIP3    H139734   1.559   1.264  17.203 -1.3095  0.2848 -0.1728
 6081TIP3    H239735   1.457   1.244  17.093 -0.2141  0.9731 -1.3265
 6082TIP3   OH239736   2.367   6.340  16.329 -0.2050 -0.4230 -0.1491
 6082TIP3    H139737   2.396   6.250  16.343  3.0138  0.4063 -1.1050
 6082TIP3    H239738   2.362   6.377  16.417 -1.0184 -1.3845  0.2139
 6083TIP3   OH239739   0.813   2.719   2.399  0.1432  0.2843  0.1288
 6083TIP3    H139740   0.845   2.631   2.382 -1.1574 -0.2788  0.5053
 6083TIP3    H239741   0.819   2.729   2.494  1.1906  0.9590 -0.0073
 6084TIP3   OH239742   4.501   2.375   4.802  0.1067 -0.4295  0.2613
 6084TIP3    H139743   4.513   2.426   4.722  1.1031  0.6582  1.0919
 6084TIP3    H239744   4.481   2.286   4.771 -1.2334  0.3577 -1.1892
 6085TIP3   OH239745   0.312   2.190  15.557  0.4347  0.2529  0.2021
 6085TIP3    H139746   0.365   2.217  15.482  2.0750 -0.3431  1.1369
 6085TIP3    H239747   0.370   2.136  15.610 -0.9635 -0.0130  1.4972
 6086TIP3   OH239748   4.750   6.602   2.304  0.1359 -0.8174  0.1291
 6086TIP3    H139749   4.844   6.591   2.317  0.0628 -1.4419  0.1353
 6086TIP3    H239750   4.734   6.568   2.216  0.2755  1.3983 -0.7785
 6087TIP3   OH239751   3.458   0.131  12.386 -0.1976 -0.0076 -0.3212
 6087TIP3    H139752   3.374   0.106  12.348 -0.8217  0.5160  0.6724
 6087TIP3    H239753   3.435   0.167  12.472  0.9698  0.8645 -0.3652
 6088TIP3   OH239754   1.619   4.370   3.391 -0.0402  0.0952 -0.1209
 6088TIP3    H139755   1.594   4.279   3.379 -0.9388  0.3148  0.0798
 6088TIP3    H239756   1.537   4.419   3.391  0.3731  0.8210  0.5063
 6089TIP3   OH239757   3.401   0.328   6.438 -0.3711 -0.5801 -0.2896
 6089TIP3    H139758   3.321   0.287   6.474  0.4748 -1.7468  0.3162
 6089TIP3    H239759   3.382   0.422   6.439 -1.7393 -0.8358 -0.1519
 6090TIP3   OH239760   4.794   1.885  10.498  0.3078 -0.4087  0.3473
 6090TIP3    H139761   4.792   1.970  10.541 -2.9405  0.1537 -0.7655
 6090TIP3    H239762   4.781   1.905  10.405 -0.0897 -2.0864  0.0285
 6091TIP3   OH239763   6.305   6.093  12.296  0.5918  0.0657 -0.0306
 6091TIP3    H139764   6.212   6.101  12.318  0.7137 -1.0998  0.9581
 6091TIP3    H239765   6.306   6.040  12.216  0.3479  1.0525 -0.6928
 6092TIP3   OH239766   2.718   2.362  15.248  0.1740 -0.3336  0.2069
 6092TIP3    H139767   2.674   2.278  15.236 -1.0088  0.2321  0.5607
 6092TIP3    H239768   2.741   2.390  15.159  1.2492 -1.3747  0.1453
 6093TIP3   OH239769   4.865   4.928   5.015  0.9237  0.2990  0.0996
 6093TIP3    H139770   4.893   4.908   5.105  0.3273  2.7395  0.8823
 6093TIP3    H239771   4.879   4.847   4.967 -0.3308 -1.5852  2.7778
 6094TIP3   OH239772   3.961   1.154  11.770 -0.2183  0.5115 -0.0849
 6094TIP3    H139773   3.883   1.143  11.825 -0.6065  3.2105 -0.0299
 6094TIP3    H239774   4.035   1.142  11.831 -0.6371  1.5346  0.6483
 6095TIP3   OH239775   6.791   3.218  17.279  0.5388 -0.2987 -0.4320
 6095TIP3    H139776   6.737   3.256  17.349 -0.3811 -0.2872 -1.1363
 6095TIP3    H239777   6.754   3.131  17.265 -0.1289  0.2037 -1.8174
 6096TIP3   OH239778   1.615   5.529   2.054  0.2006  0.1089 -0.2767
 6096TIP3    H139779   1.612   5.476   1.975  0.5139  0.4922 -0.5524
 6096TIP3    H239780   1.688   5.590   2.039  0.8025 -0.3668  0.6567
 6097TIP3   OH239781   0.811   5.938  16.842 -0.0840 -0.2181 -0.3881
 6097TIP3    H139782   0.743   5.907  16.782 -0.0509 -0.0841 -0.4962
 6097TIP3    H239783   0.775   5.925  16.929 -1.7086  3.1700 -0.4832
 6098TIP3   OH239784   0.991   5.990  13.698  0.2985 -0.4312 -0.1211
 6098TIP3    H139785   0.945   6.032  13.771 -1.4612 -2.1678 -0.1766
 6098TIP3    H239786   0.990   5.896  13.720  2.0521 -0.7026 -1.1194
 6099TIP3   OH239787   5.168   4.575  16.985 -0.1124 -0.0271  0.1490
 6099TIP3    H139788   5.169   4.633  16.910  0.1365  1.0441  0.9694
 6099TIP3    H239789   5.154   4.633  17.060 -0.6044 -1.1008  0.9037
 6100TIP3   OH239790   5.637   5.997  15.367 -0.1098  0.1955 -0.4662
 6100TIP3    H139791   5.617   6.037  15.451 -0.6579 -0.3725 -0.3220
 6100TIP3    H239792   5.567   6.027  15.309 -0.6335 -0.6987 -0.3067
 6101TIP3   OH239793   3.982   5.108   4.639  0.4889 -0.3786  0.2409
 6101TIP3    H139794   3.966   5.018   4.613 -0.5572  0.2514 -1.3494
 6101TIP3    H239795   3.989   5.104   4.735  2.0909 -2.3677  0.0850
 6102TIP3   OH239796   1.912   5.957   1.883  0.3539  0.0128 -0.4165
 6102TIP3    H139797   1.927   6.046   1.851 -0.7045  0.2746 -0.1916
 6102TIP3    H239798   1.977   5.904   1.837  2.6352  1.2658  1.2571
 6103TIP3   OH239799   3.694   2.004   0.724  0.1665 -0.9735  0.2794
 6103TIP3    H139800   3.728   1.936   0.665 -0.8632 -3.0708  2.0456
 6103TIP3    H239801   3.601   1.984   0.733 -0.7791  2.3506 -1.3427
 6104TIP3   OH239802   3.331   2.433  12.642 -0.4628  0.2911  0.1015
 6104TIP3    H139803   3.237   2.431  12.661 -0.5715  1.5886 -0.2781
 6104TIP3    H239804   3.369   2.370  12.704 -1.8127 -1.8683 -1.1884
 6105TIP3   OH239805   4.198   6.641   0.875  0.7199 -0.1337 -0.0424
 6105TIP3    H139806   4.241   6.682   0.949  0.2570 -0.6427  0.5107
 6105TIP3    H239807   4.262   6.578   0.842  1.1424  0.4918 -0.4316
 6106TIP3   OH239808   0.823   5.772  15.379 -0.3080 -0.5038 -0.1292
 6106TIP3    H139809   0.770   5.825  15.319 -3.0234 -1.3912  1.3827
 6106TIP3    H239810   0.824   5.822  15.461  1.3533 -0.4358 -0.1740
 6107TIP3   OH239811   6.211   0.286  16.622 -0.4442  0.1995 -0.4306
 6107TIP3    H139812   6.286   0.231  16.645 -0.5052  0.8520  1.4759
 6107TIP3    H239813   6.250   0.367  16.590 -0.2493  1.3123  2.4399
 6108TIP3   OH239814   4.303   0.833   3.023 -0.6519  0.2452 -0.3381
 6108TIP3    H139815   4.233   0.872   2.970  1.0064  2.4514 -0.9286
 6108TIP3    H239816   4.354   0.782   2.961 -0.0039  1.0366 -0.4573
 6109TIP3   OH239817   2.890   4.570  12.394  0.0103  0.0959  0.6100
 6109TIP3    H139818   2.958   4.620  12.348 -0.4803 -0.2793 -0.5459
 6109TIP3    H239819   2.820   4.634  12.410  0.2830  0.2851  1.0457
 6110TIP3   OH239820   1.221   1.299  12.152 -0.4967  0.2222  0.0241
 6110TIP3    H139821   1.217   1.282  12.058  0.7543 -1.3497  0.2175
 6110TIP3    H239822   1.244   1.214  12.191 -0.0571  1.0548  1.6603
 6111TIP3   OH239823   5.899   5.480   2.544  0.1409  0.5865  0.6190
 6111TIP3    H139824   5.960   5.480   2.618  0.7205  1.4370  0.1490
 6111TIP3    H239825   5.888   5.572   2.522 -0.2020  0.3501 -0.2076
 6112TIP3   OH239826   5.942   0.578  16.458 -0.6581 -0.2495 -0.2495
 6112TIP3    H139827   5.862   0.545  16.416 -1.1804  0.8547 -0.1370
 6112TIP3    H239828   5.931   0.558  16.551 -1.6981  1.6308  0.0579
 6113TIP3   OH239829   2.917   0.278   5.807 -0.2808 -0.4560 -0.2444
 6113TIP3    H139830   2.891   0.196   5.764  0.5444 -1.4592  1.1280
 6113TIP3    H239831   2.962   0.250   5.887  0.6859  1.3252 -0.1301
 6114TIP3   OH239832   2.198   5.482   0.949 -0.3132 -0.2226  0.5178
 6114TIP3    H139833   2.291   5.462   0.937 -0.5824 -1.2508  0.0554
 6114TIP3    H239834   2.188   5.571   0.916  0.6093  0.0966  1.0770
 6115TIP3   OH239835   3.036   3.857  13.321  0.0758 -0.0206  0.6631
 6115TIP3    H139836   2.977   3.881  13.392  0.2357  0.9454  0.4671
 6115TIP3    H239837   3.124   3.877  13.354  0.2955 -1.3569  0.9138
 6116TIP3   OH239838   1.343   1.679   2.123  0.2163 -0.2137 -0.1059
 6116TIP3    H139839   1.293   1.661   2.044 -1.4240  1.6621  0.4677
 6116TIP3    H239840   1.430   1.702   2.091  0.1020 -1.2756 -1.2382
 6117TIP3   OH239841   2.113   4.732  16.643 -0.0654 -0.3020  0.0981
 6117TIP3    H139842   2.102   4.762  16.553 -1.4992  2.2947  1.0871
 6117TIP3    H239843   2.208   4.728  16.656  0.1460 -0.5862 -1.4558
 6118TIP3   OH239844   4.024   1.779   2.358 -0.5300 -0.1402  0.0284
 6118TIP3    H139845   4.014   1.686   2.381 -0.6950 -0.5109 -1.5000
 6118TIP3    H239846   4.068   1.818   2.434 -0.2350 -1.5184  0.5759
 6119TIP3   OH239847   6.412   3.536   2.607  0.4205 -0.3458  0.3711
 6119TIP3    H139848   6.456   3.454   2.584  0.1237 -0.2904 -0.4189
 6119TIP3    H239849   6.482   3.598   2.622  0.6278 -0.2728 -0.8198
 6120TIP3   OH239850   3.395   3.802  13.160  0.1284  0.2551  0.0628
 6120TIP3    H139851   3.352   3.723  13.128  1.2497  0.0370 -0.9360
 6120TIP3    H239852   3.345   3.826  13.238  0.4757 -2.0894  1.0667
 6121TIP3   OH239853   0.004   3.553   0.267  0.2612 -0.8818  0.1173
 6121TIP3    H139854   0.080   3.498   0.251  0.7408  0.0727 -0.9419
 6121TIP3    H239855  -0.032   3.571   0.180 -0.0869  0.1902  0.4717
 6122TIP3   OH239856   5.590   5.159   2.885  0.8177  0.4507  0.4590
 6122TIP3    H139857   5.575   5.238   2.936 -1.0522 -0.2510  1.0499
 6122TIP3    H239858   5.600   5.189   2.795  1.6880  1.4815  0.8898
 6123TIP3   OH239859   5.822   4.455   4.256 -0.2270  0.0357  0.0764
 6123TIP3    H139860   5.741   4.466   4.305  0.1610  0.3911  0.6451
 6123TIP3    H239861   5.841   4.541   4.220 -0.3543 -0.1571 -0.4548
 6124TIP3   OH239862   2.347   2.075  10.354 -0.2532 -0.5690 -0.3223
 6124TIP3    H139863   2.332   2.168  10.373 -0.0976 -0.4443 -0.8001
 6124TIP3    H239864   2.339   2.032  10.439 -0.7442 -0.1721 -0.1599
 6125TIP3   OH239865   3.539   5.618   0.685  1.1535 -0.2792  0.5390
 6125TIP3    H139866   3.481   5.587   0.615  0.0783 -0.0453  1.3080
 6125TIP3    H239867   3.620   5.568   0.673  0.4244 -1.3762  0.0813
 6126TIP3   OH239868   2.189   2.199   4.661 -0.7142  0.5959  0.5920
 6126TIP3    H139869   2.269   2.241   4.694 -1.3842  1.6619  0.8950
 6126TIP3    H239870   2.218   2.112   4.633  0.1409  0.1684  2.6903
 6127TIP3   OH239871   5.900   5.878   3.967 -0.2689  0.3588  0.4044
 6127TIP3    H139872   5.880   5.789   3.938 -0.4612  0.6203 -0.2857
 6127TIP3    H239873   5.815   5.914   3.992 -0.0386 -0.0359  1.8134
 6128TIP3   OH239874   2.243   1.300  16.676 -0.1284  0.1238 -0.0484
 6128TIP3    H139875   2.272   1.305  16.585  0.4465  0.8989  0.1699
 6128TIP3    H239876   2.278   1.217  16.708  0.2230  0.1550 -0.3497
 6129TIP3   OH239877   4.060   1.118   4.271 -0.2935  0.1913 -0.4780
 6129TIP3    H139878   4.091   1.174   4.200 -0.8290 -1.8470 -2.3794
 6129TIP3    H239879   4.139   1.071   4.300 -0.1845  0.6053 -0.0966
 6130TIP3   OH239880   3.302   2.309  15.538  0.5327  0.1041  0.3928
 6130TIP3    H139881   3.344   2.225  15.517 -0.3836 -0.3075  0.1744
 6130TIP3    H239882   3.297   2.355  15.454 -1.9937 -1.0223 -0.1298
 6131TIP3   OH239883   5.714   5.452  11.856  0.7645 -0.6210 -0.2701
 6131TIP3    H139884   5.642   5.417  11.910  0.1409  0.3231 -0.4850
 6131TIP3    H239885   5.788   5.459  11.917 -0.4626  2.2777  0.9857
 6132TIP3   OH239886   6.328   4.532   2.453 -1.1485  0.0146 -0.0549
 6132TIP3    H139887   6.375   4.616   2.457 -0.3800 -0.3553 -1.1739
 6132TIP3    H239888   6.389   4.469   2.492 -0.3092 -0.6362 -2.3594
 6133TIP3   OH239889   4.024   2.166   5.615  0.0882  0.1466 -0.1419
 6133TIP3    H139890   4.081   2.234   5.579  1.1502 -0.3710  0.5361
 6133TIP3    H239891   3.965   2.213   5.673  1.7528  0.3401  1.4513
 6134TIP3   OH239892   0.087   6.726  15.015 -0.4045 -0.0429  0.2233
 6134TIP3    H139893   0.156   6.692  14.958 -1.9562 -2.2454 -0.3736
 6134TIP3    H239894   0.026   6.653  15.026 -1.4345  1.1240  2.6838
 6135TIP3   OH239895   1.523   2.529  12.223 -0.3585  0.4440 -0.1685
 6135TIP3    H139896   1.571   2.605  12.257 -1.5881  1.0468  0.2282
 6135TIP3    H239897   1.446   2.522  12.278  0.4861 -2.0341  0.7460
 6136TIP3   OH239898   1.073   4.102  11.145  0.6372 -0.6317 -0.6387
 6136TIP3    H139899   1.116   4.032  11.095  1.3495 -1.3969  1.0030
 6136TIP3    H239900   1.006   4.136  11.086  1.1436 -1.8246 -1.9359
 6137TIP3   OH239901   4.627   0.846  12.877 -0.5584 -0.0198 -0.1473
 6137TIP3    H139902   4.660   0.840  12.967 -0.5057 -0.9486 -0.2248
 6137TIP3    H239903   4.560   0.777  12.873 -1.0235  0.4649 -0.6198
 6138TIP3   OH239904   2.770   5.559  12.942 -0.5728 -0.8396 -0.5957
 6138TIP3    H139905   2.802   5.648  12.957  0.2227 -1.1197 -0.6026
 6138TIP3    H239906   2.715   5.540  13.018 -0.7631 -0.3372 -0.6067
 6139TIP3   OH239907   3.324   5.331  13.145 -0.4544 -0.2705 -0.2232
 6139TIP3    H139908   3.412   5.296  13.161 -0.1554  1.1938  1.3906
 6139TIP3    H239909   3.333   5.425  13.155 -2.0900 -0.0539 -0.6689
 6140TIP3   OH239910   4.759   0.934   5.406  0.0809 -0.4994 -0.3236
 6140TIP3    H139911   4.791   0.850   5.373 -1.1193 -1.0859 -0.0371
 6140TIP3    H239912   4.671   0.942   5.369 -0.3095  0.0206  0.7061
 6141TIP3   OH239913   5.481   2.857  13.327 -0.0030  0.3132 -0.7081
 6141TIP3    H139914   5.554   2.871  13.388 -1.0843 -0.1709  0.7257
 6141TIP3    H239915   5.514   2.794  13.264  0.8467  0.1599 -0.1233
 6142TIP3   OH239916   2.262   5.451  16.760  0.1610  0.1619 -0.2832
 6142TIP3    H139917   2.263   5.546  16.772 -0.6535  0.4120 -2.0114
 6142TIP3    H239918   2.255   5.416  16.848  1.6978  1.6733  0.4634
 6143TIP3   OH239919   5.969   2.772   1.837  0.2102  0.1618  1.1036
 6143TIP3    H139920   6.059   2.793   1.812  0.7287 -0.7231  2.2154
 6143TIP3    H239921   5.976   2.692   1.889 -1.4447 -1.2893 -0.7837
 6144TIP3   OH239922   1.705   3.839  16.418  0.5428  0.6687 -0.3518
 6144TIP3    H139923   1.692   3.926  16.379 -1.7425 -0.4020 -2.1398
 6144TIP3    H239924   1.617   3.812  16.444  1.3677 -0.7676  0.9973
 6145TIP3   OH239925   3.025   2.693   6.039 -0.4854 -0.1883 -0.9406
 6145TIP3    H139926   3.049   2.605   6.009 -0.9713  0.2725 -2.7263
 6145TIP3    H239927   2.971   2.729   5.969 -1.0975  1.1893  0.2005
 6146TIP3   OH239928   0.683   2.428   0.621  0.4047 -0.6045 -0.2266
 6146TIP3    H139929   0.777   2.437   0.634  0.2004  0.2976  0.6402
 6146TIP3    H239930   0.654   2.512   0.587 -0.2037 -0.6366  0.1899
 6147TIP3   OH239931   2.755   1.121  16.915 -0.5657 -0.5007  0.1124
 6147TIP3    H139932   2.794   1.205  16.891 -3.0597  0.3891 -0.9617
 6147TIP3    H239933   2.830   1.062  16.922  1.1531  1.5731 -0.0422
 6148TIP3   OH239934   5.931   4.880   5.372 -0.3028 -0.3713 -0.0421
 6148TIP3    H139935   5.939   4.816   5.443 -1.3165  1.0097  1.3739
 6148TIP3    H239936   5.845   4.863   5.333 -0.0639 -0.6439 -0.4538
 6149TIP3   OH239937   3.532   1.842  17.166  0.8983  0.3287  0.5326
 6149TIP3    H139938   3.540   1.916  17.227 -1.7353  1.5711 -0.5415
 6149TIP3    H239939   3.595   1.861  17.097 -1.4844  2.9753 -1.0377
 6150TIP3   OH239940   6.768   3.467   6.213 -0.9272 -1.0016 -0.1744
 6150TIP3    H139941   6.739   3.477   6.303 -1.5740 -1.0449 -0.3752
 6150TIP3    H239942   6.777   3.372   6.201  1.1304 -0.9193  0.4518
 6151TIP3   OH239943   6.189   5.625   1.025 -0.1142 -0.0432 -0.2026
 6151TIP3    H139944   6.107   5.664   0.994  0.8914  3.0744  0.8513
 6151TIP3    H239945   6.180   5.625   1.120  1.0235  0.1660 -0.0929
 6152TIP3   OH239946   2.343   1.262   3.037  0.2370  0.1202 -0.3003
 6152TIP3    H139947   2.383   1.177   3.020 -0.1292  0.0984 -1.0640
 6152TIP3    H239948   2.339   1.268   3.132  0.9036 -0.4158 -0.2340
 6153TIP3   OH239949   0.671   6.503  16.979 -0.2370  0.1045  0.0390
 6153TIP3    H139950   0.696   6.512  16.887 -0.7742  0.6585 -0.0625
 6153TIP3    H239951   0.694   6.587  17.018  0.5168 -0.3330  0.5426
 6154TIP3   OH239952   2.160   4.165  13.535 -0.3194  0.7172 -0.2170
 6154TIP3    H139953   2.249   4.155  13.500 -0.4391 -0.4702 -0.1895
 6154TIP3    H239954   2.172   4.220  13.613  0.6371 -0.8480  0.7793
 6155TIP3   OH239955   0.346   0.228  12.424 -0.2029 -0.1296  0.2954
 6155TIP3    H139956   0.400   0.159  12.385 -0.8784 -1.3500  1.4927
 6155TIP3    H239957   0.298   0.185  12.495 -1.6796  1.2502  0.1792
 6156TIP3   OH239958   6.700   5.727  15.401  0.3812 -0.6418 -0.2019
 6156TIP3    H139959   6.769   5.775  15.446 -0.8696 -0.5426  1.6425
 6156TIP3    H239960   6.653   5.794  15.350  1.4935 -0.6817 -1.3098
 6157TIP3   OH239961   5.114   0.035   1.114  0.6926 -0.4602  0.3850
 6157TIP3    H139962   5.062   0.084   1.178 -1.1706 -1.9409  0.0585
 6157TIP3    H239963   5.203   0.068   1.125 -0.3646  2.4140  0.6969
 6158TIP3   OH239964   2.401   2.595   0.256  0.2626 -0.4042 -0.5971
 6158TIP3    H139965   2.318   2.593   0.208 -0.5355 -1.8232  0.8059
 6158TIP3    H239966   2.378   2.571   0.345  1.5166  3.4613  0.8744
 6159TIP3   OH239967   2.699   0.741  15.781  0.5818 -0.4690  0.5042
 6159TIP3    H139968   2.789   0.731  15.751  0.3107  1.2930 -0.9991
 6159TIP3    H239969   2.691   0.833  15.804 -1.8295  0.3084 -2.9675
 6160TIP3   OH239970   6.792   6.515   5.105  0.0692  0.1660 -0.4101
 6160TIP3    H139971   6.802   6.593   5.051 -1.6063  0.0982 -0.8676
 6160TIP3    H239972   6.703   6.522   5.140  1.1449  0.2370  2.4096
 6161TIP3   OH239973   3.356   4.299  13.557  0.2585 -0.1166  0.2330
 6161TIP3    H139974   3.430   4.250  13.591  1.7786  1.3836 -0.8395
 6161TIP3    H239975   3.365   4.386  13.595 -0.9946  0.0701  0.1453
 6162TIP3   OH239976   5.781   1.211  13.966 -0.1579  0.1638  0.2505
 6162TIP3    H139977   5.731   1.290  13.986  0.3761  0.9142 -1.3135
 6162TIP3    H239978   5.807   1.221  13.875 -1.0478 -2.3562 -0.3267
 6163TIP3   OH239979   0.102   3.139  14.771 -0.3479  0.2470 -0.1364
 6163TIP3    H139980   0.183   3.189  14.779 -0.2972  0.0423  0.6640
 6163TIP3    H239981   0.083   3.139  14.677 -0.2999  1.6741 -0.1621
 6164TIP3   OH239982   5.467   5.876   2.868  0.1405 -0.3567  0.2315
 6164TIP3    H139983   5.505   5.868   2.780 -1.0263  0.0558 -0.3249
 6164TIP3    H239984   5.399   5.809   2.871  0.8464 -1.0259  1.1793
 6165TIP3   OH239985   1.226   1.549  15.967 -0.1191  0.3480 -0.6357
 6165TIP3    H139986   1.230   1.519  16.058 -2.4411  0.9096 -0.2906
 6165TIP3    H239987   1.241   1.471  15.915 -1.4389 -0.5269  0.2570
 6166TIP3   OH239988   5.365   6.478  13.740  0.8794 -0.1256  0.2575
 6166TIP3    H139989   5.417   6.551  13.707  1.2415 -0.1480  0.7722
 6166TIP3    H239990   5.429   6.421  13.784  0.6092 -0.7734 -0.1770
 6167TIP3   OH239991   3.530   1.802  10.833  0.1611 -0.5799 -0.1691
 6167TIP3    H139992   3.612   1.771  10.795  0.3628 -0.9855  0.5890
 6167TIP3    H239993   3.537   1.897  10.831  1.1590 -0.6143  0.9675
 6168TIP3   OH239994   1.542   1.657  15.527  0.3497 -0.0675 -0.3292
 6168TIP3    H139995   1.476   1.719  15.558  1.0248  0.4820  0.0390
 6168TIP3    H239996   1.515   1.573  15.563  1.3231  0.6307  2.1092
 6169TIP3   OH239997   5.297   2.912  12.803 -0.0232 -0.2754  0.2036
 6169TIP3    H139998   5.203   2.907  12.784  0.0781  1.0431 -0.6431
 6169TIP3    H239999   5.301   2.922  12.898 -0.6770 -2.0263  0.4391
 6170TIP3   OH240000   2.434   6.626   3.036  0.6077  0.3948 -0.4792
 6170TIP3    H140001   2.528   6.639   3.022  0.3809  0.9301 -1.6062
 6170TIP3    H240002   2.397   6.625   2.947 -0.5151  0.7008 -0.0215
 6171TIP3   OH240003   5.346   4.552   1.829  0.1041 -0.2743  0.3803
 6171TIP3    H140004   5.355   4.465   1.791 -1.4279  0.6190 -2.1318
 6171TIP3    H240005   5.269   4.546   1.884  0.0925 -0.5482  0.3347
 6172TIP3   OH240006   6.744   0.221  16.773 -0.0786  0.2369 -0.4067
 6172TIP3    H140007   6.821   0.271  16.745  0.6629 -0.8293 -0.3330
 6172TIP3    H240008   6.767   0.190  16.861  0.7030 -2.6832 -1.6048
 6173TIP3   OH240009   2.112   6.802  11.639 -0.1227 -0.5834  0.9765
 6173TIP3    H140010   2.050   6.731  11.624 -0.1202 -0.0942 -1.5184
 6173TIP3    H240011   2.182   6.786  11.576  0.1659  1.2780  0.8094
 6174TIP3   OH240012   1.383   3.229  13.357 -0.1289 -0.3584  0.2877
 6174TIP3    H140013   1.427   3.161  13.408 -0.4137  0.4424  1.6004
 6174TIP3    H240014   1.299   3.190  13.332  1.1110 -1.7519 -1.9092
 6175TIP3   OH240015   4.438   2.546  16.376 -0.6166 -0.7350 -0.1838
 6175TIP3    H140016   4.423   2.487  16.302 -1.1109 -0.5580 -0.2317
 6175TIP3    H240017   4.352   2.553  16.418  0.0221 -2.1152  1.3675
 6176TIP3   OH240018   6.060   4.035  17.015 -0.1300 -0.2278  0.1433
 6176TIP3    H140019   6.083   4.077  16.933  1.3128 -0.4953  0.4056
 6176TIP3    H240020   6.142   4.001  17.049 -0.9168 -1.2581  1.0615
 6177TIP3   OH240021   6.776   1.778   1.172  0.6300 -0.8163  0.7518
 6177TIP3    H140022   6.702   1.757   1.115 -0.4410 -0.5149  2.0199
 6177TIP3    H240023   6.776   1.708   1.238 -0.3449  0.7718  2.4789
 6178TIP3   OH240024   6.109   4.146   5.426 -0.5096 -0.2295  0.3851
 6178TIP3    H140025   6.082   4.160   5.517  1.7008  0.2437  1.0076
 6178TIP3    H240026   6.173   4.075   5.431  0.6686  0.7289 -0.5940
 6179TIP3   OH240027   2.642   5.648  13.447 -0.4590 -0.7067 -0.1642
 6179TIP3    H140028   2.703   5.715  13.479 -2.9565  1.3800  0.4200
 6179TIP3    H240029   2.567   5.698  13.415 -2.4053 -3.2341  0.3282
 6180TIP3   OH240030   2.712   1.301  11.070  0.7372 -0.1000 -0.4948
 6180TIP3    H140031   2.653   1.227  11.071  1.2541 -0.5154 -0.5013
 6180TIP3    H240032   2.793   1.267  11.033  1.2703  0.2490  0.3297
 6181TIP3   OH240033   1.202   1.367   4.625  0.1758  0.1493  0.4868
 6181TIP3    H140034   1.260   1.315   4.681  1.0575 -0.8927 -1.3350
 6181TIP3    H240035   1.114   1.346   4.657  0.7189  0.8096  2.4948
 6182TIP3   OH240036   4.060   4.310  12.002 -0.5059  0.1792  0.4590
 6182TIP3    H140037   4.148   4.344  11.987 -1.6012  2.0822 -2.0100
 6182TIP3    H240038   4.074   4.226  12.046  2.4314  1.4986  2.1736
 6183TIP3   OH240039   3.780   0.850  16.160  0.0646  0.3359 -0.1426
 6183TIP3    H140040   3.760   0.935  16.199  1.5762 -0.2067  1.9105
 6183TIP3    H240041   3.853   0.867  16.101  0.3832  0.4775  0.2899
 6184TIP3   OH240042   2.492   4.806   0.631 -0.1336  0.0874  0.5269
 6184TIP3    H140043   2.561   4.741   0.650  0.3581  0.0602 -1.2667
 6184TIP3    H240044   2.445   4.769   0.557 -2.7852 -0.3869  2.3881
 6185TIP3   OH240045   0.461   3.736   4.691 -0.3842 -0.4749  0.1802
 6185TIP3    H140046   0.439   3.643   4.693  0.2210 -0.6636 -1.4025
 6185TIP3    H240047   0.511   3.751   4.771  0.6491 -1.7937 -0.2184
 6186TIP3   OH240048   3.726   2.916   0.844  0.1370 -0.9178  0.0653
 6186TIP3    H140049   3.743   2.910   0.938  0.3326 -0.5374  0.0533
 6186TIP3    H240050   3.641   2.958   0.837  0.5786 -0.0165  0.0489
 6187TIP3   OH240051   5.459   2.201  11.367  0.0683 -0.2078 -0.1002
 6187TIP3    H140052   5.411   2.119  11.378  0.7844 -0.4015  1.7660
 6187TIP3    H240053   5.393   2.264  11.338 -0.6374 -1.2559 -0.8020
 6188TIP3   OH240054   3.510   2.047   2.881 -0.3217 -0.7043 -0.0963
 6188TIP3    H140055   3.468   2.048   2.967 -1.4706  1.3750 -0.6567
 6188TIP3    H240056   3.500   2.137   2.848  0.4196 -1.3836 -2.2541
 6189TIP3   OH240057   0.589   0.772  12.748 -0.1517  0.1604  0.2361
 6189TIP3    H140058   0.494   0.774  12.759 -0.3458  1.5093 -1.4411
 6189TIP3    H240059   0.606   0.697  12.691 -0.0627 -0.9516  1.7109
 6190TIP3   OH240060   4.935   5.361   4.219 -0.3246  0.1328  0.5078
 6190TIP3    H140061   4.967   5.298   4.283 -0.3712 -0.0712  0.3320
 6190TIP3    H240062   4.848   5.329   4.195  0.4473 -0.8547 -1.0695
 6191TIP3   OH240063   0.223   5.743  12.462  0.5459 -0.5552 -0.7008
 6191TIP3    H140064   0.155   5.678  12.444 -2.0432  1.8524  0.0836
 6191TIP3    H240065   0.218   5.758  12.556  1.3495  0.4980 -0.8097
 6192TIP3   OH240066   5.178   4.161   1.167  0.4789  0.1242  0.1217
 6192TIP3    H140067   5.219   4.176   1.252 -0.7660  0.3170  0.6891
 6192TIP3    H240068   5.108   4.099   1.185  1.0021 -0.8159 -0.9828
 6193TIP3   OH240069   2.128   2.935   1.681  0.0293  0.2126 -0.0845
 6193TIP3    H140070   2.194   2.919   1.614 -1.2618  0.9051 -1.5487
 6193TIP3    H240071   2.164   3.007   1.733 -0.0551  1.3406 -1.5625
 6194TIP3   OH240072   0.821   0.071   0.080  0.5126 -0.1832 -0.1836
 6194TIP3    H140073   0.772   0.147   0.048 -0.0184 -0.3182  0.3153
 6194TIP3    H240074   0.877   0.106   0.150  0.3424 -0.2319 -0.0230
 6195TIP3   OH240075   3.312   3.933  13.377  0.2431  0.2442 -0.2176
 6195TIP3    H140076   3.299   4.006  13.316  1.2638  1.2677  0.7531
 6195TIP3    H240077   3.372   3.968  13.444 -0.1432 -1.1334  0.8782
 6196TIP3   OH240078   4.031   0.513  15.870  0.2661 -0.0497  0.3687
 6196TIP3    H140079   4.109   0.546  15.825  0.6798  0.7443  1.6428
 6196TIP3    H240080   4.035   0.553  15.957 -0.9876 -0.8688  0.8126
 6197TIP3   OH240081   1.115   1.902   2.149  0.1076 -0.5311 -0.4908
 6197TIP3    H140082   1.209   1.906   2.132  0.1081  0.0743 -0.3490
 6197TIP3    H240083   1.100   1.966   2.219 -0.7129  0.7866 -1.8627
 6198TIP3   OH240084   6.430   6.721  15.087  0.5277  0.0764 -0.2143
 6198TIP3    H140085   6.406   6.657  15.155  0.6354  0.6193  0.3327
 6198TIP3    H240086   6.501   6.678  15.038  0.1673 -0.4854 -0.2445
 6199TIP3   OH240087   3.819   5.770   2.745 -0.1601 -0.1916 -0.0092
 6199TIP3    H140088   3.913   5.779   2.758 -0.7794  3.4348  2.8586
 6199TIP3    H240089   3.780   5.796   2.829 -3.7164 -1.5485 -1.1318
 6200TIP3   OH240090   6.179   5.280   2.181 -0.0514  0.6592 -0.1560
 6200TIP3    H140091   6.092   5.275   2.221 -0.8384  0.9416 -1.8129
 6200TIP3    H240092   6.201   5.189   2.162 -0.4758  0.6907 -0.7906
 6201TIP3   OH240093   6.630   1.135  12.039  0.7099 -0.1366  0.4950
 6201TIP3    H140094   6.717   1.101  12.018  1.0956  0.7559  0.5985
 6201TIP3    H240095   6.627   1.135  12.135  0.7341  0.1548  0.4969
 6202TIP3   OH240096   5.462   3.107   4.797 -0.3518 -0.0392  0.0648
 6202TIP3    H140097   5.459   3.159   4.717 -0.4248 -0.4013 -0.1695
 6202TIP3    H240098   5.378   3.061   4.800 -0.2242 -0.2696  0.1857
 6203TIP3   OH240099   5.615   5.958  14.965  0.0717 -0.0425  0.4407
 6203TIP3    H140100   5.572   5.925  15.044 -0.9936  1.2341  0.4073
 6203TIP3    H240101   5.707   5.934  14.976 -0.4315 -1.8029  1.0400
 6204TIP3   OH240102   4.194   4.794   2.475 -0.2414 -0.0816 -0.2660
 6204TIP3    H140103   4.143   4.783   2.395 -1.7576 -1.7134  0.8803
 6204TIP3    H240104   4.134   4.837   2.536 -0.3464 -2.1941  1.1558
 6205TIP3   OH240105   4.034   4.802   3.776 -0.0886 -0.2115  0.0419
 6205TIP3    H140106   4.066   4.839   3.694 -0.3485  1.3560  0.6441
 6205TIP3    H240107   4.102   4.739   3.802  1.1716  1.0646 -0.1195
 6206TIP3   OH240108   0.536   4.470   3.549  0.1437  0.3885 -0.2496
 6206TIP3    H140109   0.474   4.529   3.591  0.1877  1.2859 -1.4245
 6206TIP3    H240110   0.484   4.394   3.523  0.0514 -0.0134  1.0887
 6207TIP3   OH240111   3.270   3.020  11.520  0.5712  0.3741  0.5400
 6207TIP3    H140112   3.194   3.067  11.555 -0.4374 -0.9063  0.0915
 6207TIP3    H240113   3.333   3.020  11.592  0.8264  2.8803  0.3766
 6208TIP3   OH240114   6.731   6.424   5.517 -0.1028  0.1112  0.2289
 6208TIP3    H140115   6.782   6.460   5.444  1.1860 -0.8033  0.6751
 6208TIP3    H240116   6.695   6.501   5.561 -2.0527  0.6444 -2.1807
 6209TIP3   OH240117   6.750   0.876   0.003  0.9742  0.3511 -0.2640
 6209TIP3    H140118   6.789   0.798   0.042  1.7235  1.3712  1.0751
 6209TIP3    H240119   6.757   0.861  -0.092  1.3459 -1.0718 -0.0237
 6210TIP3   OH240120   0.853   0.002  12.267  0.3728 -0.5352  0.2551
 6210TIP3    H140121   0.909   0.078  12.287 -2.0454  1.1643  0.7985
 6210TIP3    H240122   0.808  -0.017  12.350 -2.2730  0.2286 -0.9489
 6211TIP3   OH240123   4.073   5.093   5.601  0.5584  0.0096  0.1304
 6211TIP3    H140124   4.137   5.099   5.530  1.4350  0.2728  0.9283
 6211TIP3    H240125   3.995   5.138   5.568  0.9859  0.1916 -0.6312
 6212TIP3   OH240126   2.832   0.325  15.784  0.4942 -1.0437 -0.2379
 6212TIP3    H140127   2.806   0.233  15.789 -0.5128 -0.6782  2.0260
 6212TIP3    H240128   2.792   0.357  15.704  1.2066 -2.6648 -1.2791
 6213TIP3   OH240129   5.415   3.097   1.184 -0.2045  0.1322  0.0379
 6213TIP3    H140130   5.358   3.034   1.227  0.8355 -2.5456 -2.3069
 6213TIP3    H240131   5.372   3.181   1.196 -1.8522 -1.0650  2.9158
 6214TIP3   OH240132   0.723   4.915  14.200 -0.4698  0.0508  0.5873
 6214TIP3    H140133   0.801   4.913  14.255 -0.3022 -0.8482  0.3176
 6214TIP3    H240134   0.653   4.881  14.257 -0.0592 -2.0305 -0.1167
 6215TIP3   OH240135   2.452   4.146   0.049  0.0185  0.2724 -0.5317
 6215TIP3    H140136   2.492   4.083   0.109  0.7924  0.8534 -0.4207
 6215TIP3    H240137   2.381   4.186   0.100 -1.1217 -1.2311 -0.9478
 6216TIP3   OH240138   1.388   3.394  11.613 -1.0584 -0.7559 -0.3739
 6216TIP3    H140139   1.399   3.348  11.530 -1.1346  1.6322 -1.7602
 6216TIP3    H240140   1.304   3.439  11.604  0.4681  2.2049 -0.3963
 6217TIP3   OH240141   4.509   5.845  14.230  0.1646  0.1123  0.2505
 6217TIP3    H140142   4.479   5.757  14.206 -0.6855  0.0303  1.5695
 6217TIP3    H240143   4.543   5.836  14.319 -0.1080  1.1644  0.4721
 6218TIP3   OH240144   6.570   2.835  16.390  0.4551  1.0970  0.2864
 6218TIP3    H140145   6.511   2.821  16.316  0.9117 -1.1325  0.3009
 6218TIP3    H240146   6.645   2.778  16.372  1.3239  1.7862  1.6474
 6219TIP3   OH240147   1.117   3.267  11.496  0.1100 -0.8292 -0.3727
 6219TIP3    H140148   1.146   3.354  11.471 -1.8373  0.6691  2.3701
 6219TIP3    H240149   1.073   3.233  11.418 -0.4865  1.3000 -0.9970
 6220TIP3   OH240150   0.094   3.063  11.498 -0.1202  0.3391 -0.2531
 6220TIP3    H140151   0.097   2.967  11.503 -0.6848  0.2733 -1.0191
 6220TIP3    H240152   0.086   3.092  11.589 -0.6935 -0.3698 -0.0743
 6221TIP3   OH240153   6.664   0.132  12.640  0.0695  0.4475  0.0457
 6221TIP3    H140154   6.592   0.195  12.639 -0.6495 -0.3431  0.6251
 6221TIP3    H240155   6.668   0.099  12.550  0.1929  1.0302 -0.1639
 6222TIP3   OH240156   1.589   4.296   5.326  0.4195  0.1573 -0.9684
 6222TIP3    H140157   1.530   4.301   5.401  0.1504  2.1041 -1.2868
 6222TIP3    H240158   1.640   4.216   5.341 -1.3787 -0.8521 -0.0265
 6223TIP3   OH240159   2.712   3.115   2.735  0.6435 -0.1591 -0.6417
 6223TIP3    H140160   2.694   3.027   2.702  1.3019 -0.5506  0.0297
 6223TIP3    H240161   2.708   3.106   2.830 -0.1912  0.7362 -0.5878
 6224TIP3   OH240162   1.076   3.706   3.162 -0.0015  0.1604 -0.0045
 6224TIP3    H140163   1.091   3.635   3.099  1.9926  0.8269 -0.3256
 6224TIP3    H240164   1.154   3.706   3.217 -2.2396 -1.1935  3.3048
 6225TIP3   OH240165   5.644   4.780  16.902 -0.0922  0.3202 -0.0802
 6225TIP3    H140166   5.609   4.869  16.913 -0.8101  0.4602 -3.0302
 6225TIP3    H240167   5.662   4.773  16.808 -1.0424 -3.0100 -0.0706
 6226TIP3   OH240168   2.243   0.474  13.924 -0.2203  0.0343 -0.2455
 6226TIP3    H140169   2.253   0.411  13.853  0.4543 -0.9489  0.7185
 6226TIP3    H240170   2.316   0.456  13.984 -0.1393  1.5849  0.1448
 6227TIP3   OH240171   4.859   5.083   6.084  0.5757  0.0635 -0.3421
 6227TIP3    H140172   4.870   5.055   6.175 -1.6441 -1.6728 -0.5694
 6227TIP3    H240173   4.807   5.163   6.089 -0.2178 -0.4659 -0.1243
 6228TIP3   OH240174   4.089   2.958   2.584 -0.0023  0.1781 -0.1141
 6228TIP3    H140175   4.143   2.893   2.539  0.1608  0.6022 -0.5380
 6228TIP3    H240176   4.150   3.031   2.602 -0.2525  0.3384  0.0818
 6229TIP3   OH240177   3.210   0.032  11.442 -0.1575 -0.2098 -0.2720
 6229TIP3    H140178   3.115   0.028  11.431 -0.2253 -1.3304  0.6012
 6229TIP3    H240179   3.224   0.014  11.535  0.9563 -0.8559 -0.5571
 6230TIP3   OH240180   2.794   6.255  11.140 -0.1125  0.2506 -0.7696
 6230TIP3    H140181   2.794   6.266  11.045  0.3338 -1.3770 -0.9744
 6230TIP3    H240182   2.727   6.189  11.157  1.7653 -1.5688 -0.2481
 6231TIP3   OH240183   4.178   5.073  14.301 -0.1862  0.0533 -0.4130
 6231TIP3    H140184   4.145   5.079  14.211 -0.8552 -0.7679 -0.2409
 6231TIP3    H240185   4.247   5.138  14.307 -1.5304  1.5539 -0.9198
 6232TIP3   OH240186   5.971   2.596   0.207  0.2673  0.9533  0.0919
 6232TIP3    H140187   5.884   2.599   0.167  0.4143 -1.0845 -0.4392
 6232TIP3    H240188   5.957   2.560   0.294  0.5816  0.3977 -0.0790
 6233TIP3   OH240189   3.962   4.120   1.770  0.0977  0.0171 -0.5588
 6233TIP3    H140190   3.888   4.177   1.788  0.3087  0.3100 -0.6186
 6233TIP3    H240191   3.998   4.099   1.856  0.1220  0.1091 -0.5462
 6234TIP3   OH240192   5.728   6.288   5.845 -0.3437  0.2861  0.4417
 6234TIP3    H140193   5.742   6.377   5.878  0.8496  0.0939  0.4573
 6234TIP3    H240194   5.788   6.280   5.771  0.8442 -1.1077  1.5204
 6235TIP3   OH240195   0.017   3.774  13.538  0.7000 -0.4941 -0.2800
 6235TIP3    H140196   0.097   3.824  13.552  1.0327 -1.0156 -0.2994
 6235TIP3    H240197   0.042   3.706  13.474  0.5073 -1.2746  0.4598
 6236TIP3   OH240198   0.223   2.647  12.113  0.2733 -0.0649 -0.7581
 6236TIP3    H140199   0.316   2.626  12.119  0.0790 -0.5045  0.8418
 6236TIP3    H240200   0.180   2.582  12.167 -0.8015  1.2865  0.0517
 6237TIP3   OH240201   0.962   3.089   3.787  0.1431  0.0865  0.0644
 6237TIP3    H140202   0.970   3.002   3.748 -4.0667 -0.6942  0.6962
 6237TIP3    H240203   0.991   3.077   3.877  0.8705 -0.3091 -0.2131
 6238TIP3   OH240204   0.162   0.701  11.819  0.3162 -0.1483  0.1627
 6238TIP3    H140205   0.193   0.786  11.848  0.7213 -0.4353  0.5774
 6238TIP3    H240206   0.182   0.642  11.891 -0.6789 -0.4454  0.2108
 6239TIP3   OH240207   4.036   5.071   2.123 -0.2289 -0.5211  0.0882
 6239TIP3    H140208   3.968   5.021   2.079 -1.0025  0.6395 -0.0590
 6239TIP3    H240209   4.100   5.091   2.055 -1.6655  1.6948 -0.6742
 6240TIP3   OH240210   2.773   1.237  14.311 -0.3172  0.4519 -0.5090
 6240TIP3    H140211   2.710   1.190  14.257 -1.1622  1.2419 -0.2183
 6240TIP3    H240212   2.844   1.174  14.325 -0.2575  0.1183 -2.2256
 6241TIP3   OH240213   3.551   6.679  12.305 -0.1622 -0.0679  0.0908
 6241TIP3    H140214   3.519   6.763  12.339  0.7661  0.6684 -0.8487
 6241TIP3    H240215   3.627   6.659  12.359 -0.0179 -0.0106 -0.0945
 6242TIP3   OH240216   6.188   5.784   0.003  0.4883 -0.1167 -0.4965
 6242TIP3    H140217   6.263   5.842  -0.007 -0.5970  1.3521 -0.3212
 6242TIP3    H240218   6.193   5.724  -0.072 -0.1022  2.2143 -2.4413
 6243TIP3   OH240219   0.164   5.140  13.317  0.2328  0.3336 -1.0575
 6243TIP3    H140220   0.183   5.187  13.235  1.7287 -0.5311 -1.2350
 6243TIP3    H240221   0.249   5.106  13.344 -0.4760 -0.4458  0.2066
 6244TIP3   OH240222   4.921   3.075  11.764 -0.1122  0.4629  0.1701
 6244TIP3    H140223   4.867   3.039  11.834  1.9547 -3.1032  0.0721
 6244TIP3    H240224   5.009   3.078  11.801  0.8634 -0.6757 -1.9807
 6245TIP3   OH240225   6.554   3.848   2.490 -0.0190 -0.0236 -0.3620
 6245TIP3    H140226   6.632   3.793   2.487 -0.1594 -0.2591  0.1626
 6245TIP3    H240227   6.491   3.804   2.433  0.6089  0.7675 -1.6740
 6246TIP3   OH240228   0.190   0.793  17.116 -0.5538  0.3496  0.8295
 6246TIP3    H140229   0.148   0.717  17.156 -0.6716  0.0993  0.2349
 6246TIP3    H240230   0.284   0.778  17.131 -0.4628 -0.7519 -0.7285
 6247TIP3   OH240231   2.498   5.526   1.212  0.0091 -0.2570 -0.2063
 6247TIP3    H140232   2.446   5.600   1.181  0.3598  0.4199  0.7666
 6247TIP3    H240233   2.504   5.540   1.307 -0.8537 -2.1458  0.1316
 6248TIP3   OH240234   1.474   6.743  13.014  0.5738 -0.0978  0.1591
 6248TIP3    H140235   1.405   6.684  12.983 -0.1510  1.4203 -1.1924
 6248TIP3    H240236   1.548   6.727  12.955 -0.5028  2.1537 -1.8638
 6249TIP3   OH240237   0.119   0.344  12.963  0.2937  0.2532  0.1179
 6249TIP3    H140238   0.115   0.414  13.028 -0.2643 -2.1775  2.8184
 6249TIP3    H240239   0.210   0.313  12.966  0.7704  1.3689 -1.7052
 6250TIP3   OH240240   6.022   6.157  12.618  0.0012  1.0520  0.2352
 6250TIP3    H140241   5.979   6.141  12.702  0.0167  0.3356  0.1146
 6250TIP3    H240242   6.049   6.070  12.589 -2.0881  0.9896 -1.6307
 6251TIP3   OH240243   0.235   1.321  14.784 -0.6105 -0.3484  0.3742
 6251TIP3    H140244   0.290   1.385  14.830 -1.2624  1.1073 -0.8502
 6251TIP3    H240245   0.261   1.329  14.692 -0.5535 -2.0106  0.2206
 6252TIP3   OH240246   1.068   1.753   3.423 -0.2489  0.1332 -0.0349
 6252TIP3    H140247   0.985   1.706   3.429  0.5123 -1.1049  1.0339
 6252TIP3    H240248   1.132   1.694   3.462  1.2152  0.9088 -1.2107
 6253TIP3   OH240249   2.816   5.031   1.085  0.1379  0.2430  0.3022
 6253TIP3    H140250   2.885   5.055   1.024  0.0723 -1.2063 -0.3575
 6253TIP3    H240251   2.735   5.059   1.043  0.2142  0.7800  0.5025
 6254TIP3   OH240252   3.065   2.984   0.629 -0.5775  0.5298  0.6946
 6254TIP3    H140253   2.995   2.923   0.607  0.1434  0.1991 -0.7057
 6254TIP3    H240254   3.140   2.928   0.650  0.0918  0.9205 -0.6182
 6255TIP3   OH240255   1.003   3.816   5.441  0.5989 -0.1512 -0.2008
 6255TIP3    H140256   0.980   3.882   5.376 -0.9070 -2.7889 -2.4413
 6255TIP3    H240257   1.099   3.818   5.444  0.6035  1.3161 -1.0972
 6256TIP3   OH240258   1.321   2.457  13.177  0.2805 -0.1415  0.0525
 6256TIP3    H140259   1.250   2.479  13.117  0.4777  1.7913  0.4820
 6256TIP3    H240260   1.400   2.459  13.123  0.2519 -0.1687  0.0094
 6257TIP3   OH240261   1.829   4.817  16.917  0.0855 -0.3436 -0.0673
 6257TIP3    H140262   1.923   4.829  16.905  0.0303 -0.3070 -0.4617
 6257TIP3    H240263   1.796   4.905  16.935  0.2453 -0.4752  0.8967
 6258TIP3   OH240264   3.336   5.371   2.928 -0.0690  0.2957 -0.1482
 6258TIP3    H140265   3.268   5.317   2.969 -1.4351  3.3939  1.8688
 6258TIP3    H240266   3.401   5.383   2.997  1.4897 -0.8402 -1.3929
 6259TIP3   OH240267   2.294   5.543  11.480 -0.2753 -0.1351  0.3836
 6259TIP3    H140268   2.339   5.511  11.402 -0.3000  0.0161  0.3066
 6259TIP3    H240269   2.346   5.618  11.508  0.0441 -0.5160  0.8246
 6260TIP3   OH240270   6.114   2.945   6.300 -0.0616  0.2982  0.0974
 6260TIP3    H140271   6.165   2.866   6.284 -1.2027 -0.4998  0.2988
 6260TIP3    H240272   6.170   3.016   6.271  0.8999 -0.6039 -0.2932
 6261TIP3   OH240273   2.661   2.255   1.663 -0.1515 -0.3033 -0.0589
 6261TIP3    H140274   2.640   2.321   1.597  1.8317  2.9748  2.3810
 6261TIP3    H240275   2.756   2.249   1.661 -0.2235 -2.0285  0.7902
 6262TIP3   OH240276   6.755   0.585  13.424 -0.7366 -0.0544  0.0159
 6262TIP3    H140277   6.665   0.616  13.424 -1.5266 -2.2683  0.3076
 6262TIP3    H240278   6.753   0.503  13.373  1.3670  0.5722 -1.1570
 6263TIP3   OH240279   6.407   2.857  16.165  0.5506 -0.0322 -0.2605
 6263TIP3    H140280   6.353   2.781  16.143 -1.1129  1.5907 -1.8866
 6263TIP3    H240281   6.457   2.875  16.086  1.9547 -0.2318  0.5584
 6264TIP3   OH240282   2.055   4.586   4.310  0.0995  0.3339 -0.1560
 6264TIP3    H140283   2.093   4.540   4.235  0.8555  1.5381 -0.5356
 6264TIP3    H240284   2.043   4.676   4.279 -0.2550  0.6675  0.9335
 6265TIP3   OH240285   0.655   6.687   5.761  0.2007  0.0570  0.0988
 6265TIP3    H140286   0.750   6.683   5.751  0.5202 -2.2951  3.3334
 6265TIP3    H240287   0.641   6.698   5.855 -2.7387  2.5898 -0.5309
 6266TIP3   OH240288   1.979   2.579  10.800  0.7951 -0.3929  0.4104
 6266TIP3    H140289   1.901   2.596  10.747  0.7516 -0.5820  0.4125
 6266TIP3    H240290   2.040   2.649  10.776  1.0437 -0.8852 -0.4228
 6267TIP3   OH240291   1.352   6.749  15.936  0.1678 -0.2651 -0.9449
 6267TIP3    H140292   1.446   6.737  15.948  0.5298  2.4026 -1.0251
 6267TIP3    H240293   1.341   6.842  15.917 -2.6887 -0.0729  1.3086
 6268TIP3   OH240294   6.723   1.888  14.415  0.2723  0.4215  0.4825
 6268TIP3    H140295   6.790   1.939  14.370  2.3154 -2.1789  0.4590
 6268TIP3    H240296   6.754   1.883  14.506  0.7137 -1.7054  0.2404
 6269TIP3   OH240297   2.697   2.422  11.089  0.3161  0.0476 -0.2379
 6269TIP3    H140298   2.768   2.359  11.071  0.0135 -0.1096 -0.9235
 6269TIP3    H240299   2.633   2.404  11.020  0.9771  2.2389 -1.4586
 6270TIP3   OH240300   1.225   1.046   0.209  0.4770 -0.5906  0.2277
 6270TIP3    H140301   1.137   1.055   0.172  1.4268  2.1265 -1.5351
 6270TIP3    H240302   1.269   0.984   0.151  0.3788 -0.2776 -0.1837
 6271TIP3   OH240303   3.170   2.077   5.779 -0.3196  0.1989 -0.8841
 6271TIP3    H140304   3.158   2.172   5.773 -2.2158  0.1176  1.2430
 6271TIP3    H240305   3.154   2.056   5.871  1.2056 -2.0471 -1.1021
 6272TIP3   OH240306   4.139   0.913   2.799 -0.4059 -0.3658  0.0302
 6272TIP3    H140307   4.048   0.898   2.824 -0.3908 -0.3974  0.0682
 6272TIP3    H240308   4.151   0.860   2.720 -0.2187 -0.9404  0.4351
 6273TIP3   OH240309   5.198   6.810  16.834  0.0376 -0.2576  0.1941
 6273TIP3    H140310   5.126   6.818  16.895  1.2250  1.1118  1.4656
 6273TIP3    H240311   5.170   6.858  16.756 -0.7874 -0.5472  0.3175
 6274TIP3   OH240312   5.540   4.729  15.846  0.6291 -0.2452 -0.5309
 6274TIP3    H140313   5.476   4.665  15.876  1.0703  0.2343  1.5527
 6274TIP3    H240314   5.605   4.678  15.799  0.2507 -1.1523 -0.0918
 6275TIP3   OH240315   3.107   4.018   1.353 -0.3879  0.0768 -0.4399
 6275TIP3    H140316   3.199   4.001   1.332 -0.1623  0.3222  0.3582
 6275TIP3    H240317   3.062   3.936   1.332  0.1978 -0.4347  0.3028
 6276TIP3   OH240318   1.043   0.084  15.212  0.0362 -0.0768  0.3552
 6276TIP3    H140319   0.984   0.128  15.274  0.5366 -0.7938  1.3460
 6276TIP3    H240320   1.127   0.127  15.225  0.8009 -2.0200  2.1093
 6277TIP3   OH240321   3.885   2.517  17.007  0.0415 -0.4789 -0.1264
 6277TIP3    H140322   3.960   2.563  16.969  0.6639 -0.9273  0.5304
 6277TIP3    H240323   3.812   2.578  16.999  0.1045 -0.6363 -2.2224
 6278TIP3   OH240324   5.695   1.393  16.181  0.4550 -0.2463  0.3700
 6278TIP3    H140325   5.688   1.427  16.092  1.1990  0.5053  0.5835
 6278TIP3    H240326   5.777   1.344  16.182 -0.3261 -1.5549  0.2272
 6279TIP3   OH240327   3.430   1.011  16.162 -0.0726 -0.0711 -0.1764
 6279TIP3    H140328   3.470   1.057  16.087 -0.4890  0.2968 -0.1787
 6279TIP3    H240329   3.429   1.076  16.232 -1.0637  0.0561 -0.3077
 6280TIP3   OH240330   5.877   0.813   4.687  0.2143 -0.1769 -0.1610
 6280TIP3    H140331   5.952   0.764   4.721 -0.2976 -0.6893  0.2272
 6280TIP3    H240332   5.914   0.865   4.615  1.0592  0.0151  0.3933
 6281TIP3   OH240333   1.082   5.713  16.719 -0.6627  0.5078  0.9118
 6281TIP3    H140334   1.046   5.768  16.649 -0.1459 -1.4578 -0.9384
 6281TIP3    H240335   1.025   5.637  16.722  1.4283 -1.1471  0.0907
 6282TIP3   OH240336   4.653   6.517  11.793 -0.3648  0.6361  0.2928
 6282TIP3    H140337   4.595   6.570  11.739 -1.4934 -0.6920  0.1707
 6282TIP3    H240338   4.599   6.491  11.868 -0.0477 -0.9246 -0.0004
 6283TIP3   OH240339   5.122   3.828   4.249  0.1190  0.5066 -0.4090
 6283TIP3    H140340   5.140   3.780   4.168  2.4131 -0.6539  0.7533
 6283TIP3    H240341   5.116   3.920   4.221  0.8384  0.1218 -1.8923
 6284TIP3   OH240342   0.929   5.705   0.471  0.4912  0.1609  0.0152
 6284TIP3    H140343   0.998   5.769   0.487 -0.0476  1.1500 -1.4270
 6284TIP3    H240344   0.857   5.757   0.433 -0.8963 -0.9031  1.1484
 6285TIP3   OH240345   0.179   1.472  16.376  0.4604 -0.3008 -0.2128
 6285TIP3    H140346   0.134   1.510  16.451 -0.0503 -1.4548  0.0807
 6285TIP3    H240347   0.263   1.518  16.372  0.8959 -0.8817  1.6436
 6286TIP3   OH240348   2.522   6.067   3.616  0.1803  0.1108  0.3785
 6286TIP3    H140349   2.531   5.980   3.578 -0.0874 -0.0187  0.6163
 6286TIP3    H240350   2.434   6.096   3.590 -0.7175 -0.7087  2.4339
 6287TIP3   OH240351   4.743   5.460  13.859  0.3177  0.0616 -0.6721
 6287TIP3    H140352   4.724   5.525  13.792 -1.1248  1.7034  1.2949
 6287TIP3    H240353   4.833   5.479  13.886  0.2178  0.6174 -0.7441
 6288TIP3   OH240354   5.215   2.026   0.038  0.1859  0.4487  0.8405
 6288TIP3    H140355   5.276   1.952   0.033 -1.1708 -0.6447 -0.1303
 6288TIP3    H240356   5.243   2.085  -0.032  2.0382  1.4971  2.4047
 6289TIP3   OH240357   4.305   5.209   2.481  0.0249 -0.4695  0.1494
 6289TIP3    H140358   4.313   5.239   2.391 -3.2853 -2.8741 -1.0358
 6289TIP3    H240359   4.222   5.246   2.512  0.0134 -1.5494  1.4583
 6290TIP3   OH240360   6.781   0.893   1.091 -1.0498  0.0842 -0.3079
 6290TIP3    H140361   6.772   0.823   1.026  0.3557  1.0556 -1.5739
 6290TIP3    H240362   6.776   0.974   1.041 -0.1297  0.8640  0.8163
 6291TIP3   OH240363   0.648   4.455  16.360  0.0020 -0.3658 -0.4997
 6291TIP3    H140364   0.557   4.452  16.387 -0.0753 -0.8384 -0.7956
 6291TIP3    H240365   0.683   4.535  16.399 -0.6584  0.0560 -0.7761
 6292TIP3   OH240366   6.741   5.252   3.270 -0.1739  0.2311  0.0816
 6292TIP3    H140367   6.747   5.229   3.177 -1.1602  1.0182 -0.1802
 6292TIP3    H240368   6.698   5.337   3.272 -0.5964  0.0106  1.2868
 6293TIP3   OH240369   5.349   3.035  11.612 -0.2366  0.1048  0.9091
 6293TIP3    H140370   5.399   3.084  11.546  0.1238 -1.3346  0.1003
 6293TIP3    H240371   5.387   3.063  11.696  1.2124 -0.1566  0.3575
 6294TIP3   OH240372   5.333   6.725   3.850  0.3698  0.2331 -0.0366
 6294TIP3    H140373   5.367   6.786   3.917  2.5964  0.9916 -1.7811
 6294TIP3    H240374   5.359   6.639   3.882  1.8421  0.6263 -0.1054
 6295TIP3   OH240375   6.458   3.970   3.830 -0.2743 -0.3250  0.3267
 6295TIP3    H140376   6.459   4.033   3.902 -0.2211 -0.9963  0.9225
 6295TIP3    H240377   6.549   3.962   3.802 -0.4389  0.7458 -0.5366
 6296TIP3   OH240378   5.582   0.203  12.066  0.0703  0.6372  0.2699
 6296TIP3    H140379   5.541   0.181  12.150  1.1651 -0.6637  0.4937
 6296TIP3    H240380   5.510   0.207  12.004 -0.6133  0.3624  1.0411
 6297TIP3   OH240381   6.433   6.178   3.680 -0.1039 -0.1867  0.0292
 6297TIP3    H140382   6.493   6.135   3.619 -0.4876  1.5590 -1.6196
 6297TIP3    H240383   6.486   6.197   3.757  1.1061  0.0177 -0.8408
 6298TIP3   OH240384   0.694   5.257   0.402 -0.0558 -0.0912 -0.1483
 6298TIP3    H140385   0.698   5.170   0.442 -2.1689 -0.7085 -1.2238
 6298TIP3    H240386   0.645   5.310   0.465  1.1829  0.3296  0.4807
 6299TIP3   OH240387   3.292   1.508  16.444  0.1955 -0.3543  0.3760
 6299TIP3    H140388   3.387   1.514  16.454  0.3097 -2.4790  0.6554
 6299TIP3    H240389   3.276   1.516  16.350  0.5424  1.0820  0.4214
 6300TIP3   OH240390   5.773   2.211  13.385  0.5000  0.4242 -0.0196
 6300TIP3    H140391   5.818   2.136  13.422 -1.0415  0.0575  1.1882
 6300TIP3    H240392   5.842   2.274  13.366  1.5618 -0.2493  1.4771
 6301TIP3   OH240393   3.701   2.408   4.002 -0.0201 -0.3648  0.0240
 6301TIP3    H140394   3.708   2.371   3.914 -0.0619 -1.3268  0.4266
 6301TIP3    H240395   3.704   2.503   3.988 -2.0634 -0.4444 -1.2052
 6302TIP3   OH240396   3.543   3.622   0.413  0.5407 -0.5826 -0.1779
 6302TIP3    H140397   3.449   3.636   0.412  0.7828  1.0613 -0.7973
 6302TIP3    H240398   3.559   3.558   0.344 -0.0300 -0.3371 -0.5297
 6303TIP3   OH240399   1.589   4.091   3.371  0.0323 -0.4104 -0.0245
 6303TIP3    H140400   1.611   4.039   3.294  1.0065  0.2763 -0.2095
 6303TIP3    H240401   1.519   4.041   3.414 -0.1144 -1.0840 -1.0335
 6304TIP3   OH240402   3.622   2.118  16.674  0.0714 -0.3299 -0.3784
 6304TIP3    H140403   3.646   2.187  16.612 -0.0231 -1.0009 -1.1811
 6304TIP3    H240404   3.704   2.095  16.717 -0.0487  0.8717  0.5121
 6305TIP3   OH240405   2.306   5.132  15.080  0.3571  0.5512 -0.3476
 6305TIP3    H140406   2.335   5.205  15.135  1.3609 -0.7623  0.9458
 6305TIP3    H240407   2.236   5.090  15.130  0.7126 -0.1687 -0.4382
 6306TIP3   OH240408   4.744   3.748  16.997 -0.1446 -0.2691 -0.0730
 6306TIP3    H140409   4.816   3.809  16.985 -0.2920 -0.5026 -2.4441
 6306TIP3    H240410   4.742   3.731  17.091  1.5901  1.2956  0.2720
 6307TIP3   OH240411   6.540   2.777  13.445 -0.3530  0.6534 -0.4180
 6307TIP3    H140412   6.625   2.814  13.420 -0.2959  1.7806  1.3545
 6307TIP3    H240413   6.561   2.711  13.511 -0.8233  0.7573 -0.1571
 6308TIP3   OH240414   4.429   0.700  13.922 -0.3436 -0.0140  0.0073
 6308TIP3    H140415   4.340   0.671  13.905 -0.6688  0.8378  0.2168
 6308TIP3    H240416   4.421   0.760  13.997  0.6270 -1.2072  1.0892
 6309TIP3   OH240417   1.940   1.154  16.851 -0.0410 -0.0825 -0.0170
 6309TIP3    H140418   1.981   1.241  16.849 -1.2397  0.4841 -0.2740
 6309TIP3    H240419   1.846   1.172  16.855 -0.4267 -1.3739 -2.5594
 6310TIP3   OH240420   6.580   6.531  15.921 -0.3355  0.5968 -0.5586
 6310TIP3    H140421   6.520   6.591  15.876  0.3151  0.3889 -1.7309
 6310TIP3    H240422   6.596   6.572  16.006 -0.6661  1.5889 -0.9720
 6311TIP3   OH240423   1.290   1.154   5.990  0.2744  0.7331 -0.0027
 6311TIP3    H140424   1.320   1.206   6.065  1.5527  0.4605 -0.3254
 6311TIP3    H240425   1.197   1.177   5.982 -0.4873 -0.9381  3.0962
 6312TIP3   OH240426   2.669   1.820   3.347  0.1175 -0.4908 -0.0225
 6312TIP3    H140427   2.638   1.729   3.345 -0.7395 -0.2109  0.2493
 6312TIP3    H240428   2.658   1.847   3.438  0.5182 -0.1580 -0.0718
 6313TIP3   OH240429   4.926   4.749  11.317  0.0317 -0.1545  0.2789
 6313TIP3    H140430   4.918   4.843  11.296  2.8880 -0.2595 -1.4597
 6313TIP3    H240431   4.970   4.711  11.241 -1.4813 -3.0262  0.7648
 6314TIP3   OH240432   4.025   0.244   3.369 -0.5433 -0.3013 -0.2670
 6314TIP3    H140433   3.956   0.255   3.435  1.0243 -0.0699  1.3520
 6314TIP3    H240434   4.051   0.333   3.346  0.8165 -0.4050  0.8364
 6315TIP3   OH240435   4.458   1.404   1.963 -0.4044 -0.3987  0.4321
 6315TIP3    H140436   4.372   1.363   1.972 -0.1271 -0.8190  1.2164
 6315TIP3    H240437   4.457   1.442   1.875 -0.5606 -2.3374 -0.4397
 6316TIP3   OH240438   4.078   4.214  14.978 -0.2194  0.1472  0.0713
 6316TIP3    H140439   4.043   4.238  15.063  1.0711 -0.4337  0.7890
 6316TIP3    H240440   4.091   4.297  14.932 -0.0583  0.5224  0.7948
 6317TIP3   OH240441   4.537   1.735  15.637  1.1375  0.0248 -0.3396
 6317TIP3    H140442   4.483   1.775  15.568  1.6721  1.1697 -0.1096
 6317TIP3    H240443   4.505   1.645  15.644 -1.8239  1.1294  0.9180
 6318TIP3   OH240444   1.390   5.960  17.060 -0.3881  0.1046  0.0306
 6318TIP3    H140445   1.295   5.974  17.056 -0.2442  1.8921  1.7548
 6318TIP3    H240446   1.425   6.016  16.992 -0.5760 -0.8614 -0.8763
 6319TIP3   OH240447   4.300   0.000   2.421  0.7873 -0.0448 -0.0083
 6319TIP3    H140448   4.394   0.005   2.435  0.9972 -2.5444 -0.4504
 6319TIP3    H240449   4.285   0.054   2.343  2.2781 -2.0507 -1.7327
 6320TIP3   OH240450   4.542   1.739   1.446  0.2870  0.1344 -0.4513
 6320TIP3    H140451   4.595   1.777   1.516 -0.0199 -0.2250 -0.0117
 6320TIP3    H240452   4.605   1.714   1.378  0.7403 -0.7390  0.2725
 6321TIP3   OH240453   4.647   6.157  15.401 -0.1263  0.6184 -0.4526
 6321TIP3    H140454   4.742   6.165  15.415 -0.0075 -0.1279 -0.8309
 6321TIP3    H240455   4.630   6.063  15.404 -0.9789  0.7958  0.3931
 6322TIP3   OH240456   0.331   6.771   3.156 -0.1862  0.1277 -0.0534
 6322TIP3    H140457   0.291   6.788   3.071 -2.3976 -0.1601  0.9119
 6322TIP3    H240458   0.408   6.828   3.158 -1.0519  1.3862 -1.5571
 6323TIP3   OH240459   2.120   4.827  13.946  0.1372 -0.3261 -0.5260
 6323TIP3    H140460   2.203   4.851  13.904 -1.8155  0.4449 -4.1744
 6323TIP3    H240461   2.096   4.903  13.998  0.3808  0.5234 -1.6512
 6324TIP3   OH240462   6.106   0.768   2.394  0.0606  0.1776  0.5731
 6324TIP3    H140463   6.022   0.790   2.354  0.0719  0.1710  0.5449
 6324TIP3    H240464   6.084   0.721   2.475  0.0378  0.1287  0.5382
 6325TIP3   OH240465   4.877   4.348   4.221 -0.5765 -0.3679 -0.2171
 6325TIP3    H140466   4.821   4.289   4.271 -0.8270 -0.0129 -0.0811
 6325TIP3    H240467   4.817   4.402   4.171 -0.3708  0.2561  0.2037
 6326TIP3   OH240468   3.389   5.263  15.940 -0.3797 -0.1129  0.2606
 6326TIP3    H140469   3.353   5.232  16.023 -1.0256  0.8964  0.3722
 6326TIP3    H240470   3.482   5.245  15.946  0.0130  2.2717  2.2859
 6327TIP3   OH240471   0.871   2.517   4.342 -0.5915  0.2188 -0.1146
 6327TIP3    H140472   0.870   2.442   4.401  0.4182  0.0218 -0.3368
 6327TIP3    H240473   0.942   2.498   4.280  0.1533  1.6937  0.2681
 6328TIP3   OH240474   1.749   2.611  14.025 -0.1080  0.2281  0.0257
 6328TIP3    H140475   1.826   2.664  14.004  1.0291 -1.2836  0.3249
 6328TIP3    H240476   1.783   2.542  14.083 -1.6740 -0.4863  0.0997
 6329TIP3   OH240477   4.824   4.181  16.839  0.6524 -0.0389  0.1087
 6329TIP3    H140478   4.815   4.277  16.845 -2.7790 -0.3017  0.3844
 6329TIP3    H240479   4.771   4.157  16.764  0.6178 -1.8421  0.6932
 6330TIP3   OH240480   1.139   2.488   2.257 -0.0208 -0.1017 -0.1699
 6330TIP3    H140481   1.138   2.471   2.163 -0.8761 -1.3329  0.0396
 6330TIP3    H240482   1.231   2.483   2.282  0.2316  0.4898 -0.9827
 6331TIP3   OH240483   1.450   6.720   4.890 -0.3023 -0.0310 -0.1338
 6331TIP3    H140484   1.540   6.715   4.857 -0.3267  2.3129 -0.6350
 6331TIP3    H240485   1.401   6.658   4.836  0.4481  0.8030 -1.8021
 6332TIP3   OH240486   0.684   1.725   5.685  0.6583  0.1628 -0.0137
 6332TIP3    H140487   0.642   1.799   5.729 -0.3563 -0.2370 -0.2841
 6332TIP3    H240488   0.763   1.761   5.646 -0.4362  1.3695 -1.1628
 6333TIP3   OH240489   6.747   4.448  13.171  0.3809  0.1574 -0.0820
 6333TIP3    H140490   6.686   4.395  13.222 -0.8119  1.3354 -0.2700
 6333TIP3    H240491   6.777   4.389  13.101  3.3759 -2.0679  2.8699
 6334TIP3   OH240492   2.987   6.725  16.549 -0.5171 -0.6458  0.5762
 6334TIP3    H140493   2.928   6.784  16.503 -0.1831 -0.5049  0.3272
 6334TIP3    H240494   2.956   6.725  16.640  0.0971  0.6717  0.7830
 6335TIP3   OH240495   1.980   6.030  11.674  0.5797  0.0775  0.0923
 6335TIP3    H140496   1.909   6.005  11.615  1.2066  0.1384 -0.6977
 6335TIP3    H240497   1.945   6.016  11.762 -0.5388  0.4543 -0.2838
 6336TIP3   OH240498   0.062   3.953  15.891  0.3259  0.0686 -0.7567
 6336TIP3    H140499  -0.027   3.964  15.924 -0.3459 -1.5365 -1.9568
 6336TIP3    H240500   0.118   3.965  15.967 -1.1299 -2.7293  0.8438
 6337TIP3   OH240501   0.637   2.474  11.736 -0.6464 -0.0468 -0.2072
 6337TIP3    H140502   0.589   2.468  11.819 -0.7322 -1.5844 -0.3652
 6337TIP3    H240503   0.580   2.527  11.680 -0.4336  1.3000  0.8005
 6338TIP3   OH240504   5.548   6.314  16.269  0.6734 -0.3099  0.0710
 6338TIP3    H140505   5.583   6.253  16.334  0.0081 -1.8334 -0.9867
 6338TIP3    H240506   5.623   6.335  16.213  0.6744 -0.9384 -0.1626
 6339TIP3   OH240507   0.171   1.992   3.268  0.1736  0.1463  0.4163
 6339TIP3    H140508   0.112   2.066   3.281  0.7674  0.7463 -0.2482
 6339TIP3    H240509   0.199   1.999   3.176  1.7392  0.2376  0.8787
 6340TIP3   OH240510   3.419   5.781  11.975 -0.4535 -0.0819  0.0785
 6340TIP3    H140511   3.508   5.761  12.004 -1.2434 -0.1225  2.6057
 6340TIP3    H240512   3.378   5.822  12.051 -2.9853 -1.2246 -0.6253
 6341TIP3   OH240513   2.735   2.833   0.650 -0.2150  0.7279  0.5472
 6341TIP3    H140514   2.752   2.787   0.732 -0.2148 -0.0069  0.1358
 6341TIP3    H240515   2.667   2.897   0.672 -4.0433 -2.8954 -0.0144
 6342TIP3   OH240516   1.615   3.955   6.049  0.2907  0.4032  0.5774
 6342TIP3    H140517   1.584   3.868   6.023 -0.9785  1.7366 -2.5836
 6342TIP3    H240518   1.565   3.976   6.127 -1.4013 -0.5748 -0.2157
 6343TIP3   OH240519   6.523   6.818   5.864  0.0190 -0.5136  0.3400
 6343TIP3    H140520   6.431   6.792   5.873 -0.4381  0.6388 -0.7758
 6343TIP3    H240521   6.522   6.912   5.882  0.7595 -0.2394 -1.0457
 6344TIP3   OH240522   0.387   2.225   2.914  0.1236 -0.0201  0.1938
 6344TIP3    H140523   0.311   2.282   2.918  0.7911  0.7732  3.5892
 6344TIP3    H240524   0.352   2.139   2.894 -1.3180  0.8591 -1.1777
 6345TIP3   OH240525   5.335   3.871  11.324 -0.0625  0.6084 -0.4091
 6345TIP3    H140526   5.361   3.871  11.232 -1.0967  1.8492 -0.7194
 6345TIP3    H240527   5.327   3.778  11.346  1.9140  0.2542 -1.0514
 6346TIP3   OH240528   2.082   5.716  15.080  0.2436  0.1237  0.1269
 6346TIP3    H140529   2.010   5.763  15.122 -0.1688 -1.5560  1.3462
 6346TIP3    H240530   2.101   5.767  15.001 -2.9032  0.1143 -0.6970
 6347TIP3   OH240531   0.959   5.490   4.427 -0.7349 -0.1240  0.2709
 6347TIP3    H140532   0.956   5.582   4.453  0.2463  0.0969 -0.3854
 6347TIP3    H240533   0.927   5.489   4.337 -2.0317 -0.6060  0.7263
 6348TIP3   OH240534   4.004   3.667   1.346 -0.5976 -0.0130  0.1951
 6348TIP3    H140535   4.057   3.587   1.339 -1.1706 -0.5871  2.0909
 6348TIP3    H240536   4.005   3.688   1.439 -1.4643  1.5191 -0.1267
 6349TIP3   OH240537   6.171   3.057  15.390 -0.1776 -0.0904 -0.0446
 6349TIP3    H140538   6.186   3.145  15.358  0.1534  0.3144  1.1835
 6349TIP3    H240539   6.076   3.048  15.394 -0.2231  0.8481  1.4890
 6350TIP3   OH240540   2.565   1.578  13.520  0.2909 -0.1444  0.4839
 6350TIP3    H140541   2.498   1.641  13.494  0.3681  0.5863  1.9972
 6350TIP3    H240542   2.588   1.532  13.439 -0.9464  0.6408 -0.3219
 6351TIP3   OH240543   5.168   1.791  17.122 -0.1996 -0.5411  0.3066
 6351TIP3    H140544   5.213   1.708  17.137 -0.0718 -1.0704 -2.6567
 6351TIP3    H240545   5.234   1.846  17.078 -0.7830  0.5747  0.8118
 6352TIP3   OH240546   5.812   5.924  13.067  0.4519  0.0717 -0.0087
 6352TIP3    H140547   5.889   5.887  13.110 -0.3660 -1.0567  0.5170
 6352TIP3    H240548   5.775   5.850  13.018  0.1249  0.7904 -0.8569
 6353TIP3   OH240549   6.460   4.490   4.468  0.0504 -0.2570 -0.0120
 6353TIP3    H140550   6.490   4.560   4.527 -2.9925  1.3732 -0.2622
 6353TIP3    H240551   6.537   4.466   4.417  1.9209  0.6954  2.2637
 6354TIP3   OH240552   5.863   0.858   2.359  0.0628 -0.2571  0.2435
 6354TIP3    H140553   5.768   0.848   2.360  0.1387 -1.3763 -1.3238
 6354TIP3    H240554   5.878   0.945   2.321 -0.3010 -1.5609 -3.0475
 6355TIP3   OH240555   6.447   1.344  11.922  0.0188 -0.0085 -1.0914
 6355TIP3    H140556   6.510   1.318  11.989 -1.3373  0.6482  0.4781
 6355TIP3    H240557   6.430   1.264  11.872 -0.5108 -1.0252  0.6722
 6356TIP3   OH240558   5.142   4.065  11.073  0.2556  0.1141  0.0143
 6356TIP3    H140559   5.128   4.104  10.987  1.0567  2.4383  0.8973
 6356TIP3    H240560   5.218   4.009  11.062  0.9193  1.1221 -0.5876
 6357TIP3   OH240561   3.547   1.338   0.796 -0.0225 -0.4338  0.0976
 6357TIP3    H140562   3.461   1.374   0.820  0.7647 -0.3288  2.8235
 6357TIP3    H240563   3.540   1.323   0.701 -2.8627  0.0703  0.1758
 6358TIP3   OH240564   5.524   1.514  11.393  0.0967 -0.1402  0.0197
 6358TIP3    H140565   5.508   1.541  11.302 -1.2069 -0.2777  0.2039
 6358TIP3    H240566   5.601   1.457  11.388  0.4796  0.4418 -0.8951
 6359TIP3   OH240567   4.319   4.066  10.514 -0.0425  0.3236 -0.4961
 6359TIP3    H140568   4.266   4.128  10.465 -0.7559 -0.9988 -1.4211
 6359TIP3    H240569   4.408   4.103  10.511 -0.6151  1.7497 -0.2498
 6360TIP3   OH240570   4.375   2.666   4.865  0.3454  0.3309  0.3947
 6360TIP3    H140571   4.372   2.711   4.950  0.4001 -1.6814  1.4881
 6360TIP3    H240572   4.468   2.661   4.844  0.2542  2.7062 -0.8672
 6361TIP3   OH240573   2.416   4.185  14.068 -0.1428  0.1408 -0.2511
 6361TIP3    H140574   2.385   4.275  14.075 -2.4887 -0.5738 -0.9732
 6361TIP3    H240575   2.498   4.191  14.018  0.1240  1.9216  0.3620
 6362TIP3   OH240576   0.043   4.304   5.943 -0.1352 -0.0971 -0.2091
 6362TIP3    H140577   0.084   4.390   5.952  0.7920 -0.3536 -1.7726
 6362TIP3    H240578   0.061   4.260   6.026  0.4525  0.7651  0.1290
 6363TIP3   OH240579   3.804   2.652   3.469 -0.2251 -0.4273 -0.9045
 6363TIP3    H140580   3.843   2.686   3.550 -1.9739  0.8740 -0.5761
 6363TIP3    H240581   3.745   2.722   3.440 -1.6170 -1.9865 -1.8836
 6364TIP3   OH240582   3.522   1.711  15.954 -0.1385 -0.4243  0.2180
 6364TIP3    H140583   3.583   1.775  15.991  0.4796 -0.2329 -1.0893
 6364TIP3    H240584   3.448   1.711  16.015  0.4964  0.4523  1.0235
 6365TIP3   OH240585   5.844   2.962   0.540 -0.3304 -0.7214  0.6738
 6365TIP3    H140586   5.885   2.879   0.564 -0.1976 -0.4693  1.3104
 6365TIP3    H240587   5.798   2.990   0.619  1.1565  0.7452  1.0184
 6366TIP3   OH240588   2.847   4.804   0.234 -0.0978  0.5090 -0.4614
 6366TIP3    H140589   2.882   4.715   0.228 -0.5836  0.1946  1.1010
 6366TIP3    H240590   2.802   4.818   0.151 -0.5737 -0.9550 -0.4648
 6367TIP3   OH240591   4.988   6.258   4.271  0.0726 -0.4212 -0.5355
 6367TIP3    H140592   5.006   6.336   4.323  2.0964 -0.0494 -1.7375
 6367TIP3    H240593   4.968   6.292   4.183  0.5893 -1.2228 -0.9671
 6368TIP3   OH240594   3.744   4.376   2.638 -0.1951 -0.3272  0.3199
 6368TIP3    H140595   3.794   4.400   2.560  1.7418 -3.8825  0.3404
 6368TIP3    H240596   3.653   4.394   2.615  0.6724  2.3200 -1.2997
 6369TIP3   OH240597   1.107   0.215   3.453 -0.2225  0.8076 -0.7253
 6369TIP3    H140598   1.187   0.163   3.454 -0.3702  0.5975  1.3483
 6369TIP3    H240599   1.059   0.187   3.531 -1.5551  2.1034 -1.0661
 6370TIP3   OH240600   2.504   2.299  13.845 -0.0272  0.0812 -0.3406
 6370TIP3    H140601   2.432   2.323  13.903 -0.3941 -0.8472 -0.4040
 6370TIP3    H240602   2.583   2.309  13.898 -0.3374 -0.4481  0.2152
 6371TIP3   OH240603   5.507   6.460   3.904  0.3191  0.2058 -0.4104
 6371TIP3    H140604   5.510   6.429   3.994 -0.5639 -0.8148 -0.7262
 6371TIP3    H240605   5.430   6.418   3.866 -0.0221  1.5899 -1.2848
 6372TIP3   OH240606   3.536   3.607  14.133  0.2129  0.0083  0.1833
 6372TIP3    H140607   3.604   3.580  14.071 -0.3556  1.9701 -1.3242
 6372TIP3    H240608   3.584   3.650  14.204  0.6818 -0.0913 -0.0685
 6373TIP3   OH240609   3.056   6.530  14.264  0.0501  0.1502  0.3102
 6373TIP3    H140610   2.964   6.540  14.288 -0.9811 -0.7756 -3.1110
 6373TIP3    H240611   3.088   6.459  14.320 -1.0394  1.0297  2.1113
 6374TIP3   OH240612   0.217   0.438  12.279  0.2360 -0.5800 -0.1062
 6374TIP3    H140613   0.265   0.372  12.329 -0.0547 -1.7050 -1.2879
 6374TIP3    H240614   0.164   0.484  12.344  1.1995 -0.8299  0.8784
 6375TIP3   OH240615   5.875   0.621  11.330  0.4297  0.3393  0.2603
 6375TIP3    H140616   5.910   0.706  11.357 -1.9409  1.9133 -1.3860
 6375TIP3    H240617   5.818   0.594  11.401  0.3075  0.6874  0.2961
 6376TIP3   OH240618   0.255   4.015  16.103  0.5628 -0.2312  0.1198
 6376TIP3    H140619   0.342   4.049  16.084  0.1210  1.2906  0.7248
 6376TIP3    H240620   0.265   3.969  16.187  1.4682 -2.8507 -1.3779
 6377TIP3   OH240621   0.556   2.702  11.011 -0.3427 -0.3580 -0.2846
 6377TIP3    H140622   0.460   2.702  11.005 -0.6564 -0.1876  3.4015
 6377TIP3    H240623   0.579   2.795  11.018  0.0817 -0.4170 -0.8516
 6378TIP3   OH240624   1.127   5.109   6.042  0.2054 -0.3998  0.0542
 6378TIP3    H140625   1.088   5.191   6.070 -0.1584 -1.2370  2.1116
 6378TIP3    H240626   1.152   5.065   6.123  1.4321 -1.8240 -1.0468
 6379TIP3   OH240627   6.114   5.396  11.838  0.0340  0.1259 -0.0593
 6379TIP3    H140628   6.190   5.451  11.857 -0.1501 -0.3675  2.1697
 6379TIP3    H240629   6.058   5.451  11.783  1.0444  1.2265 -0.0095
 6380TIP3   OH240630   4.609   1.713  11.151  0.8124  0.0958  0.0993
 6380TIP3    H140631   4.667   1.658  11.202  1.7434  0.1067 -0.9271
 6380TIP3    H240632   4.665   1.750  11.082 -0.3312  0.3632 -0.7026
 6381TIP3   OH240633   6.473   3.957  15.849 -0.0609 -0.6890  0.0612
 6381TIP3    H140634   6.466   3.862  15.856  1.1145 -0.8990 -1.3737
 6381TIP3    H240635   6.384   3.989  15.864 -0.0445 -1.8316  2.9480
 6382TIP3   OH240636   0.616   4.591   3.132  0.1753 -0.1141  0.4969
 6382TIP3    H140637   0.712   4.597   3.134  0.1894 -0.3276  0.5182
 6382TIP3    H240638   0.587   4.638   3.210  0.3229 -1.1233  1.1839
 6383TIP3   OH240639   0.762   2.838   6.028 -0.0879  0.5780 -0.3782
 6383TIP3    H140640   0.850   2.845   5.992  0.4742 -0.0782  0.8261
 6383TIP3    H240641   0.770   2.871   6.117 -1.1368  0.8233 -0.3707
 6384TIP3   OH240642   4.489   2.371  12.910 -0.9171 -0.1940  0.0365
 6384TIP3    H140643   4.421   2.314  12.874 -1.2361  0.5529 -0.5418
 6384TIP3    H240644   4.568   2.318  12.908 -1.2223 -0.6305 -0.4723
 6385TIP3   OH240645   1.164   4.230   0.739 -0.1089 -0.1276 -0.0678
 6385TIP3    H140646   1.143   4.190   0.655 -0.0100 -0.4030  0.0373
 6385TIP3    H240647   1.127   4.318   0.734 -0.8530 -0.4410 -0.0695
 6386TIP3   OH240648   4.203   6.386  16.721 -0.0783 -0.0617 -0.4418
 6386TIP3    H140649   4.204   6.389  16.816  0.2786 -1.2747 -0.3978
 6386TIP3    H240650   4.110   6.389  16.698 -0.0955  2.2907 -0.1487
 6387TIP3   OH240651   4.236   2.273  15.946  0.3210 -0.5692  0.7414
 6387TIP3    H140652   4.320   2.235  15.972 -0.4292 -2.9441 -0.1611
 6387TIP3    H240653   4.237   2.269  15.850 -0.2561  0.6746  0.6772
 6388TIP3   OH240654   6.647   1.290  16.023  0.2102  0.3202  0.2587
 6388TIP3    H140655   6.633   1.198  16.002  0.1169  0.2357  0.6855
 6388TIP3    H240656   6.636   1.336  15.940  2.1701 -0.2596 -0.3482
 6389TIP3   OH240657   2.080   5.109   2.952 -0.0042 -0.5068 -0.3111
 6389TIP3    H140658   2.035   5.186   2.986 -0.4037  0.2641 -2.5344
 6389TIP3    H240659   2.044   5.035   3.002 -2.1638  0.3352 -0.6046
 6390TIP3   OH240660   1.030   6.606  16.282  0.0724 -0.6097 -0.4097
 6390TIP3    H140661   1.061   6.683  16.235 -0.5851  0.4041  0.7976
 6390TIP3    H240662   0.965   6.567  16.224  0.9350 -0.6797 -1.3415
 6391TIP3   OH240663   0.319   0.710  12.291 -0.8863  0.7269 -0.2395
 6391TIP3    H140664   0.304   0.616  12.303  0.1338  0.6859  0.9350
 6391TIP3    H240665   0.341   0.719  12.199 -2.2851  0.0050 -0.6643
 6392TIP3   OH240666   5.448   6.348   1.229  0.3498  0.2392 -0.2352
 6392TIP3    H140667   5.437   6.414   1.161 -0.0264  0.0191 -0.3888
 6392TIP3    H240668   5.370   6.292   1.222  0.5787 -0.1142  0.0105
 6393TIP3   OH240669   2.583   0.566  17.140 -0.2752 -0.1992 -0.1976
 6393TIP3    H140670   2.539   0.498  17.191 -0.1922 -2.0122 -2.4700
 6393TIP3    H240671   2.673   0.534  17.130  0.0356  0.7284 -0.4406
 6394TIP3   OH240672   0.162   4.823  13.028  0.1760  0.5157  0.1845
 6394TIP3    H140673   0.108   4.773  13.089 -0.5341  0.2159 -0.6839
 6394TIP3    H240674   0.102   4.886  12.988  0.7480  1.0702  0.1877
 6395TIP3   OH240675   4.248   0.609  16.784 -0.4726  0.1290  0.5339
 6395TIP3    H140676   4.249   0.655  16.700 -0.0505  0.2588  0.6093
 6395TIP3    H240677   4.204   0.670  16.843 -0.3415  0.2370  0.5186
 6396TIP3   OH240678   0.142   0.973  12.935 -0.1542 -0.2130 -0.3861
 6396TIP3    H140679   0.076   0.931  12.880  0.6611 -2.4115  0.2320
 6396TIP3    H240680   0.151   0.913  13.010  2.4142  0.1109 -0.4008
 6397TIP3   OH240681   3.032   2.268  15.430 -0.4909 -0.6676  0.0437
 6397TIP3    H140682   3.126   2.253  15.444 -0.5159 -0.4416  0.4462
 6397TIP3    H240683   3.013   2.349  15.477 -0.5002  0.3122 -1.5922
 6398TIP3   OH240684   5.847   0.791  10.954 -0.4710  0.2960 -0.6607
 6398TIP3    H140685   5.882   0.875  10.983  2.0396 -1.4346  1.6010
 6398TIP3    H240686   5.864   0.789  10.860  2.1267  1.1405 -0.2518
 6399TIP3   OH240687   5.043   6.210   5.847 -0.2260 -0.2290  0.2202
 6399TIP3    H140688   5.096   6.163   5.782 -0.2047 -0.5110  0.4419
 6399TIP3    H240689   4.971   6.150   5.867  0.6424 -0.8010  1.6492
 6400TIP3   OH240690   6.011   6.478  16.537 -0.6894 -0.6172  0.2173
 6400TIP3    H140691   6.070   6.523  16.599  1.5871 -0.8050 -1.7360
 6400TIP3    H240692   5.991   6.544  16.471  0.1085 -1.5056 -0.9492
 6401TIP3   OH240693   1.306   1.403   5.784  0.0911  0.2355  0.5355
 6401TIP3    H140694   1.318   1.487   5.741 -0.8025  0.7728  1.3034
 6401TIP3    H240695   1.266   1.425   5.868 -0.3138 -0.9664  0.6659
 6402TIP3   OH240696   1.195   1.813  12.161 -0.7952  0.6097 -0.1619
 6402TIP3    H140697   1.213   1.850  12.247 -0.2593 -0.6958  0.2934
 6402TIP3    H240698   1.104   1.837  12.143 -3.4040 -5.0557  3.9531
 6403TIP3   OH240699   2.837   1.350  12.363  0.7359  0.3466  0.2059
 6403TIP3    H140700   2.859   1.437  12.397  0.5334  0.3209  0.4035
 6403TIP3    H240701   2.885   1.289  12.420  2.6470  0.4015 -1.2920
 6404TIP3   OH240702   0.221   4.118   3.722 -0.2513 -0.0014  0.0328
 6404TIP3    H140703   0.178   4.171   3.655  1.0477  0.9314 -0.0906
 6404TIP3    H240704   0.229   4.177   3.797  2.1742  0.3624 -0.4622
 6405TIP3   OH240705   1.350   3.135  13.757  0.0626  1.0625  0.3405
 6405TIP3    H140706   1.280   3.197  13.735 -0.5171  0.2029 -0.2951
 6405TIP3    H240707   1.350   3.132  13.853  0.6304  2.6285  0.4056
 6406TIP3   OH240708   5.637   5.485   4.978  0.5637 -0.5520 -0.4479
 6406TIP3    H140709   5.709   5.490   5.041  0.8693  0.9378 -0.8942
 6406TIP3    H240710   5.656   5.553   4.914 -0.7234 -0.8135 -1.1370
 6407TIP3   OH240711   0.794   3.897   6.304 -0.6459  0.6757  0.3865
 6407TIP3    H140712   0.803   3.949   6.384  1.3890 -1.7135  1.7493
 6407TIP3    H240713   0.861   3.931   6.245  0.8686 -0.5803  1.3781
 6408TIP3   OH240714   5.571   1.706   5.983  0.3585  0.6876 -0.1918
 6408TIP3    H140715   5.653   1.681   5.941  0.7447  0.6604  0.5590
 6408TIP3    H240716   5.597   1.768   6.051 -0.3715  1.5382 -0.6810
 6409TIP3   OH240717   1.128   4.064  16.058 -0.4078  0.2029  0.3268
 6409TIP3    H140718   1.107   3.983  16.104 -1.7881  0.6358  0.4818
 6409TIP3    H240719   1.196   4.105  16.112  1.4258 -1.5707 -0.5708
 6410TIP3   OH240720   0.748   4.248   1.861  0.5600  0.3767 -0.3959
 6410TIP3    H140721   0.778   4.300   1.786  1.7298 -0.4762 -0.5451
 6410TIP3    H240722   0.706   4.172   1.821 -1.8081  1.5317 -0.1854
 6411TIP3   OH240723   0.574   4.961  15.058 -0.1197 -0.6043 -0.7212
 6411TIP3    H140724   0.645   4.958  15.122 -1.5422  1.3488  1.0277
 6411TIP3    H240725   0.528   4.878  15.069 -0.8068  0.0260  1.3524
 6412TIP3   OH240726   5.272   2.680   2.116 -0.0339  0.2338  0.1477
 6412TIP3    H140727   5.278   2.668   2.022 -1.7252  1.3702 -0.1293
 6412TIP3    H240728   5.308   2.768   2.132 -1.8267  0.9756  0.2568
 6413TIP3   OH240729   2.963   6.457  13.561 -0.7385  0.7281  0.1202
 6413TIP3    H140730   2.905   6.445  13.485  0.0936 -1.7319 -0.1894
 6413TIP3    H240731   3.050   6.466  13.522 -0.2782 -0.7831  0.7588
 6414TIP3   OH240732   1.812   6.359   3.913  0.0689  0.0002 -0.0263
 6414TIP3    H140733   1.846   6.448   3.925 -0.4945  0.0637  1.2054
 6414TIP3    H240734   1.889   6.303   3.918  0.2235  0.2861  0.8374
 6415TIP3   OH240735   4.142   1.107  16.019 -0.4574 -0.0709 -0.0052
 6415TIP3    H140736   4.051   1.112  16.048 -1.2757 -0.4632 -2.3970
 6415TIP3    H240737   4.142   1.039  15.951  1.7172 -0.4127  0.2860
 6416TIP3   OH240738   0.712   0.896  16.217 -0.9417  0.2596  0.5407
 6416TIP3    H140739   0.640   0.874  16.276 -2.2045  0.5597 -0.8447
 6416TIP3    H240740   0.726   0.990  16.228  1.7204 -0.3880  3.4668
 6417TIP3   OH240741   1.447   4.319  12.923 -0.6555  0.8606  0.2132
 6417TIP3    H140742   1.394   4.270  12.860 -0.9954  0.6252  0.6838
 6417TIP3    H240743   1.490   4.386  12.870  0.2745 -0.3050 -0.5487
 6418TIP3   OH240744   5.840   2.588  17.241 -0.0383 -0.2983  0.2617
 6418TIP3    H140745   5.828   2.677  17.209 -0.1539  0.1215  1.4570
 6418TIP3    H240746   5.857   2.536  17.162 -2.6787  0.2950 -0.7609
 6419TIP3   OH240747   3.515   6.643   1.856 -0.4375 -0.1578  0.4871
 6419TIP3    H140748   3.530   6.592   1.935 -0.5751  1.1711  1.4041
 6419TIP3    H240749   3.421   6.633   1.839 -0.3913 -0.5182  0.4469
 6420TIP3   OH240750   6.721   0.731  12.428  0.3310 -0.4172  0.2727
 6420TIP3    H140751   6.699   0.638  12.432 -0.0294 -0.2933  1.4164
 6420TIP3    H240752   6.805   0.738  12.474  0.0016 -0.0849  0.8396
 6421TIP3   OH240753   0.434   5.637   1.562  0.0531 -0.1281 -0.0229
 6421TIP3    H140754   0.449   5.668   1.652 -1.3284 -0.0459  0.1924
 6421TIP3    H240755   0.376   5.562   1.572  0.5240 -0.6049 -0.8035
 6422TIP3   OH240756   4.394   3.597   2.785  0.1885  0.0978  0.4863
 6422TIP3    H140757   4.458   3.537   2.746 -0.0328 -0.7470  1.3892
 6422TIP3    H240758   4.310   3.569   2.748  0.1470  0.1650  0.5315
 6423TIP3   OH240759   4.717   2.644   4.187  0.6136 -0.1966  0.0794
 6423TIP3    H140760   4.766   2.641   4.269  0.2962  2.1217  0.3742
 6423TIP3    H240761   4.783   2.658   4.120  0.6742 -0.1543  0.1474
 6424TIP3   OH240762   1.279   0.588   2.222  0.0841  0.2584  0.4140
 6424TIP3    H140763   1.349   0.542   2.269 -0.3174 -0.3574  0.4116
 6424TIP3    H240764   1.227   0.629   2.291  0.8743  1.3507  0.3822
 6425TIP3   OH240765   5.797   0.600  17.207 -0.4173  0.0076  0.1074
 6425TIP3    H140766   5.863   0.667  17.186 -0.6387 -0.3263 -1.8116
 6425TIP3    H240767   5.843   0.537  17.262  1.4896 -1.2267 -2.7573
 6426TIP3   OH240768   4.913   0.701  10.441  0.1631  0.6902 -0.1673
 6426TIP3    H140769   4.867   0.619  10.457  3.3184 -0.8273  1.5626
 6426TIP3    H240770   4.868   0.765  10.497 -1.7351 -0.0239 -0.8424
 6427TIP3   OH240771   2.445   0.023   1.717  0.0571  0.3981  0.5200
 6427TIP3    H140772   2.435   0.082   1.792  0.7189  0.1621  0.7927
 6427TIP3    H240773   2.473  -0.060   1.756 -0.5438  0.0007  0.1038
 6428TIP3   OH240774   3.377   1.674   5.585  0.4096  0.2067 -0.1973
 6428TIP3    H140775   3.303   1.719   5.627  1.9556  1.5751  1.1439
 6428TIP3    H240776   3.439   1.659   5.656  0.7356 -2.4469 -0.9863
 6429TIP3   OH240777   0.058   1.892   1.999  0.3214  0.1990  0.4328
 6429TIP3    H140778   0.123   1.822   1.989  0.5900  0.6681 -1.1736
 6429TIP3    H240779   0.003   1.863   2.072  0.1378 -1.9254 -0.5090
 6430TIP3   OH240780   1.938   2.146   3.978  0.1422 -0.2060 -0.0677
 6430TIP3    H140781   1.982   2.194   3.908 -0.5349 -0.3650 -0.6002
 6430TIP3    H240782   1.939   2.055   3.949 -0.1670 -0.2681  0.1145
 6431TIP3   OH240783   5.722   6.027  16.350 -0.4166  0.2406  0.2247
 6431TIP3    H140784   5.722   6.074  16.433 -0.0779 -1.4800  1.2388
 6431TIP3    H240785   5.631   5.998  16.339 -0.3683  0.0914  0.2182
 6432TIP3   OH240786   5.181   4.227   0.358 -0.3019 -0.4765  0.2292
 6432TIP3    H140787   5.236   4.237   0.436  0.7080  1.2498 -0.6663
 6432TIP3    H240788   5.236   4.260   0.286 -2.2057  0.4856 -0.8081
 6433TIP3   OH240789   6.373   6.765  14.522  0.7117 -0.3083  0.1980
 6433TIP3    H140790   6.436   6.802  14.584  0.3266 -1.6332  1.3813
 6433TIP3    H240791   6.336   6.690  14.567 -2.5568  1.0856 -0.0672
 6434TIP3   OH240792   1.305   1.661   0.945  0.2465  0.7487  0.1805
 6434TIP3    H140793   1.300   1.570   0.975  0.7805  0.8790  0.6816
 6434TIP3    H240794   1.214   1.687   0.934  0.0611  0.4460  0.9442
 6435TIP3   OH240795   2.881   2.246   4.894 -0.5587  0.0393 -0.3946
 6435TIP3    H140796   2.933   2.308   4.945  0.4857 -1.8712  0.9170
 6435TIP3    H240797   2.908   2.260   4.803  0.5969  0.6128  0.0403
 6436TIP3   OH240798   1.026   0.898   4.595 -0.1162 -0.6868  0.1557
 6436TIP3    H140799   1.120   0.880   4.592  0.0847  0.1189  1.3811
 6436TIP3    H240800   0.991   0.831   4.655  0.0389  0.4925  1.5797
 6437TIP3   OH240801   4.212   4.271  13.889  0.1978 -0.4154 -0.1580
 6437TIP3    H140802   4.212   4.176  13.885 -1.8778 -0.4969  0.8128
 6437TIP3    H240803   4.137   4.297  13.834  1.5227  0.7265 -1.4694
 6438TIP3   OH240804   0.744   4.136   2.951  0.0700 -0.1108 -0.2209
 6438TIP3    H140805   0.735   4.160   2.859 -0.6679 -1.9396 -0.6594
 6438TIP3    H240806   0.828   4.174   2.978 -0.4295  1.7713 -1.1940
 6439TIP3   OH240807   6.784   0.756  13.718  0.5840  0.3532  0.3281
 6439TIP3    H140808   6.720   0.686  13.730  0.1225  0.5916 -0.6387
 6439TIP3    H240809   6.825   0.767  13.803 -0.2884 -0.1753  0.8212
 6440TIP3   OH240810   2.848   5.490   4.178 -0.4258 -0.2925 -0.2168
 6440TIP3    H140811   2.882   5.409   4.218  0.8640  0.8787  1.1009
 6440TIP3    H240812   2.838   5.550   4.252 -0.0222  1.2151 -1.3815
 6441TIP3   OH240813   1.776   4.512   5.414  0.1808 -0.0743 -0.4072
 6441TIP3    H140814   1.859   4.466   5.411  0.1215 -0.1518 -0.9642
 6441TIP3    H240815   1.710   4.445   5.394  0.0909  0.2265 -1.1796
 6442TIP3   OH240816   2.517   4.578   4.106  0.0116  0.1389 -0.3470
 6442TIP3    H140817   2.547   4.614   4.190 -2.8762  0.4342  0.6176
 6442TIP3    H240818   2.496   4.486   4.125 -0.4774  0.1553 -0.7734
 6443TIP3   OH240819   2.168   4.051   5.764 -0.1916  0.4432 -0.2971
 6443TIP3    H140820   2.195   3.962   5.744 -0.9843 -0.0844  0.9217
 6443TIP3    H240821   2.248   4.103   5.758  0.5709 -0.6114  0.4987
 6444TIP3   OH240822   2.684   5.616  11.374  0.4599  0.1606 -0.0118
 6444TIP3    H140823   2.628   5.692  11.384 -0.0050 -0.3777  1.6424
 6444TIP3    H240824   2.624   5.543  11.358  0.9320  0.1986 -2.1840
 6445TIP3   OH240825   4.013   4.897   4.334  0.2035 -0.8711  0.4062
 6445TIP3    H140826   3.965   4.881   4.253  0.8918 -1.5911  0.1355
 6445TIP3    H240827   3.951   4.876   4.404 -0.8622  1.0788  0.0989
 6446TIP3   OH240828   2.226   5.294  16.084 -0.6131  0.3298 -0.0134
 6446TIP3    H140829   2.184   5.280  15.999  0.0259 -1.1495 -0.0909
 6446TIP3    H240830   2.278   5.216  16.099 -0.6676  0.5971  1.7209
 6447TIP3   OH240831   4.434   4.952   2.448  0.2696  0.0194 -0.2137
 6447TIP3    H140832   4.404   5.039   2.475 -0.1741 -0.1999  0.0058
 6447TIP3    H240833   4.359   4.894   2.465 -0.0628 -0.1138 -1.9888
 6448TIP3   OH240834   0.020   0.493  13.179  0.2714 -0.1566 -0.1846
 6448TIP3    H140835   0.086   0.517  13.244  0.8227 -2.7548  0.2968
 6448TIP3    H240836  -0.004   0.575  13.136  1.3839  1.2994  1.9122
 6449TIP3   OH240837   3.773   6.525  13.033 -0.5138 -0.3203  0.3751
 6449TIP3    H140838   3.772   6.613  13.070 -2.2374 -0.4179  0.6158
 6449TIP3    H240839   3.853   6.485  13.068  0.4282  1.2273  0.0278
 6450TIP3   OH240840   2.453   2.297   1.824  0.3595 -0.0014 -1.0282
 6450TIP3    H140841   2.525   2.308   1.763 -0.0726 -0.6870 -1.6738
 6450TIP3    H240842   2.418   2.385   1.837  1.8691  0.4578 -0.0143
 6451TIP3   OH240843   6.684   5.968  15.003 -0.5703  0.5541  0.5060
 6451TIP3    H140844   6.638   5.957  15.086  2.2292 -0.9440  1.8744
 6451TIP3    H240845   6.710   6.060  15.002  0.4800  0.2655  1.8432
 6452TIP3   OH240846   3.882   5.587   1.797  1.0128 -0.1893 -0.2500
 6452TIP3    H140847   3.967   5.630   1.786  1.0953 -0.1593  0.4893
 6452TIP3    H240848   3.899   5.518   1.861  0.5324 -0.3448 -0.2890
 6453TIP3   OH240849   5.122   4.498   1.987 -0.4979  0.1721  0.1737
 6453TIP3    H140850   5.161   4.429   2.041 -0.3484 -0.0135 -0.1732
 6453TIP3    H240851   5.039   4.460   1.957  0.5766 -0.6809 -1.7912
 6454TIP3   OH240852   3.268   3.192  16.962 -0.2814 -1.0220 -0.2655
 6454TIP3    H140853   3.186   3.168  17.004 -0.7792 -1.2651 -1.3651
 6454TIP3    H240854   3.265   3.288  16.956  0.0188 -0.9493  0.7028
 6455TIP3   OH240855   3.990   6.265  13.250  0.1074 -0.3002 -0.5718
 6455TIP3    H140856   4.058   6.241  13.313 -0.4045 -0.9388 -0.2548
 6455TIP3    H240857   4.030   6.333  13.196  1.1421 -0.9626 -0.6482
 6456TIP3   OH240858   6.284   3.475  12.079  0.2797  0.1325  0.5279
 6456TIP3    H140859   6.230   3.487  12.157  0.3404  2.8844  0.2191
 6456TIP3    H240860   6.226   3.435  12.015 -0.5347  0.2649  1.1727
 6457TIP3   OH240861   6.366   2.553  11.258  0.6151 -0.0607 -0.2470
 6457TIP3    H140862   6.375   2.596  11.343 -0.6487 -0.6589  0.2092
 6457TIP3    H240863   6.401   2.616  11.195 -1.7166  1.9153  0.3416
 6458TIP3   OH240864   2.281   0.273   3.287 -0.1454 -0.1282  0.9070
 6458TIP3    H140865   2.351   0.312   3.339  0.5335 -0.1324  0.0034
 6458TIP3    H240866   2.325   0.233   3.212 -1.0730 -0.4624  0.5269
 6459TIP3   OH240867   5.975   5.266  13.550 -0.2836  0.4975  0.1620
 6459TIP3    H140868   6.058   5.239  13.589  0.6247  2.2937 -0.5020
 6459TIP3    H240869   5.994   5.275  13.457 -1.0741  1.4526  0.0822
 6460TIP3   OH240870   5.022   2.132  15.627  0.0182  0.1861 -0.3130
 6460TIP3    H140871   5.011   2.226  15.639  1.5652  0.5994 -1.8732
 6460TIP3    H240872   5.006   2.118  15.533  0.0767 -1.0589 -0.1458
 6461TIP3   OH240873   1.900   0.320   4.976 -0.3541 -0.4298  0.0924
 6461TIP3    H140874   1.918   0.401   5.023 -3.5803  0.0862  0.5960
 6461TIP3    H240875   1.888   0.254   5.044  0.1044 -0.8612 -0.2354
 6462TIP3   OH240876   1.239   1.775   5.422 -0.0099 -0.3298 -0.3210
 6462TIP3    H140877   1.187   1.751   5.345  0.4713 -0.1689 -0.6984
 6462TIP3    H240878   1.246   1.870   5.417 -0.3509 -0.2800  0.1642
 6463TIP3   OH240879   6.538   4.547   5.359  0.3027 -0.1180  0.3764
 6463TIP3    H140880   6.444   4.561   5.345  0.3593  0.9301  0.9809
 6463TIP3    H240881   6.551   4.563   5.452  1.0563 -0.4147  0.3249
 6464TIP3   OH240882   1.010   1.864   4.907 -0.0639  0.5744 -0.0714
 6464TIP3    H140883   1.105   1.870   4.897  0.2617 -0.9297  1.8471
 6464TIP3    H240884   0.991   1.771   4.896 -1.3510  0.8886 -0.6339
 6465TIP3   OH240885   0.326   0.059   3.794 -0.0038  0.1176 -0.0819
 6465TIP3    H140886   0.345   0.063   3.701 -1.6564  3.3423 -0.3469
 6465TIP3    H240887   0.293  -0.030   3.808  0.7518 -0.5732 -2.4457
 6466TIP3   OH240888   1.922   6.044   6.255  0.5637  0.5573  0.0430
 6466TIP3    H140889   1.884   5.958   6.272  1.9075  0.1133  0.9065
 6466TIP3    H240890   1.892   6.099   6.328 -0.6756  0.9578 -0.7563
 6467TIP3   OH240891   3.329   4.805   4.797  0.0214  0.1106 -0.5172
 6467TIP3    H140892   3.296   4.849   4.719 -0.1464 -0.4546 -0.7718
 6467TIP3    H240893   3.293   4.716   4.791 -0.5051  0.2534  0.5316
 6468TIP3   OH240894   1.264   0.950   3.232 -0.0123 -0.0502 -0.5575
 6468TIP3    H140895   1.272   0.931   3.138  1.7339 -1.4985 -0.1317
 6468TIP3    H240896   1.347   0.992   3.255 -0.4451  0.3233  0.3445
 6469TIP3   OH240897   0.317   3.145   5.567 -0.0343 -0.1637  0.3681
 6469TIP3    H140898   0.319   3.102   5.481  0.3675  0.9889 -0.2155
 6469TIP3    H240899   0.341   3.077   5.629  0.6802 -0.7559 -0.5483
 6470TIP3   OH240900   1.366   5.748   0.374 -0.1681  0.4843  0.5840
 6470TIP3    H140901   1.453   5.781   0.352  0.2568 -1.8393 -1.4223
 6470TIP3    H240902   1.382   5.670   0.425 -1.1242  1.2009  2.0126
 6471TIP3   OH240903   5.303   6.119   1.172  0.0647  0.0129 -0.2845
 6471TIP3    H140904   5.209   6.124   1.155  0.0966 -0.9471 -0.7528
 6471TIP3    H240905   5.319   6.027   1.193  1.3102 -0.3086 -2.5623
 6472TIP3   OH240906   1.384   3.938   1.109 -0.0578 -0.6076  0.2536
 6472TIP3    H140907   1.385   3.865   1.047 -1.6366 -1.1664  0.8805
 6472TIP3    H240908   1.319   3.998   1.075 -1.0161 -0.9670  1.4086
 6473TIP3   OH240909   0.627   4.075   1.288  0.4397  0.3446 -0.5282
 6473TIP3    H140910   0.663   4.108   1.206  0.0357  1.8869 -0.1090
 6473TIP3    H240911   0.546   4.124   1.300  0.1366 -0.3766  0.4384
 6474TIP3   OH240912   4.659   1.223  14.798  0.3982  0.0727 -0.4550
 6474TIP3    H140913   4.656   1.163  14.872  0.2762  0.4341 -0.1620
 6474TIP3    H240914   4.735   1.278  14.814 -0.2892  0.9052  0.0059
 6475TIP3   OH240915   6.194   6.530   4.121 -0.1712 -0.5947 -0.2288
 6475TIP3    H140916   6.172   6.559   4.209  2.0033  0.7573 -0.1010
 6475TIP3    H240917   6.136   6.582   4.064  0.3444  0.5445  0.2647
 6476TIP3   OH240918   3.849   3.804   3.182 -0.0578 -0.1946  0.5949
 6476TIP3    H140919   3.941   3.797   3.157 -0.1287 -1.7330  0.7059
 6476TIP3    H240920   3.851   3.852   3.265  0.4832  1.3508 -0.2854
 6477TIP3   OH240921   3.988   5.263  11.085 -0.0931 -0.6987 -0.1820
 6477TIP3    H140922   3.970   5.207  11.161  2.3405  0.7044  1.4545
 6477TIP3    H240923   4.065   5.224  11.044  0.8671  0.6944  0.2554
 6478TIP3   OH240924   0.261   5.300   0.402 -0.3725 -0.6029  0.3054
 6478TIP3    H140925   0.221   5.368   0.456  0.1093 -0.9878  1.1611
 6478TIP3    H240926   0.275   5.341   0.317  0.1263  0.4365  0.8860
 6479TIP3   OH240927   2.295   2.492   1.020  0.0797  0.0707  0.1775
 6479TIP3    H140928   2.249   2.575   1.007  1.6160  1.2057  1.8680
 6479TIP3    H240929   2.254   2.454   1.098 -0.7116 -0.8558 -0.6711
 6480TIP3   OH240930   1.882   4.462  17.241 -0.2231  0.6940  0.4265
 6480TIP3    H140931   1.847   4.549  17.222 -0.8527  0.4958  0.6399
 6480TIP3    H240932   1.952   4.449  17.177 -1.1418  0.7474 -0.6106
 6481TIP3   OH240933   3.904   6.329  14.196 -0.4138  0.1209 -0.2322
 6481TIP3    H140934   3.814   6.348  14.168 -0.5046  2.2679  1.3790
 6481TIP3    H240935   3.895   6.298  14.287  0.5248  1.1674  0.2296
 6482TIP3   OH240936   4.839   1.272   4.361  0.7195 -0.1871 -0.5644
 6482TIP3    H140937   4.797   1.197   4.405 -0.6754 -0.2468 -1.9574
 6482TIP3    H240938   4.767   1.316   4.316  1.5710  1.8746  0.0311
 6483TIP3   OH240939   5.134   6.780   0.843 -0.2329 -0.1579  0.8592
 6483TIP3    H140940   5.228   6.773   0.828 -0.4533 -2.1491  0.3515
 6483TIP3    H240941   5.126   6.792   0.938  0.5541  0.8176  0.8128
 6484TIP3   OH240942   2.807   5.367   3.507  0.2183  0.0256  0.3333
 6484TIP3    H140943   2.849   5.300   3.560 -0.9486 -0.4595  0.6429
 6484TIP3    H240944   2.724   5.385   3.551  0.9348  2.3628  0.8013
 6485TIP3   OH240945   3.360   0.912   1.226 -0.0487  0.0368  0.0786
 6485TIP3    H140946   3.412   0.992   1.217  0.0791  0.0092  0.5744
 6485TIP3    H240947   3.425   0.844   1.244 -0.2259 -0.0629  0.3245
 6486TIP3   OH240948   2.247   2.946   4.343  0.3947  0.1923 -0.8963
 6486TIP3    H140949   2.156   2.923   4.327 -0.0812  0.3088  1.4479
 6486TIP3    H240950   2.271   3.002   4.269 -1.8272  1.2103 -0.8885
 6487TIP3   OH240951   2.207   0.328   1.253  0.6812 -0.0326  0.8201
 6487TIP3    H140952   2.119   0.293   1.245  0.8085  0.1778 -2.2434
 6487TIP3    H240953   2.262   0.267   1.203  1.6607  1.8752 -0.4770
 6488TIP3   OH240954   2.200   3.125   1.423  0.5495  0.2392 -0.3373
 6488TIP3    H140955   2.164   3.107   1.336 -1.0448  0.2414  0.3181
 6488TIP3    H240956   2.179   3.216   1.440 -0.1406 -0.0756  0.5235
 6489TIP3   OH240957   4.747   2.148   3.971 -0.1360  0.1036  0.0398
 6489TIP3    H140958   4.762   2.189   3.886 -1.0172  0.5050  0.0673
 6489TIP3    H240959   4.653   2.162   3.988 -0.2431 -1.1055  0.4776
 6490TIP3   OH240960   3.726   4.388  13.593 -0.0199 -0.7852  0.0357
 6490TIP3    H140961   3.767   4.366  13.677 -1.3868 -1.5476  0.5275
 6490TIP3    H240962   3.651   4.442  13.617 -0.9265 -1.7282 -0.6125
 6491TIP3   OH240963   3.659   6.559   3.506  0.4410  0.6308  0.3436
 6491TIP3    H140964   3.670   6.471   3.470  1.1666  1.1091 -0.6193
 6491TIP3    H240965   3.604   6.546   3.584  0.6707 -0.6874  0.3030
 6492TIP3   OH240966   5.027   1.428   2.616  0.4893 -0.1237  0.3827
 6492TIP3    H140967   5.079   1.503   2.586 -0.8261  0.3739 -0.7441
 6492TIP3    H240968   4.973   1.406   2.540  1.6054 -2.9038  0.3480
 6493TIP3   OH240969   4.632   0.123   1.271  0.4328 -0.1458  0.4197
 6493TIP3    H140970   4.548   0.077   1.264 -0.6535  1.9086 -0.6635
 6493TIP3    H240971   4.625   0.173   1.352 -0.1659  1.4188 -0.5544
 6494TIP3   OH240972   1.216   0.463  16.675 -0.2277  0.1858 -0.1264
 6494TIP3    H140973   1.128   0.478  16.710  0.1175  1.8407  0.0477
 6494TIP3    H240974   1.206   0.385  16.620 -1.9375  0.7186 -0.6107
 6495TIP3   OH240975   0.841   2.699  13.825  0.2083 -0.0929 -0.0383
 6495TIP3    H140976   0.757   2.659  13.848  0.6989 -1.2377 -0.2114
 6495TIP3    H240977   0.820   2.791  13.808 -1.3049 -0.7468 -1.8429
 6496TIP3   OH240978   1.635   0.961   0.075  0.2947  0.5178 -0.6333
 6496TIP3    H140979   1.587   0.939  -0.005 -3.4064 -1.5940  2.0029
 6496TIP3    H240980   1.699   0.890   0.084 -0.3154 -0.0860 -0.9571
 6497TIP3   OH240981   3.251   2.403  15.297 -0.5237  0.2141  0.0308
 6497TIP3    H140982   3.161   2.422  15.270 -0.7567  0.4515  0.9581
 6497TIP3    H240983   3.305   2.460  15.243 -0.9222  0.0483 -0.5513
 6498TIP3   OH240984   3.200   3.952  11.206  1.1200  0.0291  0.3002
 6498TIP3    H140985   3.175   3.928  11.295 -0.1034  0.3387  0.0456
 6498TIP3    H240986   3.173   3.877  11.153  1.5027  0.0090  0.1324
 6499TIP3   OH240987   4.758   4.713  14.753 -0.2814 -0.4450  0.4694
 6499TIP3    H140988   4.780   4.722  14.661  1.4879 -1.7935  0.7276
 6499TIP3    H240989   4.676   4.762  14.764  0.7273  1.7115 -1.3074
 6500TIP3   OH240990   4.717   5.653  13.452 -0.0308 -0.3912 -0.4234
 6500TIP3    H140991   4.747   5.708  13.524 -2.6580  1.5774 -0.7706
 6500TIP3    H240992   4.746   5.699  13.373 -0.6261 -0.4819 -0.6960
 6501TIP3   OH240993   2.242   5.181  13.667 -0.3041 -0.4145 -0.3644
 6501TIP3    H140994   2.160   5.231  13.659  0.2232  0.2196 -1.9999
 6501TIP3    H240995   2.220   5.093  13.636 -0.4211 -0.3126 -0.5689
 6502TIP3   OH240996   3.712   6.012   3.350 -0.3873  0.4042 -0.4102
 6502TIP3    H140997   3.640   5.982   3.405  0.0699 -0.2813 -0.1733
 6502TIP3    H240998   3.718   6.106   3.367  0.5135 -0.0029  1.6160
 6503TIP3   OH240999   3.907   2.889   2.798  0.0479  0.7608  0.7928
 6503TIP3    H141000   3.925   2.960   2.860 -0.6184  1.8418 -0.2367
 6503TIP3    H241001   3.968   2.904   2.726  1.4259 -1.0058  1.5660
 6504TIP3   OH241002   1.993   2.579  11.068 -0.1334  0.5104 -0.2138
 6504TIP3    H141003   2.052   2.652  11.088  2.2348 -1.2513 -0.4902
 6504TIP3    H241004   1.979   2.586  10.974  1.5243 -0.3730 -0.5523
 6505TIP3   OH241005   0.544   0.407   1.474 -0.0688  0.0152 -0.3141
 6505TIP3    H141006   0.484   0.481   1.478  0.1082  0.1577 -0.2837
 6505TIP3    H241007   0.519   0.360   1.395 -1.8720 -1.3531  1.0364
 6506TIP3   OH241008   0.182   2.672  16.173 -0.3544 -0.4746  0.0598
 6506TIP3    H141009   0.254   2.614  16.148  0.2358  0.2436  0.0584
 6506TIP3    H241010   0.202   2.696  16.264  1.4142  2.6181 -1.0581
 6507TIP3   OH241011   1.317   6.545  14.200 -0.2584  0.0339 -0.1068
 6507TIP3    H141012   1.277   6.546  14.287 -0.0194  0.2367  0.0012
 6507TIP3    H241013   1.411   6.535  14.217 -0.3254 -1.0710 -0.3823
 6508TIP3   OH241014   6.418   2.575   4.222  0.3462  0.2137  0.0217
 6508TIP3    H141015   6.331   2.615   4.213  0.6903  1.3767  1.4972
 6508TIP3    H241016   6.418   2.502   4.160 -2.2558 -0.7652  1.0728
 6509TIP3   OH241017   2.559   1.759  16.231 -0.6497 -0.5859  0.5448
 6509TIP3    H141018   2.473   1.725  16.205 -1.2999  0.1930  1.6293
 6509TIP3    H241019   2.539   1.830  16.292  0.6849  1.3795 -1.2179
 6510TIP3   OH241020   6.525   0.470   5.605  0.1810 -0.5950 -0.1053
 6510TIP3    H141021   6.467   0.546   5.609  1.9553  0.7604  0.3280
 6510TIP3    H241022   6.560   0.471   5.516  0.8675 -0.4065  0.1676
 6511TIP3   OH241023   2.453   0.879  12.279  0.0346  0.4095  0.2942
 6511TIP3    H141024   2.537   0.909  12.246  0.3674 -0.8497 -0.0210
 6511TIP3    H241025   2.402   0.959  12.291  1.7965  1.3380  1.9639
 6512TIP3   OH241026   5.532   5.334   0.651 -0.4310  0.0851  0.2794
 6512TIP3    H141027   5.571   5.256   0.612 -0.3062 -0.1217  0.8087
 6512TIP3    H241028   5.570   5.408   0.604 -0.0672 -0.1533  0.2086
 6513TIP3   OH241029   3.785   1.129   0.559 -0.6248 -0.3937 -0.0639
 6513TIP3    H141030   3.703   1.176   0.547 -0.5913 -0.6704 -1.4836
 6513TIP3    H241031   3.807   1.095   0.472  2.1022  1.5171 -0.1936
 6514TIP3   OH241032   5.432   5.368   3.758  0.0776  0.2256 -0.0591
 6514TIP3    H141033   5.339   5.354   3.740 -0.2376  1.8599  0.2200
 6514TIP3    H241034   5.473   5.376   3.672 -0.3206  1.1677 -0.1657
 6515TIP3   OH241035   4.397   5.991   5.570 -0.4778 -0.1123 -0.6796
 6515TIP3    H141036   4.302   5.990   5.561 -0.4381 -0.7831 -1.0425
 6515TIP3    H241037   4.428   5.926   5.507  0.0406 -2.1454  1.6233
 6516TIP3   OH241038   6.056   0.931   1.635 -0.0439 -0.4183 -0.3052
 6516TIP3    H141039   6.086   1.015   1.600 -0.0365 -0.3248 -0.0801
 6516TIP3    H241040   6.129   0.901   1.689 -0.3097 -0.2422  0.1591
 6517TIP3   OH241041   1.911   4.893   0.583 -0.0398 -0.1763 -0.2531
 6517TIP3    H141042   1.970   4.822   0.608  0.7444  0.4472 -0.2908
 6517TIP3    H241043   1.948   4.971   0.625 -0.7735  0.2471 -0.3751
 6518TIP3   OH241044   2.979   1.136  14.580 -0.3611 -0.0375 -0.2387
 6518TIP3    H141045   2.891   1.174  14.590 -1.0580 -1.5652 -0.3971
 6518TIP3    H241046   2.985   1.071  14.650  0.7080  0.1723 -0.1338
 6519TIP3   OH241047   6.425   4.933  15.706 -0.0754  0.7155  0.1407
 6519TIP3    H141048   6.390   4.957  15.620 -2.3332 -0.3714  0.7095
 6519TIP3    H241049   6.405   4.840  15.715 -2.8229  1.4865  3.1353
 6520TIP3   OH241050   3.999   1.289   0.610  0.1403 -0.1721 -0.3786
 6520TIP3    H141051   3.939   1.215   0.610  0.0820 -0.1249  0.7283
 6520TIP3    H241052   3.989   1.327   0.523  1.1463 -2.2401 -1.4257
 6521TIP3   OH241053   2.229   3.333  13.856 -0.1921 -0.3888  0.0499
 6521TIP3    H141054   2.189   3.363  13.774  1.4358 -0.0293 -0.6323
 6521TIP3    H241055   2.201   3.241  13.864 -0.3238 -0.4458 -0.9442
 6522TIP3   OH241056   6.111   6.624   5.529 -0.0159  0.2721 -0.2716
 6522TIP3    H141057   6.020   6.624   5.559 -0.5078 -0.3282 -1.7511
 6522TIP3    H241058   6.129   6.533   5.506  1.3054  0.1803  1.0164
 6523TIP3   OH241059   6.765   1.528   5.532  0.2986 -0.3481 -0.8570
 6523TIP3    H141060   6.813   1.445   5.528  0.7449 -0.0874 -0.9425
 6523TIP3    H241061   6.675   1.504   5.511 -0.3535 -1.4476  2.7385
 6524TIP3   OH241062   3.481   2.809  12.933 -0.0493  0.6504 -0.2983
 6524TIP3    H141063   3.503   2.717  12.949 -0.9671  0.6817  1.2227
 6524TIP3    H241064   3.511   2.825  12.844 -0.8127 -1.4312 -0.9710
 6525TIP3   OH241065   3.329   1.995  12.201 -0.6938  0.0761  1.3578
 6525TIP3    H141066   3.246   1.971  12.161 -0.1202 -0.3310  0.3869
 6525TIP3    H241067   3.376   1.912  12.213  0.2457  0.4468  0.3625
 6526TIP3   OH241068   2.292   4.244  15.205  0.1876 -0.0429 -0.0893
 6526TIP3    H141069   2.220   4.220  15.263 -0.3954  0.0049 -0.7829
 6526TIP3    H241070   2.361   4.277  15.263 -0.0823 -0.7547  0.6350
 6527TIP3   OH241071   1.863   6.572   4.628  1.2275 -0.1609 -0.2973
 6527TIP3    H141072   1.830   6.636   4.565  1.3002  0.3153  0.1433
 6527TIP3    H241073   1.784   6.531   4.664  1.1602  0.1631 -0.0807
 6528TIP3   OH241074   5.090   6.157   3.845 -0.1233 -0.1675  0.6895
 6528TIP3    H141075   5.018   6.176   3.785  0.0607 -1.0730  0.1705
 6528TIP3    H241076   5.053   6.092   3.906  0.8261 -2.1375 -0.7796
 6529TIP3   OH241077   2.425   0.383  13.547  0.2887 -0.2593  0.8136
 6529TIP3    H141078   2.407   0.304  13.497 -0.5733 -0.3393  1.2585
 6529TIP3    H241079   2.394   0.364  13.635  1.7006 -0.0736  1.3696
 6530TIP3   OH241080   5.833   1.352  16.988  0.3252 -0.8403  0.2777
 6530TIP3    H141081   5.926   1.376  16.991 -0.1691  1.1615  0.2625
 6530TIP3    H241082   5.833   1.257  16.991  2.3854 -0.8620  0.3685
 6531TIP3   OH241083   3.035   5.689   3.250 -0.0337  0.2770  0.1819
 6531TIP3    H141084   2.945   5.668   3.274  0.5520 -2.3130  0.3042
 6531TIP3    H241085   3.060   5.760   3.309 -1.3421 -0.3616  1.5409
 6532TIP3   OH241086   5.332   2.739   4.924 -0.4125  0.7745 -0.1127
 6532TIP3    H141087   5.418   2.725   4.884  0.3687  4.0419  0.2795
 6532TIP3    H241088   5.294   2.811   4.874 -2.4957  0.0801  0.4087
 6533TIP3   OH241089   1.119   3.111  14.197 -0.1277 -0.3005  0.1524
 6533TIP3    H141090   1.063   3.162  14.139  0.3047 -0.9823 -0.8914
 6533TIP3    H241091   1.088   3.131  14.285  0.8963  2.8112 -0.1297
 6534TIP3   OH241092   2.114   6.529   4.502 -0.8961 -0.9131  0.0739
 6534TIP3    H141093   2.033   6.577   4.518  1.5039  3.1212  0.8868
 6534TIP3    H241094   2.111   6.457   4.565 -2.7591  0.5838  1.7804
 6535TIP3   OH241095   5.922   0.253  16.095  0.0203 -0.0715  0.0051
 6535TIP3    H141096   6.015   0.233  16.082 -0.5157 -1.4395 -1.8164
 6535TIP3    H241097   5.897   0.304  16.019 -1.5112 -2.4970 -1.1838
 6536TIP3   OH241098   4.939   6.615  12.707 -0.0396 -0.1310  0.2395
 6536TIP3    H141099   4.981   6.605  12.793 -1.7268 -0.3945  1.0501
 6536TIP3    H241100   4.959   6.705  12.681  1.5511 -0.4344  0.3057
 6537TIP3   OH241101   0.263   6.750   2.863 -0.6461 -0.1782  0.5338
 6537TIP3    H141102   0.216   6.833   2.854 -0.0983  0.0454 -0.4676
 6537TIP3    H241103   0.200   6.683   2.836 -0.2285  0.1682 -1.3592
 6538TIP3   OH241104   5.071   3.300   3.655 -0.3618 -0.6431  0.2584
 6538TIP3    H141105   5.121   3.220   3.673 -0.7135 -0.8028  0.5506
 6538TIP3    H241106   5.087   3.356   3.731  0.0531 -0.3465 -0.0429
 6539TIP3   OH241107   1.718   4.634  14.552 -0.3028 -0.3910 -0.6022
 6539TIP3    H141108   1.723   4.692  14.476  2.4176  1.8416  1.1989
 6539TIP3    H241109   1.798   4.581  14.547  0.9386  1.1828  1.7403
 6540TIP3   OH241110   2.495   0.122   1.465  0.0548  0.4441  0.1613
 6540TIP3    H141111   2.520   0.060   1.534 -1.3048  0.7116  0.9084
 6540TIP3    H241112   2.464   0.199   1.512  1.5419  1.6431 -0.7596
 6541TIP3   OH241113   1.956   4.490   2.486 -0.2421  0.2799 -0.1981
 6541TIP3    H141114   1.992   4.405   2.462 -1.6580 -0.7496  1.2144
 6541TIP3    H241115   1.930   4.530   2.403  1.9161  0.0519 -1.0160
 6542TIP3   OH241116   1.258   2.817   3.521 -0.2768 -0.4616  0.5055
 6542TIP3    H141117   1.292   2.865   3.597  1.1658  0.8195 -0.8954
 6542TIP3    H241118   1.171   2.788   3.548 -0.3669  1.2057  2.1409
 6543TIP3   OH241119   0.349   3.337   2.280  0.2294 -0.1994 -0.1718
 6543TIP3    H141120   0.322   3.351   2.370  2.0901  0.1494  0.3485
 6543TIP3    H241121   0.300   3.402   2.230 -1.2463 -0.7747  0.4884
 6544TIP3   OH241122   3.632   2.179  13.509  0.6725  0.1853 -0.3747
 6544TIP3    H141123   3.684   2.121  13.566  0.6597 -0.2106 -0.7585
 6544TIP3    H241124   3.668   2.266  13.524  0.8805  0.0350  0.0041
 6545TIP3   OH241125   2.267   5.456   4.553 -0.7417  0.1061 -0.1100
 6545TIP3    H141126   2.293   5.483   4.640 -1.2228 -1.0986  0.4211
 6545TIP3    H241127   2.254   5.538   4.505  1.4250  0.7405  0.3653
 6546TIP3   OH241128   3.526   4.446  14.372 -0.2120  0.4012 -0.0291
 6546TIP3    H141129   3.453   4.472  14.429 -0.2557 -1.0497  0.5942
 6546TIP3    H241130   3.554   4.527  14.330 -1.5146  1.1446  0.5198
 6547TIP3   OH241131   3.217   0.357  16.040 -0.2310  0.0855  0.0387
 6547TIP3    H141132   3.147   0.402  16.088 -1.5048 -1.4656 -0.3246
 6547TIP3    H241133   3.194   0.369  15.948  1.5587  2.0229 -0.1871
 6548TIP3   OH241134   1.241   1.682  13.222 -0.3064  0.1223 -0.0178
 6548TIP3    H141135   1.198   1.604  13.189 -0.5931 -0.3568  1.4822
 6548TIP3    H241136   1.170   1.738  13.253  0.0929 -0.4786  2.0352
 6549TIP3   OH241137   2.862   1.287  13.752 -0.0176  0.2768  0.8175
 6549TIP3    H141138   2.828   1.200  13.775 -2.5667  1.0754  0.2348
 6549TIP3    H241139   2.784   1.342  13.745  1.3343  1.9862 -1.5177
 6550TIP3   OH241140   3.688   3.464   0.594 -0.2905  0.3174 -0.5077
 6550TIP3    H141141   3.671   3.381   0.550  1.6048 -0.3502 -0.0462
 6550TIP3    H241142   3.689   3.529   0.524  0.0935 -0.3459 -1.1294
 6551TIP3   OH241143   3.205   3.826   0.258 -0.0503  0.5897  0.2904
 6551TIP3    H141144   3.247   3.764   0.317  0.9066  1.2606  0.3219
 6551TIP3    H241145   3.270   3.843   0.190 -0.2456  1.6462  0.3482
 6552TIP3   OH241146   2.622   1.716   3.787  0.1228  0.5630 -0.2263
 6552TIP3    H141147   2.575   1.703   3.705 -2.1975  2.2436  0.7878
 6552TIP3    H241148   2.600   1.640   3.840  0.8264 -0.0292 -0.7689
 6553TIP3   OH241149   0.855   1.942   3.474  0.2569 -0.9795 -0.1835
 6553TIP3    H141150   0.834   1.875   3.540 -0.7939 -1.8036 -1.3269
 6553TIP3    H241151   0.921   1.900   3.419  0.6322 -0.5461 -0.0611
 6554TIP3   OH241152   3.944   0.536   0.109 -0.5774  0.3063 -0.3444
 6554TIP3    H141153   3.950   0.461   0.050 -0.3221  1.3379 -1.6530
 6554TIP3    H241154   3.876   0.592   0.071 -0.0598  1.2257  0.0465
 6555TIP3   OH241155   1.161   2.122  11.808 -0.0463  1.0506  0.4193
 6555TIP3    H141156   1.210   2.205  11.808  0.8317  0.5636 -1.5942
 6555TIP3    H241157   1.229   2.055  11.817 -0.4846  0.4540 -0.5858
 6556TIP3   OH241158   6.185   1.105   3.705 -0.6434 -0.1711  0.4591
 6556TIP3    H141159   6.266   1.058   3.724 -0.4722  0.5586  1.6384
 6556TIP3    H241160   6.188   1.182   3.763 -1.6397  0.4622 -0.3070
 6557TIP3   OH241161   2.122   5.735   0.827 -0.3383 -0.2970  0.1820
 6557TIP3    H141162   2.140   5.732   0.734  0.7399  0.2413  0.3636
 6557TIP3    H241163   2.076   5.818   0.840 -3.9928 -2.1321 -0.4360
 6558TIP3   OH241164   6.519   3.634  15.737  0.3988 -0.7689  0.1955
 6558TIP3    H141165   6.561   3.682  15.666 -0.4205 -0.0122  0.2030
 6558TIP3    H241166   6.437   3.603  15.700  0.1185 -0.6506  0.7071
 6559TIP3   OH241167   1.519   4.511  16.650 -0.2265 -0.1824  0.4856
 6559TIP3    H141168   1.585   4.509  16.720 -0.9264  1.3344  1.2306
 6559TIP3    H241169   1.435   4.509  16.697 -0.7137  1.6732 -0.2366
 6560TIP3   OH241170   5.577   5.150   3.269  0.2311  0.8248  0.5154
 6560TIP3    H141171   5.665   5.113   3.280  0.2612  0.6628 -0.2562
 6560TIP3    H241172   5.591   5.245   3.268  0.3757  0.8038  0.5582
 6561TIP3   OH241173   0.930   0.489   2.073 -0.2352 -0.1100 -0.0979
 6561TIP3    H141174   0.940   0.409   2.125 -0.4349 -0.5012 -0.6568
 6561TIP3    H241175   0.886   0.460   1.993  4.8363 -0.5081 -2.9560
 6562TIP3   OH241176   5.614   3.219   3.413 -0.4309  0.1235 -0.4204
 6562TIP3    H141177   5.695   3.206   3.462 -0.5143 -0.9092 -0.5532
 6562TIP3    H241178   5.618   3.310   3.385  0.8655 -0.0315 -0.7621
 6563TIP3   OH241179   0.757   3.316  17.281  0.1442 -0.5060 -0.5820
 6563TIP3    H141180   0.712   3.251  17.334 -0.2470 -0.2211 -0.5566
 6563TIP3    H241181   0.688   3.354  17.227  0.6784 -1.3816 -1.8980
 6564TIP3   OH241182   1.888   0.615  15.993  0.8895  0.2487 -0.1437
 6564TIP3    H141183   1.977   0.581  15.981  1.0735  0.4288  0.6671
 6564TIP3    H241184   1.861   0.580  16.078 -0.3726 -0.9991 -1.0458
 6565TIP3   OH241185   1.906   5.871   4.431  0.2036 -0.0715  0.0084
 6565TIP3    H141186   1.926   5.923   4.353 -1.7984 -0.7034 -0.9421
 6565TIP3    H241187   1.943   5.785   4.413 -0.8705 -0.4165 -0.5296
 6566TIP3   OH241188   4.965   5.626   2.431  0.4848  1.2694  0.8772
 6566TIP3    H141189   5.029   5.555   2.426  0.5201  1.1860  2.3915
 6566TIP3    H241190   5.005   5.697   2.380 -0.1800 -0.2276 -1.8514
 6567TIP3   OH241191   4.452   2.773  17.025 -0.1190 -0.3438 -0.4717
 6567TIP3    H141192   4.432   2.864  17.048 -1.4504 -0.8907  0.5897
 6567TIP3    H241193   4.534   2.779  16.976  0.5361  1.2827  0.7661
 6568TIP3   OH241194   4.593   5.314   5.354 -0.2116 -0.2258  0.0263
 6568TIP3    H141195   4.665   5.267   5.311  0.7068  0.1649  1.1032
 6568TIP3    H241196   4.636   5.364   5.423 -1.4755  0.3860  0.3734
 6569TIP3   OH241197   6.727   2.661   0.060  0.3870  0.9827 -0.1981
 6569TIP3    H141198   6.691   2.683   0.145 -0.1730  2.2221 -0.7423
 6569TIP3    H241199   6.797   2.597   0.078 -0.3812  0.5011  1.0779
 6570TIP3   OH241200   6.209   4.754   4.685  0.3036 -0.4168 -0.2064
 6570TIP3    H141201   6.188   4.701   4.761  2.0100  1.2061  1.4897
 6570TIP3    H241202   6.130   4.755   4.632 -0.7832 -1.8887  1.3657
 6571TIP3   OH241203   3.562   1.072   2.838 -0.4990 -0.3368 -0.1498
 6571TIP3    H141204   3.535   0.985   2.808 -1.1448 -0.5476  0.9880
 6571TIP3    H241205   3.559   1.126   2.760  1.5531 -1.6974 -1.2288
 6572TIP3   OH241206   0.471   1.341  16.482  0.1578 -0.3037 -0.3737
 6572TIP3    H141207   0.407   1.353  16.553 -2.4052 -1.4531 -2.4038
 6572TIP3    H241208   0.524   1.421  16.484 -1.0900  0.5277  1.5946
 6573TIP3   OH241209   2.017   0.903  16.193  0.1716 -0.2910 -0.3900
 6573TIP3    H141210   2.109   0.883  16.213  0.5704 -0.1952 -2.0302
 6573TIP3    H241211   1.985   0.947  16.271  1.0979 -1.6384  0.7840
 6574TIP3   OH241212   4.344   6.454   4.610  0.1709 -0.0333  0.2629
 6574TIP3    H141213   4.355   6.359   4.603 -1.5391 -0.0491 -3.1525
 6574TIP3    H241214   4.256   6.471   4.575 -0.0226  2.6955  1.9358
 6575TIP3   OH241215   3.022   1.601  15.203 -0.3116 -0.6422 -0.6213
 6575TIP3    H141216   2.989   1.535  15.264 -1.4233  0.1753 -0.3428
 6575TIP3    H241217   2.944   1.644  15.169  0.3177 -0.7749 -2.2923
 6576TIP3   OH241218   6.088   5.169  14.111  0.0388 -0.1351 -0.2015
 6576TIP3    H141219   6.144   5.097  14.141 -0.5016 -0.2560  0.5298
 6576TIP3    H241220   6.093   5.234  14.182 -0.3234  0.0829 -0.3740
 6577TIP3   OH241221   2.142   4.007  10.600 -0.5430  0.3508 -0.1818
 6577TIP3    H141222   2.094   3.927  10.579 -2.0237  1.5470 -1.4190
 6577TIP3    H241223   2.083   4.057  10.656  0.1708  0.8274  0.1558
 6578TIP3   OH241224   3.605   1.572  14.782  0.1362 -0.0490 -0.3002
 6578TIP3    H141225   3.654   1.653  14.796 -0.6465  0.3370  0.2818
 6578TIP3    H241226   3.547   1.566  14.858 -1.2534 -0.0968 -1.3414
 6579TIP3   OH241227   6.406   3.571  16.621  0.4927  0.2051  0.2160
 6579TIP3    H141228   6.367   3.530  16.698 -0.0905  1.5265  0.6453
 6579TIP3    H241229   6.477   3.625  16.656  0.0072  1.0780 -0.1492
 6580TIP3   OH241230   2.263   4.887   2.010  0.0543  0.3522  0.1253
 6580TIP3    H141231   2.254   4.901   2.104  1.1484 -2.8044  0.7770
 6580TIP3    H241232   2.174   4.878   1.977 -0.3014  0.7744  0.9888
 6581TIP3   OH241233   1.911   2.313   1.357  0.6093  0.0749  0.5614
 6581TIP3    H141234   1.913   2.381   1.289  1.7593 -2.1234 -1.7105
 6581TIP3    H241235   1.819   2.302   1.378  0.1313  0.0819 -1.4307
 6582TIP3   OH241236   4.251   3.879  11.325  0.1277  0.6540  0.3859
 6582TIP3    H141237   4.207   3.821  11.263 -0.1470  0.7999  0.4430
 6582TIP3    H241238   4.264   3.960  11.276  1.6000  0.1398 -0.0905
 6583TIP3   OH241239   3.674   0.944   4.146 -0.1648 -0.2276  0.2899
 6583TIP3    H141240   3.715   0.942   4.233  0.5799  0.7502 -0.0386
 6583TIP3    H241241   3.635   0.857   4.137  0.5208 -0.6481  1.2419
 6584TIP3   OH241242   1.330   2.513  13.453 -0.4698  0.3949 -0.0078
 6584TIP3    H141243   1.311   2.485  13.363 -0.1086 -4.1765  1.2244
 6584TIP3    H241244   1.425   2.524  13.455 -0.5125  0.8213 -0.2628
 6585TIP3   OH241245   4.813   3.539  16.053 -0.3380 -0.7767  0.3067
 6585TIP3    H141246   4.731   3.522  16.099  1.8006 -0.7161  4.3219
 6585TIP3    H241247   4.798   3.622  16.007 -3.6337 -2.5110 -1.9798
 6586TIP3   OH241248   0.062   4.153  16.607 -0.3806 -0.1761 -0.3055
 6586TIP3    H141249   0.008   4.196  16.674  1.2601  0.4991  0.6330
 6586TIP3    H241250   0.001   4.098  16.558 -1.8335  0.2552  0.9777
 6587TIP3   OH241251   5.802   4.778   3.216 -0.1765 -0.3331 -0.1524
 6587TIP3    H141252   5.840   4.847   3.162  2.4805  0.0381  2.1108
 6587TIP3    H241253   5.763   4.823   3.291 -1.7109 -1.0397 -0.4871
 6588TIP3   OH241254   4.378   5.608   3.667  0.4575 -0.1434  0.2170
 6588TIP3    H141255   4.350   5.699   3.666 -1.1137 -0.5866 -3.8466
 6588TIP3    H241256   4.468   5.610   3.633  0.1869 -0.1866 -0.4956
 6589TIP3   OH241257   0.050   6.289   4.980  0.2378  0.0049 -0.2124
 6589TIP3    H141258   0.002   6.347   5.039  0.2341 -0.7441  0.5267
 6589TIP3    H241259  -0.001   6.290   4.899  0.5000  1.4040 -0.3739
 6590TIP3   OH241260   5.065   0.586  12.909 -0.4997 -0.2182 -0.0434
 6590TIP3    H141261   5.053   0.648  12.837 -1.7165 -0.4921 -0.0791
 6590TIP3    H241262   5.020   0.627  12.983 -0.2525 -0.4835  0.2528
 6591TIP3   OH241263   0.332   2.696   5.313  0.4274 -0.1675  0.2769
 6591TIP3    H141264   0.256   2.652   5.275  0.7082 -0.6022  0.2133
 6591TIP3    H241265   0.337   2.664   5.403 -0.1595  0.7618  0.6504
 6592TIP3   OH241266   3.619   5.876  14.394  0.2995  0.9651  0.4066
 6592TIP3    H141267   3.535   5.831  14.391  0.9008 -0.1987  0.8181
 6592TIP3    H241268   3.607   5.944  14.460 -0.7054  1.6107 -0.4240
 6593TIP3   OH241269   6.533   4.042  12.776 -0.5847  0.2716 -0.4136
 6593TIP3    H141270   6.537   3.951  12.807 -1.0726  0.3118 -0.2266
 6593TIP3    H241271   6.460   4.044  12.715 -2.7694  1.2843  2.1320
 6594TIP3   OH241272   2.538   5.778   3.527  0.0106 -0.4596  0.0130
 6594TIP3    H141273   2.554   5.787   3.433 -0.1139  0.5012  0.0749
 6594TIP3    H241274   2.450   5.741   3.533  0.4418 -1.5616 -0.2562
 6595TIP3   OH241275   5.266   2.531  13.052 -0.6744  0.1216 -0.1788
 6595TIP3    H141276   5.341   2.580  13.017 -0.4072 -1.0357 -1.2677
 6595TIP3    H241277   5.229   2.589  13.119  2.3530 -0.0543  1.7997
 6596TIP3   OH241278   2.964   1.431  10.687  0.0394  0.7419  0.4297
 6596TIP3    H141279   3.020   1.357  10.663 -0.3592  1.2643 -2.2768
 6596TIP3    H241280   2.902   1.394  10.750  1.6529 -0.4959  1.3464
 6597TIP3   OH241281   1.588   1.782   1.928 -0.0821 -0.0001  0.0926
 6597TIP3    H141282   1.642   1.756   1.853 -1.7889  1.3321 -1.6298
 6597TIP3    H241283   1.617   1.871   1.949  1.7976 -1.0897  2.3562
 6598TIP3   OH241284   6.494   1.304  16.882 -0.2793 -0.1286  0.2036
 6598TIP3    H141285   6.567   1.334  16.828 -1.3578 -0.2582 -1.3258
 6598TIP3    H241286   6.488   1.369  16.952  0.3277  0.7122 -0.5159
 6599TIP3   OH241287   3.975   4.572   3.092  0.0405 -0.0058  0.2200
 6599TIP3    H141288   3.922   4.522   3.030  0.4128  0.9620 -0.9125
 6599TIP3    H241289   4.006   4.507   3.155  1.8311 -1.5341 -2.1345
 6600TIP3   OH241290   3.389   5.049   0.038  0.5349 -0.4908 -0.1711
 6600TIP3    H141291   3.433   4.975   0.079 -1.2467 -0.9530  0.9249
 6600TIP3    H241292   3.313   5.012  -0.006 -0.1323  0.6302  0.0060
 6601TIP3   OH241293   1.203   1.142  14.479  0.3044 -0.1143 -0.0603
 6601TIP3    H141294   1.247   1.137  14.394 -0.1173 -1.1966 -0.2115
 6601TIP3    H241295   1.247   1.215  14.523  0.6637  0.3269 -1.1203
 6602TIP3   OH241296   4.563   4.382  10.868 -0.0336  0.1909  0.1069
 6602TIP3    H141297   4.650   4.418  10.884  0.0251  0.0788  0.0358
 6602TIP3    H241298   4.539   4.339  10.950  0.2562 -0.3627 -0.0983
 6603TIP3   OH241299   5.604   4.732  12.236 -0.2599 -0.2118  0.1691
 6603TIP3    H141300   5.648   4.652  12.206  0.4041 -0.6914  2.3717
 6603TIP3    H241301   5.519   4.701  12.267 -0.4480  0.1116 -0.0204
 6604TIP3   OH241302   2.592   5.062   4.544 -0.5790 -0.4552  0.1052
 6604TIP3    H141303   2.669   5.104   4.582  0.8650 -2.2318 -0.7521
 6604TIP3    H241304   2.588   4.976   4.587 -1.1166 -1.0085 -1.0300
 6605TIP3   OH241305   1.563   5.863   1.426 -0.3492 -0.6196 -0.1949
 6605TIP3    H141306   1.610   5.939   1.462 -0.4914 -1.2702  1.4325
 6605TIP3    H241307   1.625   5.791   1.433 -0.0465 -0.5681 -2.1842
 6606TIP3   OH241308   2.729   0.424   2.776 -1.0484 -0.7032 -0.1705
 6606TIP3    H141309   2.712   0.361   2.705 -0.8036  1.4313 -2.1694
 6606TIP3    H241310   2.643   0.440   2.815 -1.4609 -0.5014 -1.1616
 6607TIP3   OH241311   1.332   4.170  14.555 -0.1361  0.1800 -0.6311
 6607TIP3    H141312   1.371   4.092  14.516  0.2633 -0.0826  0.2683
 6607TIP3    H241313   1.405   4.215  14.598 -0.4314  0.8407 -0.8068
 6608TIP3   OH241314   1.760   5.478   5.876  0.4057 -0.0936  0.3347
 6608TIP3    H141315   1.820   5.517   5.812 -0.7408  4.3226  1.7269
 6608TIP3    H241316   1.711   5.413   5.825  0.3773  2.4034 -3.0641
 6609TIP3   OH241317   5.958   3.306  14.509  0.1708  0.0635 -0.0171
 6609TIP3    H141318   5.865   3.316  14.488  0.5195  2.7579 -0.4797
 6609TIP3    H241319   5.986   3.394  14.533  2.7516 -0.6283 -0.3985
 6610TIP3   OH241320   3.426   1.292   5.124 -0.3973 -0.7313  0.1442
 6610TIP3    H141321   3.520   1.275   5.111 -0.4824 -0.8321 -0.3825
 6610TIP3    H241322   3.410   1.374   5.077 -0.5296 -0.6097  0.4053
 6611TIP3   OH241323   5.613   0.723   6.159  0.1222 -0.3844  0.2352
 6611TIP3    H141324   5.575   0.809   6.176 -1.7374 -1.2488  0.6279
 6611TIP3    H241325   5.659   0.700   6.239  2.9403  1.3649 -0.8006
 6612TIP3   OH241326   2.291   4.024  15.033 -0.1654 -0.6491  0.0936
 6612TIP3    H141327   2.316   4.113  15.060 -1.7256  0.4658 -1.9959
 6612TIP3    H241328   2.229   3.995  15.100 -1.2742  0.6780 -0.3409
 6613TIP3   OH241329   2.367   4.266  13.070 -0.5923  0.2360 -0.2088
 6613TIP3    H141330   2.419   4.186  13.063  0.0995  0.6376  0.2220
 6613TIP3    H241331   2.281   4.237  13.100  0.5661 -0.0651  2.9883
 6614TIP3   OH241332   2.624   3.909  14.163  0.0749 -0.3073 -0.0329
 6614TIP3    H141333   2.661   3.942  14.081  0.0135  1.9066  0.8109
 6614TIP3    H241334   2.680   3.835  14.186  2.6813  1.6125  0.0682
 6615TIP3   OH241335   3.686   5.345   6.007 -0.9126 -0.1356 -0.1543
 6615TIP3    H141336   3.771   5.342   5.963 -0.4919  1.9061  0.4624
 6615TIP3    H241337   3.697   5.291   6.086  0.3552  1.5142  0.8151
 6616TIP3   OH241338   3.535   6.381  14.935  0.3153 -0.5733 -0.2360
 6616TIP3    H141339   3.615   6.424  14.906  0.7892 -1.2423  0.0489
 6616TIP3    H241340   3.561   6.289  14.948 -0.7067 -0.9700 -0.9856
 6617TIP3   OH241341   6.723   3.147  13.172  0.0725 -0.4799  0.2550
 6617TIP3    H141342   6.751   3.065  13.213 -0.3612  0.2189  2.0146
 6617TIP3    H241343   6.730   3.131  13.078 -0.0696 -2.5478  0.5800
 6618TIP3   OH241344   0.804   2.622   1.585 -0.2467  0.2327  0.3646
 6618TIP3    H141345   0.784   2.714   1.566  0.0114  0.0597 -0.8055
 6618TIP3    H241346   0.834   2.587   1.501  1.4625 -0.4438  1.2439
 6619TIP3   OH241347   0.518   5.644  13.838  0.0953  0.3643 -0.0448
 6619TIP3    H141348   0.515   5.653  13.933  0.8435 -0.8550  0.1085
 6619TIP3    H241349   0.506   5.733  13.805  0.0286  0.8248  1.1916
 6620TIP3   OH241350   1.026   5.888   2.449 -0.2911 -0.4168  0.4919
 6620TIP3    H141351   1.025   5.959   2.514  1.7085  0.4481 -0.3854
 6620TIP3    H241352   0.936   5.884   2.417 -0.6453  1.1004  1.2359
 6621TIP3   OH241353   3.861   2.450   1.116  0.5312  0.0939 -0.9212
 6621TIP3    H141354   3.906   2.433   1.198 -1.0798 -0.0438 -0.0542
 6621TIP3    H241355   3.905   2.528   1.081  0.9206  0.4260  0.2781
 6622TIP3   OH241356   0.374   1.913  12.562  0.3065  0.1295 -0.7763
 6622TIP3    H141357   0.285   1.927  12.595  0.9723 -2.0215  2.0952
 6622TIP3    H241358   0.423   1.988  12.595  0.5026 -0.9439  1.4408
 6623TIP3   OH241359   4.030   0.239  12.650 -0.2499 -0.8972  0.3317
 6623TIP3    H141360   3.943   0.249  12.613  0.1248  0.3731 -0.2639
 6623TIP3    H241361   4.086   0.293  12.594  0.9568 -1.8649  0.5745
 6624TIP3   OH241362   2.003   6.783  12.757  0.3898  1.2276 -0.1322
 6624TIP3    H141363   2.079   6.820  12.712 -0.2427  1.0525 -1.3870
 6624TIP3    H241364   2.001   6.691  12.730 -0.9723  1.5244 -1.1453
 6625TIP3   OH241365   3.820   4.343   1.504  0.2243 -0.3882 -0.0257
 6625TIP3    H141366   3.775   4.428   1.501  0.3522 -0.2796  0.9358
 6625TIP3    H241367   3.755   4.280   1.472 -0.7490 -0.2862  1.6726
 6626TIP3   OH241368   1.493   2.532   4.797  0.0883 -0.1559  0.1964
 6626TIP3    H141369   1.580   2.493   4.786 -0.2953 -0.5217 -1.6652
 6626TIP3    H241370   1.432   2.465   4.766 -0.8074  0.5153  0.4697
 6627TIP3   OH241371   5.640   0.755  13.843  0.4041 -0.7797  0.0128
 6627TIP3    H141372   5.637   0.662  13.865 -0.0818 -1.1462 -1.5248
 6627TIP3    H241373   5.611   0.759  13.751  0.5657  0.8658  0.0167
 6628TIP3   OH241374   2.223   3.573  11.335  0.1539  0.5406 -0.1242
 6628TIP3    H141375   2.206   3.519  11.259  2.1882  0.6961 -0.7151
 6628TIP3    H241376   2.248   3.512  11.404 -0.1108  0.5306 -0.0348
 6629TIP3   OH241377   6.490   6.469   2.681  0.2812  0.4178  0.2056
 6629TIP3    H141378   6.394   6.468   2.678  0.2048 -0.4469  2.1384
 6629TIP3    H241379   6.516   6.503   2.596 -1.7437  0.3817 -0.4595
 6630TIP3   OH241380   4.838   2.828  12.921  0.0460 -0.2827 -0.1128
 6630TIP3    H141381   4.902   2.862  12.858 -0.0986 -0.8143 -0.5480
 6630TIP3    H241382   4.841   2.733  12.909  0.2873 -0.4128  0.9381
 6631TIP3   OH241383   1.915   6.485  12.323 -0.3448 -0.6441 -0.2106
 6631TIP3    H141384   1.959   6.403  12.345 -1.0575 -1.2757 -1.1283
 6631TIP3    H241385   1.902   6.481  12.229 -4.0829 -1.3344  0.2669
 6632TIP3   OH241386   0.220   0.507  11.261  0.7854  0.4889  0.3494
 6632TIP3    H141387   0.220   0.423  11.307  1.7255  1.0471  1.3798
 6632TIP3    H241388   0.129   0.536  11.264  0.9079  0.7160  2.2121
 6633TIP3   OH241389   3.180   4.441  14.757 -0.3549  0.5557 -0.2029
 6633TIP3    H141390   3.221   4.495  14.825 -1.8428 -0.6178  1.7049
 6633TIP3    H241391   3.167   4.356  14.800 -0.7303 -0.4107 -2.1881
 6634TIP3   OH241392   5.339   1.527   4.658  0.0746 -0.1947  0.2587
 6634TIP3    H141393   5.427   1.522   4.695 -0.2165 -0.6035  0.9091
 6634TIP3    H241394   5.299   1.443   4.680 -0.9577  0.5391  1.2416
 6635TIP3   OH241395   3.035   6.447  11.329 -0.1873  0.2144  0.0727
 6635TIP3    H141396   3.078   6.496  11.260 -0.7024 -1.1576 -1.2513
 6635TIP3    H241397   3.072   6.482  11.410  0.0274  2.2078 -0.8636
 6636TIP3   OH241398   5.581   1.128   2.038 -0.5987 -0.3383 -0.0844
 6636TIP3    H141399   5.635   1.201   2.007 -1.3944 -0.5679 -2.0328
 6636TIP3    H241400   5.494   1.165   2.049 -0.0496  0.1472  3.5192
 6637TIP3   OH241401   6.343   0.304  13.200  0.5321  0.1695  0.0308
 6637TIP3    H141402   6.268   0.327  13.254 -0.3353  0.6448 -1.3673
 6637TIP3    H241403   6.394   0.385  13.195  1.5216 -0.3349  1.5530
 6638TIP3   OH241404   4.124   5.725   1.825  0.0513 -0.2609  0.2779
 6638TIP3    H141405   4.188   5.682   1.768 -1.0480 -0.8190 -0.5551
 6638TIP3    H241406   4.123   5.816   1.796 -0.0274 -0.4027 -0.1654
 6639TIP3   OH241407   5.882   2.498  13.622 -0.0626  0.0289  0.3141
 6639TIP3    H141408   5.940   2.573  13.614  0.9670 -0.6783  1.0929
 6639TIP3    H241409   5.810   2.529  13.677 -0.9821  1.2273 -1.5368
 6640TIP3   OH241410   2.961   0.440   3.311 -0.3649 -0.5132  0.2735
 6640TIP3    H141411   3.036   0.421   3.254 -0.9374 -1.5398 -0.1719
 6640TIP3    H241412   2.981   0.524   3.352  0.9242 -0.6841 -0.0046
 6641TIP3   OH241413   1.711   3.477  13.854 -0.0999  0.2254  0.3999
 6641TIP3    H141414   1.713   3.392  13.897  1.5985  0.5944  1.0747
 6641TIP3    H241415   1.746   3.538  13.918 -0.5083  1.3027 -0.3808
 6642TIP3   OH241416   5.981   1.510   4.866  0.0934  0.7147  0.4167
 6642TIP3    H141417   6.052   1.466   4.820  0.0349  2.1707 -1.1144
 6642TIP3    H241418   5.909   1.447   4.864  1.0571 -0.4336  1.2385
 6643TIP3   OH241419   3.118   6.141  13.359 -0.1449 -0.0486  0.2700
 6643TIP3    H141420   3.060   6.065  13.367 -0.5755  0.1149 -1.2279
 6643TIP3    H241421   3.192   6.120  13.417  0.6394 -2.4609 -1.5011
 6644TIP3   OH241422   5.603   0.631  10.956 -0.4498  0.7774 -0.0576
 6644TIP3    H141423   5.576   0.616  10.865 -0.3536  0.7203 -0.0766
 6644TIP3    H241424   5.673   0.695  10.950  1.8588 -1.6749 -0.3132
 6645TIP3   OH241425   4.115   3.681   3.109  0.0828  0.3949 -0.4943
 6645TIP3    H141426   4.120   3.774   3.090  0.0195  0.6343  0.6347
 6645TIP3    H241427   4.201   3.659   3.146  0.5041 -0.2462 -1.8268
 6646TIP3   OH241428   1.755   3.742  11.400 -0.1356 -0.3296 -0.5300
 6646TIP3    H141429   1.673   3.723  11.354 -0.6639  0.2940  0.1438
 6646TIP3    H241430   1.808   3.788  11.336  0.0629 -1.5814 -1.2741
 6647TIP3   OH241431   0.717   1.649  14.935 -0.1010  0.1192 -0.3958
 6647TIP3    H141432   0.665   1.656  14.855  0.2302 -0.5896 -0.6847
 6647TIP3    H241433   0.748   1.738  14.951 -2.2961  0.7627  0.4125
 6648TIP3   OH241434   6.762   5.953  13.722  0.1077 -0.1797  0.2014
 6648TIP3    H141435   6.691   5.943  13.658  0.5682  1.3010 -0.5514
 6648TIP3    H241436   6.717   5.976  13.803 -0.3919 -0.9314  0.1495
 6649TIP3   OH241437   6.472   6.438   2.122 -0.2998 -0.6482  1.0925
 6649TIP3    H141438   6.409   6.409   2.188  1.0184 -0.5264  2.4230
 6649TIP3    H241439   6.530   6.498   2.168  0.4110 -0.2466 -0.2794
 6650TIP3   OH241440   0.710   5.134  16.171  0.0783 -0.1473  0.1134
 6650TIP3    H141441   0.789   5.169  16.211  0.2335 -0.2779 -0.0816
 6650TIP3    H241442   0.729   5.129  16.078 -0.3496  0.3208 -0.0015
 6651TIP3   OH241443   5.017   1.471   5.371 -0.4118  0.4781 -0.6160
 6651TIP3    H141444   4.966   1.534   5.321 -1.1901  0.1660 -0.2363
 6651TIP3    H241445   5.056   1.522   5.442 -3.2988  0.0826  1.3405
 6652TIP3   OH241446   5.991   1.821   5.491  0.0097  0.1916  0.2024
 6652TIP3    H141447   6.037   1.831   5.574 -0.2891 -0.4727  0.4548
 6652TIP3    H241448   5.953   1.733   5.496 -0.9817  0.6012 -0.1504
 6653TIP3   OH241449   0.159   0.416  15.165 -0.9107  0.0536  1.2399
 6653TIP3    H141450   0.112   0.445  15.087 -1.4458 -1.4567  0.9785
 6653TIP3    H241451   0.101   0.351  15.205  0.6951 -1.4344  1.2177
 6654TIP3   OH241452   4.423   0.300   2.481  0.2720 -0.6380  0.3612
 6654TIP3    H141453   4.411   0.264   2.569  1.8526  0.0544  0.8830
 6654TIP3    H241454   4.397   0.392   2.490 -1.2990 -0.9884 -0.3534
 6655TIP3   OH241455   4.773   2.911   3.213 -0.1726  0.4246 -0.0285
 6655TIP3    H141456   4.686   2.877   3.236  0.2327  0.8278  2.2217
 6655TIP3    H241457   4.781   2.895   3.119 -1.0364 -3.3464  0.4627
 6656TIP3   OH241458   5.326   5.534  15.120  0.1923  0.2697  0.0933
 6656TIP3    H141459   5.344   5.441  15.134 -0.0889  0.1618 -0.2484
 6656TIP3    H241460   5.296   5.565  15.205 -0.7209 -0.1914 -0.0551
 6657TIP3   OH241461   2.788   3.039   5.847  0.9499 -0.5599 -0.3092
 6657TIP3    H141462   2.729   3.028   5.921  0.3552  0.2690 -0.6510
 6657TIP3    H241463   2.732   3.070   5.776  1.7001 -0.3011 -0.7976
 6658TIP3   OH241464   6.608   0.355   1.934 -0.0795 -0.3758  0.7435
 6658TIP3    H141465   6.701   0.363   1.911 -0.3203 -0.1289 -0.1551
 6658TIP3    H241466   6.607   0.294   2.008  0.8220 -0.1611  0.9438
 6659TIP3   OH241467   0.611   0.958   0.549  0.2000 -0.0758  0.1207
 6659TIP3    H141468   0.664   0.951   0.470  1.3246 -0.4052  0.8886
 6659TIP3    H241469   0.667   0.922   0.618 -0.9937 -0.3442  0.9599
 6660TIP3   OH241470   3.060   4.835   0.446  0.2506 -0.1385  0.2218
 6660TIP3    H141471   3.031   4.775   0.515 -0.8584 -1.2547 -1.1987
 6660TIP3    H241472   2.989   4.835   0.382  0.9616  1.4309 -0.5953
 6661TIP3   OH241473   3.331   0.057   2.896  0.9361  0.1457 -0.3213
 6661TIP3    H141474   3.425   0.050   2.878  0.9919 -1.3227  0.4330
 6661TIP3    H241475   3.310  -0.024   2.944 -0.4851  0.9817  0.4998
 6662TIP3   OH241476   2.807   1.819   4.478  0.0033  0.1782 -1.1261
 6662TIP3    H141477   2.872   1.872   4.432  0.6671  1.0664  0.7773
 6662TIP3    H241478   2.852   1.736   4.497  0.2200  0.3658 -0.8084
 6663TIP3   OH241479   1.077   5.356  15.181 -0.6270 -0.3340 -0.2037
 6663TIP3    H141480   1.059   5.262  15.174  1.3629 -0.6521 -1.2711
 6663TIP3    H241481   1.083   5.372  15.276 -0.7155 -1.3273 -0.0217
 6664TIP3   OH241482   5.304   0.644  14.041 -0.6018  0.1387 -0.1122
 6664TIP3    H141483   5.226   0.611  13.996 -1.2285  0.1119  0.9871
 6664TIP3    H241484   5.278   0.731  14.073  0.1549  0.5674 -0.6295
 6665TIP3   OH241485   3.157   6.735   4.643 -0.3124  0.0852  0.4106
 6665TIP3    H141486   3.105   6.657   4.661 -0.3403  0.0473  0.1642
 6665TIP3    H241487   3.108   6.782   4.576 -0.4583  0.4763  0.7854
 6666TIP3   OH241488   3.970   6.079  11.040  0.1335  0.1148 -0.0458
 6666TIP3    H141489   4.017   6.125  10.970  3.5237 -2.5589  0.3253
 6666TIP3    H241490   3.935   6.001  10.998 -2.5724  1.2300  0.0846
 6667TIP3   OH241491   0.274   1.168   3.379  0.3775 -0.2982 -0.3982
 6667TIP3    H141492   0.216   1.122   3.440 -0.0686  0.4190 -0.2745
 6667TIP3    H241493   0.299   1.102   3.315 -1.2970 -0.4155 -0.9777
 6668TIP3   OH241494   2.769   4.226   0.649  0.2112  0.0466 -0.1310
 6668TIP3    H141495   2.837   4.244   0.713  0.5185  1.2842 -0.7830
 6668TIP3    H241496   2.812   4.175   0.581  0.6019  1.1728 -0.7403
 6669TIP3   OH241497   5.049   3.816  15.520 -0.8202  0.4534  0.2992
 6669TIP3    H141498   5.047   3.858  15.434 -0.0119 -1.3116 -0.6009
 6669TIP3    H241499   5.003   3.877  15.578  0.5813  2.7192 -0.9129
 6670TIP3   OH241500   1.094   0.128  16.291  0.1365  0.8368  0.5403
 6670TIP3    H141501   1.061   0.057  16.235  1.4181 -1.0447  2.1111
 6670TIP3    H241502   1.159   0.173  16.237  0.3809 -0.1015  0.0396
 6671TIP3   OH241503   5.816   4.395   4.778 -0.0896  0.1745 -0.2260
 6671TIP3    H141504   5.833   4.406   4.684 -1.4651 -2.1112 -0.7884
 6671TIP3    H241505   5.746   4.456   4.797 -1.4183 -0.9845 -1.2475
 6672TIP3   OH241506   4.559   3.258  11.895  0.0632  0.0847  0.1224
 6672TIP3    H141507   4.629   3.207  11.936 -0.1108  0.6207  1.1097
 6672TIP3    H241508   4.603   3.310  11.828 -0.0958 -3.1163 -2.5731
 6673TIP3   OH241509   6.307   5.177  14.437  0.2896  0.3634 -0.5390
 6673TIP3    H141510   6.260   5.095  14.418 -0.1078  0.5384 -0.3171
 6673TIP3    H241511   6.338   5.166  14.526  0.2058  0.4658 -0.4957
 6674TIP3   OH241512   1.260   5.758  15.584 -0.1966 -0.2555  0.3219
 6674TIP3    H141513   1.209   5.693  15.632  1.2243 -1.6583 -0.0586
 6674TIP3    H241514   1.212   5.770  15.502 -0.5231 -0.7186  0.4441
 6675TIP3   OH241515   1.611   3.813  14.292 -0.7328  0.3729  0.6578
 6675TIP3    H141516   1.651   3.896  14.319  0.8614 -0.4673  0.9941
 6675TIP3    H241517   1.620   3.812  14.197 -2.0592  1.2217  0.5184
 6676TIP3   OH241518   5.314   4.999   3.544 -0.2508  0.1764  0.1092
 6676TIP3    H141519   5.325   4.953   3.627 -1.4481 -1.3116 -0.5408
 6676TIP3    H241520   5.235   4.962   3.505 -1.0586  2.5558 -0.6008
 6677TIP3   OH241521   1.100   4.713   4.689 -0.1314  0.2068 -0.4403
 6677TIP3    H141522   1.177   4.701   4.634 -0.1055  0.0305 -0.3679
 6677TIP3    H241523   1.101   4.637   4.748  0.2784  0.7903  0.3205
 6678TIP3   OH241524   2.218   5.668  16.415 -0.2178  0.5285  0.0562
 6678TIP3    H141525   2.140   5.696  16.366 -0.7782 -0.4615  0.3597
 6678TIP3    H241526   2.198   5.578  16.441  1.6729 -0.2864 -1.1751
 6679TIP3   OH241527   2.871   4.241   4.785  0.1712 -0.0643  0.2512
 6679TIP3    H141528   2.795   4.295   4.807 -0.7489 -0.4299 -1.8814
 6679TIP3    H241529   2.923   4.239   4.866 -1.2172  1.5968  1.2393
 6680TIP3   OH241530   3.840   1.692   0.026 -0.0799  0.2611  0.1630
 6680TIP3    H141531   3.770   1.660  -0.031  0.8297 -0.4600 -0.5681
 6680TIP3    H241532   3.795   1.719   0.106 -1.0898 -1.1898  0.1149
 6681TIP3   OH241533   5.880   4.193  16.787  0.5373 -0.4812  0.2102
 6681TIP3    H141534   5.952   4.222  16.730  0.1646 -0.2421 -0.1444
 6681TIP3    H241535   5.906   4.221  16.875  1.3588 -1.3038  0.2374
 6682TIP3   OH241536   2.530   4.876   2.286  0.4619 -0.5764  0.9576
 6682TIP3    H141537   2.463   4.807   2.276  0.9430 -1.2675  2.3732
 6682TIP3    H241538   2.560   4.893   2.197 -2.2079  0.3693  0.1618
 6683TIP3   OH241539   2.359   4.532   5.944  0.4280 -0.1727 -0.0227
 6683TIP3    H141540   2.366   4.584   6.024 -0.7339  0.8585 -0.5591
 6683TIP3    H241541   2.427   4.567   5.886  0.4204 -0.0394  0.0490
 6684TIP3   OH241542   0.673   0.271   2.093  0.0452  0.2441  0.2460
 6684TIP3    H141543   0.674   0.238   2.183 -0.2237  1.2364  0.6213
 6684TIP3    H241544   0.603   0.221   2.050  0.9406 -1.0368  0.2687
 6685TIP3   OH241545   2.346   6.718   3.798  0.4520 -0.1722  0.1208
 6685TIP3    H141546   2.351   6.674   3.713 -0.2566  1.1103 -0.5918
 6685TIP3    H241547   2.301   6.655   3.855 -1.7795  0.1423 -1.2390
 6686TIP3   OH241548   2.190   4.466   2.127  0.2279  0.1181 -0.6438
 6686TIP3    H141549   2.120   4.459   2.191 -0.0765 -0.7006 -1.0609
 6686TIP3    H241550   2.188   4.383   2.079  0.5460  0.6590 -1.6116
 6687TIP3   OH241551   0.181   5.451   2.643  0.4934 -0.4487  0.2967
 6687TIP3    H141552   0.192   5.379   2.706 -1.8312 -0.7790  0.3705
 6687TIP3    H241553   0.106   5.501   2.677  2.6938  2.6781  0.8453
 6688TIP3   OH241554   3.295   2.159   0.024  0.2357 -0.0508  0.2861
 6688TIP3    H141555   3.293   2.249  -0.010 -0.2593  0.2188  1.0036
 6688TIP3    H241556   3.204   2.129   0.016  0.5542 -0.7478 -0.6428
 6689TIP3   OH241557   1.738   1.895  14.349 -0.4453 -0.3906 -0.4787
 6689TIP3    H141558   1.669   1.830  14.336  1.9950 -2.8246 -1.5094
 6689TIP3    H241559   1.712   1.968  14.292 -1.3608 -1.9066 -2.0505
 6690TIP3   OH241560   5.757   0.594  14.914  0.1778 -0.2286  0.0102
 6690TIP3    H141561   5.786   0.530  14.979  0.9422  0.7024  0.6064
 6690TIP3    H241562   5.793   0.562  14.831  1.1625 -0.1958  0.4124
 6691TIP3   OH241563   3.017   3.196  12.383  0.2691 -0.0999 -0.1326
 6691TIP3    H141564   3.006   3.134  12.455 -0.1731  0.8556  0.6311
 6691TIP3    H241565   2.941   3.254  12.389  0.8627  0.7408 -0.6180
 6692TIP3   OH241566   1.592   2.807  11.667  0.0668  0.1721  0.2799
 6692TIP3    H141567   1.577   2.783  11.575 -1.1912  0.4963  0.3981
 6692TIP3    H241568   1.505   2.822  11.703  0.5543  0.1029  1.5247
 6693TIP3   OH241569   3.310   4.937   2.222  0.2021  0.5501  0.7557
 6693TIP3    H141570   3.270   4.893   2.297 -2.6159  0.5476 -0.6831
 6693TIP3    H241571   3.275   5.027   2.226 -0.9874  0.1948 -1.2539
 6694TIP3   OH241572   2.388   4.724   6.120  0.9519 -0.2589 -0.1800
 6694TIP3    H141573   2.394   4.818   6.100  2.2445 -0.4662 -0.8007
 6694TIP3    H241574   2.394   4.720   6.216 -2.1018  0.5033  0.0817
 6695TIP3   OH241575   3.707   2.101  12.929 -0.4329  0.0840 -0.3075
 6695TIP3    H141576   3.623   2.056  12.943  0.0371 -1.3691 -1.9635
 6695TIP3    H241577   3.763   2.034  12.889  0.5247  1.9409 -2.1087
 6696TIP3   OH241578   4.260   3.115  16.609 -0.4587  0.1115  0.5939
 6696TIP3    H141579   4.299   3.192  16.567  0.1975 -0.1581  0.6888
 6696TIP3    H241580   4.320   3.044  16.586  0.2988  0.0877  2.5808
 6697TIP3   OH241581   3.037   0.635  15.336  0.3469  0.2237  0.2665
 6697TIP3    H141582   3.070   0.585  15.411  1.9775 -1.0438 -1.2620
 6697TIP3    H241583   2.988   0.571  15.284  1.6534  0.4273 -1.2262
 6698TIP3   OH241584   6.076   1.081  15.129  0.3568 -0.4461 -0.3489
 6698TIP3    H141585   6.031   1.164  15.148  1.2402 -0.2378  0.9650
 6698TIP3    H241586   6.009   1.014  15.141  0.1125 -0.0582  0.5365
 6699TIP3   OH241587   5.379   4.108  16.424  0.5405 -0.1039  0.2011
 6699TIP3    H141588   5.317   4.124  16.495 -0.6858 -0.3260 -0.7958
 6699TIP3    H241589   5.379   4.013  16.412  0.3687 -0.0310 -0.4086
 6700TIP3   OH241590   2.421   0.004  17.149  0.0279  0.2015 -0.4669
 6700TIP3    H141591   2.335  -0.031  17.124 -0.1967  0.6248 -0.3049
 6700TIP3    H241592   2.427  -0.013  17.244 -0.7962  2.0732 -0.0621
 6701TIP3   OH241593   3.434   6.240   2.956 -0.3749  0.1772 -0.5221
 6701TIP3    H141594   3.494   6.182   3.003 -1.4558 -0.6228 -0.1049
 6701TIP3    H241595   3.437   6.208   2.865 -0.0134  0.2628 -0.5391
 6702TIP3   OH241596   3.245   6.114   2.029  0.2074 -0.4817 -0.3188
 6702TIP3    H141597   3.302   6.078   2.097 -0.7390 -0.2122  0.6312
 6702TIP3    H241598   3.227   6.204   2.057 -0.1134 -0.3388 -0.9659
 6703TIP3   OH241599   0.839   1.360  10.797 -0.5137 -0.1921  0.1621
 6703TIP3    H141600   0.924   1.371  10.840 -0.1135  0.7004 -0.8361
 6703TIP3    H241601   0.849   1.281  10.744  0.0050  0.4238 -0.6696
 6704TIP3   OH241602   3.232   4.752  16.081  0.2045  0.2294 -0.0822
 6704TIP3    H141603   3.254   4.775  16.172 -0.3384  0.3505  0.0152
 6704TIP3    H241604   3.317   4.739  16.039  0.5313  2.1842 -0.0808
 6705TIP3   OH241605   4.225   4.370   0.192  0.5375  0.0405  0.0222
 6705TIP3    H141606   4.247   4.318   0.115 -1.5595 -1.1557  0.1960
 6705TIP3    H241607   4.181   4.447   0.156 -0.9314 -0.7760  0.0141
 6706TIP3   OH241608   0.981   3.683  17.142 -0.1457  0.6895  0.0389
 6706TIP3    H141609   1.057   3.628  17.125 -1.2035 -0.6527 -0.3955
 6706TIP3    H241610   0.972   3.682  17.238  1.4128  2.2924  0.2324
 6707TIP3   OH241611   4.750   0.862  10.593 -0.6805 -0.2104  0.3025
 6707TIP3    H141612   4.712   0.819  10.670 -1.1197 -2.1584 -0.9643
 6707TIP3    H241613   4.777   0.948  10.624 -0.6800 -1.0407  2.6864
 6708TIP3   OH241614   2.085   3.512  12.848 -0.5739 -0.4444 -0.7227
 6708TIP3    H141615   2.179   3.494  12.852 -0.1494  1.8797  1.0317
 6708TIP3    H241616   2.068   3.528  12.755  0.8632 -0.4699 -1.0068
 6709TIP3   OH241617   0.516   3.613   3.814  0.0198  0.0949  0.3206
 6709TIP3    H141618   0.421   3.611   3.800  0.1087  1.1806 -0.5538
 6709TIP3    H241619   0.553   3.582   3.731  0.4084 -2.2207  1.3214
 6710TIP3   OH241620   5.294   5.539   1.155  0.2807  0.0544  0.1861
 6710TIP3    H141621   5.265   5.531   1.064 -1.2521  3.1825  0.3411
 6710TIP3    H241622   5.236   5.479   1.204  0.2435 -0.6584 -0.7187
 6711TIP3   OH241623   5.009   2.032   0.469  0.1636  0.4010  0.1651
 6711TIP3    H141624   5.062   1.975   0.413  0.3178  0.6350  0.0735
 6711TIP3    H241625   4.998   2.112   0.418 -3.8045 -1.1720 -1.5913
 6712TIP3   OH241626   5.659   3.137  16.969 -0.2301  0.2200  0.0225
 6712TIP3    H141627   5.593   3.118  17.036 -0.1738  1.1466  0.3447
 6712TIP3    H241628   5.636   3.081  16.896  0.1541 -1.3804  1.0984
 6713TIP3   OH241629   1.779   1.674   5.952 -0.0070  0.0932 -0.2468
 6713TIP3    H141630   1.751   1.741   5.890 -1.5849 -0.6534 -0.3637
 6713TIP3    H241631   1.829   1.722   6.019 -1.2665  1.4049 -0.2345
 6714TIP3   OH241632   0.607   0.583  15.621 -0.2758  0.0164 -0.3682
 6714TIP3    H141633   0.703   0.584  15.615 -0.1430 -0.0692  1.4414
 6714TIP3    H241634   0.578   0.624  15.540  1.3283  0.7906 -0.5838
 6715TIP3   OH241635   4.117   0.824   3.241  0.2376 -0.1012  0.2242
 6715TIP3    H141636   4.130   0.890   3.173  2.7596 -0.2422  0.5090
 6715TIP3    H241637   4.118   0.741   3.194 -0.9554 -0.0474  0.0982
 6716TIP3   OH241638   1.814   5.510  16.340 -0.1155  0.1058 -0.2726
 6716TIP3    H141639   1.906   5.490  16.322 -0.1407  0.1055 -0.4054
 6716TIP3    H241640   1.815   5.597  16.379 -0.2305  1.0105 -2.2118
 6717TIP3   OH241641   0.627   4.054  16.953 -0.8290  0.5474  0.3756
 6717TIP3    H141642   0.608   3.980  16.895  1.0206  0.1480  0.2602
 6717TIP3    H241643   0.583   4.031  17.035 -1.1581 -0.1724  0.0079
 6718TIP3   OH241644   3.760   1.959  11.379  0.7671  0.0702  0.4518
 6718TIP3    H141645   3.742   1.905  11.302  2.4215 -0.5704  0.4929
 6718TIP3    H241646   3.815   1.904  11.435 -0.9154  0.3029  2.4005
 6719TIP3   OH241647   3.049   3.632   5.061 -0.7430  0.3870 -0.3988
 6719TIP3    H141648   3.015   3.718   5.083 -1.1014  0.0151  0.5613
 6719TIP3    H241649   2.997   3.603   4.986 -1.1105  0.7018 -0.2629
 6720TIP3   OH241650   2.143   1.658   1.065 -0.0134  0.2383  0.2076
 6720TIP3    H141651   2.119   1.668   1.157  1.9899 -0.1730  0.8116
 6720TIP3    H241652   2.189   1.575   1.061 -0.1902  0.1952 -1.2008
 6721TIP3   OH241653   3.633   1.521  13.424 -0.0741  0.3293  0.0232
 6721TIP3    H141654   3.680   1.471  13.491  0.5687 -0.2724 -0.8603
 6721TIP3    H241655   3.554   1.553  13.468  0.8476  0.8214  1.3607
 6722TIP3   OH241656   1.300   0.092   3.114  0.0091 -0.1407 -0.3038
 6722TIP3    H141657   1.362   0.161   3.089 -0.9289  1.2149  1.0459
 6722TIP3    H241658   1.354   0.026   3.158  0.4469  1.2575  1.3108
 6723TIP3   OH241659   3.327   5.236  11.498 -0.3161  0.3708 -0.1341
 6723TIP3    H141660   3.287   5.150  11.500  1.9373 -0.7265 -0.6431
 6723TIP3    H241661   3.264   5.291  11.451 -1.4373 -1.1549 -0.4399
 6724TIP3   OH241662   3.887   2.207  16.554 -0.0281  0.3305  0.0613
 6724TIP3    H141663   3.929   2.272  16.610  0.6959  0.3585 -0.5029
 6724TIP3    H241664   3.936   2.211  16.471  0.6334 -1.5812  0.3309
 6725TIP3   OH241665   1.379   1.439  16.200  0.2870 -0.5358 -0.2127
 6725TIP3    H141666   1.349   1.348  16.192  2.8979 -1.5122  0.7470
 6725TIP3    H241667   1.332   1.473  16.276  0.2842 -1.5035  0.2270
 6726TIP3   OH241668   1.243   2.058   5.785  0.5144  0.2059  0.0459
 6726TIP3    H141669   1.286   2.077   5.868 -0.4692 -0.4939  0.7368
 6726TIP3    H241670   1.252   2.138   5.734  0.1378  1.0324  1.2623
 6727TIP3   OH241671   1.648   2.406  15.962  0.1118  0.5937  0.2792
 6727TIP3    H141672   1.585   2.374  15.898  0.4360  0.9225 -0.2159
 6727TIP3    H241673   1.660   2.498  15.939 -0.0730  0.8203  1.0710
 6728TIP3   OH241674   1.492   5.652  12.684 -0.0857  0.2242  0.1433
 6728TIP3    H141675   1.550   5.644  12.609  0.3243 -0.3707  0.5139
 6728TIP3    H241676   1.549   5.637  12.760 -0.3943  1.3324  0.6002
 6729TIP3   OH241677   1.716   1.052   2.180 -0.6295  0.0271  0.1688
 6729TIP3    H141678   1.744   0.962   2.195  2.2223  0.6980 -0.8186
 6729TIP3    H241679   1.704   1.088   2.267 -1.8968 -1.3160  0.5727
 6730TIP3   OH241680   0.884   5.250  12.732 -0.0293 -0.2751 -0.1840
 6730TIP3    H141681   0.913   5.169  12.772  1.3818 -0.3990 -1.4063
 6730TIP3    H241682   0.960   5.309  12.739 -0.5428  0.4472 -0.6107
 6731TIP3   OH241683   5.807   0.763  12.102  0.2566 -0.3144 -0.5153
 6731TIP3    H141684   5.855   0.755  12.185  0.1017 -1.8331 -0.5554
 6731TIP3    H241685   5.830   0.683  12.054 -0.2988  0.1733 -1.6041
 6732TIP3   OH241686   1.850   6.144   4.745  0.4603 -0.1120 -0.1497
 6732TIP3    H141687   1.887   6.197   4.815  0.1545  0.7808 -0.6535
 6732TIP3    H241688   1.925   6.099   4.706  1.0433  1.6871 -1.1731
 6733TIP3   OH241689   2.114   2.800  12.602  0.1090 -0.5332  0.0099
 6733TIP3    H141690   2.176   2.871  12.582 -0.4685 -0.1349 -0.3931
 6733TIP3    H241691   2.052   2.801  12.528 -0.4963 -0.7987  0.5098
 6734TIP3   OH241692   4.700   5.703   1.398 -0.1567  0.6206  0.1059
 6734TIP3    H141693   4.725   5.795   1.394 -1.8050  1.0724 -0.6844
 6734TIP3    H241694   4.726   5.668   1.313  0.1823  0.4531  0.2830
 6735TIP3   OH241695   2.468   1.163   1.432 -0.0789 -0.5514  0.1938
 6735TIP3    H141696   2.388   1.126   1.394 -0.4475 -1.0163  1.3964
 6735TIP3    H241697   2.502   1.220   1.364 -0.6289 -1.5053 -0.8971
 6736TIP3   OH241698   3.661   6.397  13.353  0.2010 -0.7846 -0.3528
 6736TIP3    H141699   3.593   6.449  13.397  0.1623 -0.6694 -0.5493
 6736TIP3    H241700   3.625   6.379  13.266  1.4688  1.4085 -1.3598
 6737TIP3   OH241701   4.587   4.392  14.776  0.3772 -0.1635 -0.2760
 6737TIP3    H141702   4.638   4.377  14.856  1.7763 -0.3855 -1.1787
 6737TIP3    H241703   4.572   4.487  14.774  0.7433 -0.0977  0.0355
 6738TIP3   OH241704   1.134   3.644  15.953  0.0928 -0.2800 -0.2859
 6738TIP3    H141705   1.105   3.554  15.941 -1.5815  0.1966 -0.0142
 6738TIP3    H241706   1.092   3.692  15.881 -1.4174  0.7612  1.2517
 6739TIP3   OH241707   0.474   5.671   0.652 -0.3335 -0.0909  0.8221
 6739TIP3    H141708   0.393   5.650   0.698 -0.6696 -0.4605  0.0750
 6739TIP3    H241709   0.446   5.726   0.579  0.3713  1.7933  1.9425
 6740TIP3   OH241710   4.750   6.462  15.473 -0.0811 -0.1679 -0.1492
 6740TIP3    H141711   4.683   6.401  15.502 -0.1472  0.6483  1.4723
 6740TIP3    H241712   4.719   6.548  15.502  1.3866  0.2888  0.1250
 6741TIP3   OH241713   2.116   4.558  12.072 -0.6546  0.3786 -0.4146
 6741TIP3    H141714   2.189   4.553  12.134 -1.3352  0.0208  0.3538
 6741TIP3    H241715   2.131   4.640  12.025  0.3614  0.2048 -0.4116
 6742TIP3   OH241716   2.611   0.449   3.658 -0.1791 -0.1562  0.4043
 6742TIP3    H141717   2.563   0.424   3.737  0.9607  1.0373  1.5075
 6742TIP3    H241718   2.585   0.540   3.642  0.4791 -0.0241  0.0695
 6743TIP3   OH241719   4.760   0.719  16.915 -0.0006 -0.0913  0.0664
 6743TIP3    H141720   4.692   0.754  16.858  0.1938  0.4507  0.1697
 6743TIP3    H241721   4.771   0.628  16.886  1.1692  0.6263 -1.7620
 6744TIP3   OH241722   5.755   3.133  15.041  0.0348  0.0623  0.1832
 6744TIP3    H141723   5.673   3.161  15.083 -0.4631  0.5372 -1.0769
 6744TIP3    H241724   5.759   3.039  15.057 -1.8195 -0.3380 -1.4710
 6745TIP3   OH241725   4.744   4.186   4.616  0.2040 -0.5107  0.0079
 6745TIP3    H141726   4.717   4.172   4.525  0.2731 -0.5488 -0.0059
 6745TIP3    H241727   4.698   4.118   4.665  0.1965 -0.5131 -0.0031
 6746TIP3   OH241728   0.531   6.255  16.878  0.7412  0.0468 -0.1772
 6746TIP3    H141729   0.613   6.234  16.921  0.4777  0.6608  0.6446
 6746TIP3    H241730   0.515   6.347  16.901 -0.6007 -0.3114  0.3958
 6747TIP3   OH241731   2.621   5.204  13.922  0.5496 -0.4097 -0.5819
 6747TIP3    H141732   2.551   5.245  13.871  1.0023 -0.0393 -0.9133
 6747TIP3    H241733   2.595   5.217  14.013  0.7782  0.7971 -0.6761
 6748TIP3   OH241734   5.263   0.368   5.929  0.1277  0.1428  0.2399
 6748TIP3    H141735   5.229   0.300   5.871  0.0474 -1.2586  1.8968
 6748TIP3    H241736   5.304   0.431   5.870  0.4736 -1.4903 -1.3080
 6749TIP3   OH241737   5.398   4.327   3.770 -0.2924 -0.0576  0.7737
 6749TIP3    H141738   5.348   4.384   3.712  0.7596  1.1158  1.0047
 6749TIP3    H241739   5.387   4.240   3.732  0.3222  0.6784 -1.1705
 6750TIP3   OH241740   0.925   4.701   0.498 -0.4030  0.4261 -0.2924
 6750TIP3    H141741   1.011   4.679   0.462 -1.0831 -1.5615 -0.7607
 6750TIP3    H241742   0.944   4.746   0.580  1.0938  0.2834 -0.5472
 6751TIP3   OH241743   5.308   4.402  17.142 -0.3314 -0.2479  0.0896
 6751TIP3    H141744   5.328   4.315  17.108 -1.1679  0.1096 -1.3653
 6751TIP3    H241745   5.231   4.430  17.092  0.2302  1.5336  0.1982
 6752TIP3   OH241746   0.608   6.410  12.443 -0.1030 -0.1793  0.1837
 6752TIP3    H141747   0.697   6.429  12.473  0.0659 -0.0784 -0.3844
 6752TIP3    H241748   0.583   6.332  12.493  0.0046  0.2605  0.9269
 6753TIP3   OH241749   4.373   3.989   1.561  0.0738 -0.2071  0.2381
 6753TIP3    H141750   4.350   3.936   1.638 -0.0339 -0.9845 -0.3268
 6753TIP3    H241751   4.427   3.931   1.507 -2.1721 -0.6374 -1.6303
 6754TIP3   OH241752   5.640   4.422  15.076  0.8171  0.4987  0.4575
 6754TIP3    H141753   5.587   4.498  15.053  0.6599  0.6714  1.3596
 6754TIP3    H241754   5.657   4.378  14.993  0.0362  0.9469  0.0583
 6755TIP3   OH241755   5.294   1.268   0.049 -0.1933 -0.0853 -0.0505
 6755TIP3    H141756   5.224   1.321   0.088 -0.0345 -0.1409  0.3153
 6755TIP3    H241757   5.258   1.238  -0.034 -0.6853 -0.2960  0.2398
 6756TIP3   OH241758   6.611   1.764   0.540 -0.0957  0.4894 -0.1313
 6756TIP3    H141759   6.603   1.848   0.495  5.3779  0.9171 -0.6855
 6756TIP3    H241760   6.638   1.787   0.629  2.0982 -0.5871 -0.4666
 6757TIP3   OH241761   0.567   2.662   0.558  0.5398 -0.1023  0.3888
 6757TIP3    H141762   0.486   2.704   0.528 -0.0322  0.6989  2.9248
 6757TIP3    H241763   0.619   2.735   0.593  1.0083 -1.0637  1.6946
 6758TIP3   OH241764   4.920   3.930  14.650  0.3893  0.6933  0.4799
 6758TIP3    H141765   4.907   4.024  14.662  1.6251  0.9925 -0.4059
 6758TIP3    H241766   4.880   3.890  14.727 -2.3071  1.7640 -0.3153
 6759TIP3   OH241767   0.313   6.211   4.311  0.0422 -0.5099  0.0857
 6759TIP3    H141768   0.406   6.202   4.290  0.4874  0.3004  1.5900
 6759TIP3    H241769   0.312   6.258   4.395 -1.7102 -0.9661  0.3460
 6760TIP3   OH241770   3.702   0.888  14.473  0.2279  0.4900  0.4149
 6760TIP3    H141771   3.635   0.825  14.499  0.6560 -0.3448 -0.4803
 6760TIP3    H241772   3.654   0.958  14.428  0.0201 -0.4293 -0.8150
 6761TIP3   OH241773   0.805   2.862  17.105 -0.7901  0.1259 -0.1489
 6761TIP3    H141774   0.878   2.819  17.060  0.1054  0.4458  0.9971
 6761TIP3    H241775   0.844   2.936  17.151 -2.2937  2.1221 -1.9584
 6762TIP3   OH241776   2.340   4.682   2.271 -0.0514 -0.3615 -0.3393
 6762TIP3    H141777   2.337   4.658   2.363 -2.1081 -1.7950 -0.7482
 6762TIP3    H241778   2.249   4.700   2.247  0.5586  0.7773 -1.8821
 6763TIP3   OH241779   4.060   0.597  15.239 -0.2141 -0.2179 -0.8589
 6763TIP3    H141780   4.144   0.558  15.263  0.6867  1.4935 -1.1444
 6763TIP3    H241781   4.007   0.595  15.319 -0.4686 -2.7046 -1.0685
 6764TIP3   OH241782   4.660   2.079   5.136 -0.2734  0.1312  0.3059
 6764TIP3    H141783   4.669   2.097   5.043  0.2754  1.3396  0.5871
 6764TIP3    H241784   4.636   2.163   5.175  0.1490 -0.2175  1.3435
 6765TIP3   OH241785   3.548   4.478   5.455  0.4182  0.1473  0.3948
 6765TIP3    H141786   3.533   4.389   5.423  1.5326 -0.6316  1.9366
 6765TIP3    H241787   3.594   4.522   5.384  1.0878 -0.9309  0.1483
 6766TIP3   OH241788   2.898   4.455   4.165 -0.3581 -0.0498  0.1260
 6766TIP3    H141789   2.857   4.451   4.251  0.6135 -1.3181  0.5423
 6766TIP3    H241790   2.991   4.469   4.183 -0.2029  0.0673 -0.7351
 6767TIP3   OH241791   4.420   1.374  11.939 -0.3252  0.1453  0.2897
 6767TIP3    H141792   4.465   1.293  11.962  0.0889  1.1317  3.1793
 6767TIP3    H241793   4.349   1.346  11.882  0.0684 -2.1875  0.8708
 6768TIP3   OH241794   5.660   5.645   2.603  0.1140  0.5862  0.0942
 6768TIP3    H141795   5.737   5.701   2.606  0.0973  0.5654  0.8885
 6768TIP3    H241796   5.659   5.600   2.688  0.6625 -1.3356 -0.8673
 6769TIP3   OH241797   4.472   2.825  13.407 -0.4719  0.0062  0.5495
 6769TIP3    H141798   4.545   2.871  13.448  0.8669 -0.8448 -0.8282
 6769TIP3    H241799   4.503   2.803  13.319 -2.7925  0.6034 -0.4708
 6770TIP3   OH241800   3.617   6.665   1.097  0.2354  0.2921 -0.0535
 6770TIP3    H141801   3.638   6.708   1.014  1.2502 -0.4827 -0.2104
 6770TIP3    H241802   3.555   6.596   1.072 -0.5340  0.9408  0.0402
 6771TIP3   OH241803   6.454   2.157   6.616  0.4347 -0.3145  0.1786
 6771TIP3    H141804   6.410   2.181   6.697  0.9195  0.3204  0.2632
 6771TIP3    H241805   6.483   2.241   6.579  1.0276 -0.6711 -0.1813
 6772TIP3   OH241806   6.344   4.915  16.759 -0.2130 -0.3611 -0.7504
 6772TIP3    H141807   6.403   4.856  16.805 -0.4981  0.4351  0.6568
 6772TIP3    H241808   6.396   4.993  16.742 -1.2547  0.9405  1.8282
 6773TIP3   OH241809   5.737   2.201   4.588 -0.4636 -0.4671 -0.1100
 6773TIP3    H141810   5.746   2.262   4.661  1.4824 -1.1392  0.2469
 6773TIP3    H241811   5.788   2.125   4.615 -2.0993 -1.8851 -0.9547
 6774TIP3   OH241812   2.025   0.128  13.728  0.0544  0.8322  0.8283
 6774TIP3    H141813   2.015   0.054  13.787 -0.0870  0.1470 -0.0428
 6774TIP3    H241814   1.941   0.135  13.683  1.7853 -2.0431 -3.1652
 6775TIP3   OH241815   6.233   3.153   5.701 -0.1585  0.2253 -0.0182
 6775TIP3    H141816   6.310   3.107   5.736 -0.4664 -0.2706  0.0092
 6775TIP3    H241817   6.158   3.101   5.731 -0.5409  1.0691  0.5026
 6776TIP3   OH241818   6.360   3.965   2.671 -0.1327 -0.0584 -0.5452
 6776TIP3    H141819   6.451   3.987   2.690 -0.6334  1.4087  0.3130
 6776TIP3    H241820   6.351   3.873   2.697  0.9908 -0.0852 -0.2245
 6777TIP3   OH241821   2.626   0.756   4.295 -0.4211 -0.1005  0.0267
 6777TIP3    H141822   2.639   0.675   4.344  0.7521  0.6588  1.0061
 6777TIP3    H241823   2.564   0.807   4.347 -0.2853  0.1046 -0.0084
 6778TIP3   OH241824   1.652   0.041   0.779 -0.4274 -0.0767 -0.3558
 6778TIP3    H141825   1.591   0.112   0.798 -0.3291  0.0529 -0.5223
 6778TIP3    H241826   1.608  -0.012   0.712 -0.4270 -0.0770 -0.3558
 6779TIP3   OH241827   2.735   3.354  16.473  0.3196 -0.0592  0.2061
 6779TIP3    H141828   2.679   3.363  16.550 -0.1335 -1.9359  0.1177
 6779TIP3    H241829   2.817   3.319  16.507  0.2110 -0.6401 -0.1290
 6780TIP3   OH241830   2.676   4.780   4.229 -0.2586  0.6200 -0.0267
 6780TIP3    H141831   2.629   4.863   4.238 -0.4034  0.3684  1.7126
 6780TIP3    H241832   2.648   4.728   4.304 -1.5869 -1.7224 -2.0769
 6781TIP3   OH241833   3.339   6.182  14.257  0.1298 -0.0906  0.2998
 6781TIP3    H141834   3.302   6.269  14.248 -0.0024 -0.1224  0.5273
 6781TIP3    H241835   3.400   6.189  14.330  0.1270 -0.1852  0.3113
 6782TIP3   OH241836   3.073   1.940   3.869 -0.1489  0.2070  0.1803
 6782TIP3    H141837   3.029   1.856   3.884 -0.3833  0.5667  1.6271
 6782TIP3    H241838   3.002   2.000   3.847 -0.0147  0.0896 -0.5742
 6783TIP3   OH241839   5.173   1.089  15.833 -0.3227 -0.3170  0.0301
 6783TIP3    H141840   5.221   1.086  15.750 -0.6088 -0.8529 -0.1139
 6783TIP3    H241841   5.211   1.163  15.880 -1.5122  1.2252 -1.4020
 6784TIP3   OH241842   4.436   0.886   3.264  0.0971 -0.3396 -0.0791
 6784TIP3    H141843   4.434   0.817   3.330 -2.0090  0.8516  1.1597
 6784TIP3    H241844   4.374   0.857   3.197 -2.0245  1.0833  1.2358
 6785TIP3   OH241845   5.055   3.718   0.265 -0.5014  0.5002 -0.1258
 6785TIP3    H141846   5.125   3.780   0.246 -0.8565  0.4509 -1.6449
 6785TIP3    H241847   4.980   3.773   0.288 -0.1473  0.5631  0.9338
 6786TIP3   OH241848   5.326   1.657   1.699 -0.0019 -0.2892 -0.1476
 6786TIP3    H141849   5.281   1.663   1.784  1.8467 -0.3610  0.8809
 6786TIP3    H241850   5.360   1.746   1.685  2.7497 -1.1062  0.9720
 6787TIP3   OH241851   1.802   5.512  17.263  0.4007 -0.2704 -0.1139
 6787TIP3    H141852   1.800   5.463  17.346  0.8705 -0.0094  0.0574
 6787TIP3    H241853   1.883   5.563  17.268 -2.1290  3.7987  1.5655
 6788TIP3   OH241854   4.984   5.931   5.057 -0.7700 -0.2993  0.0673
 6788TIP3    H141855   4.899   5.967   5.030 -0.5119 -0.0635 -0.4244
 6788TIP3    H241856   4.993   5.959   5.149  0.4552  2.8344 -0.9461
 6789TIP3   OH241857   4.577   2.796   2.335 -0.0739 -0.1590  0.4187
 6789TIP3    H141858   4.541   2.865   2.279  1.6940 -1.0071 -1.8612
 6789TIP3    H241859   4.530   2.717   2.310 -0.6566 -0.1825  1.5586
 6790TIP3   OH241860   4.478   2.697  10.965  0.2020  0.0025 -0.2748
 6790TIP3    H141861   4.471   2.663  11.055  0.5230  0.8892  0.0933
 6790TIP3    H241862   4.526   2.779  10.974  0.0259  0.2208 -1.2347
 6791TIP3   OH241863   1.343   2.567   4.196  0.0703  0.3983 -0.1617
 6791TIP3    H141864   1.261   2.527   4.224 -0.4565  1.6373  0.0769
 6791TIP3    H241865   1.382   2.502   4.138 -0.3710 -0.8210  0.8744
 6792TIP3   OH241866   4.156   4.315   4.190  0.9225 -0.7090  0.8220
 6792TIP3    H141867   4.127   4.334   4.101 -0.7113  1.4094  1.7509
 6792TIP3    H241868   4.190   4.226   4.186  0.3328 -0.8558 -1.7799
 6793TIP3   OH241869   2.242   0.511  14.764  0.1857  0.1905 -0.2676
 6793TIP3    H141870   2.159   0.536  14.723 -1.0929 -0.7634  1.6390
 6793TIP3    H241871   2.270   0.589  14.812  1.3505  1.0984 -2.3840
 6794TIP3   OH241872   2.379   0.920  12.884 -0.0523  0.4804  0.3443
 6794TIP3    H141873   2.359   1.002  12.928  0.8716  1.8736 -1.7566
 6794TIP3    H241874   2.462   0.937  12.838  1.6406 -2.5178  2.1574
 6795TIP3   OH241875   0.539   4.032   4.752  0.2615  0.7521  0.0683
 6795TIP3    H141876   0.456   4.011   4.710 -0.7394  2.2512  1.2318
 6795TIP3    H241877   0.524   4.016   4.845  1.0762  1.6518  0.3628
 6796TIP3   OH241878   5.341   6.348  12.694  0.3551 -0.6694 -0.6537
 6796TIP3    H141879   5.287   6.417  12.731 -0.5778 -1.7584  0.0689
 6796TIP3    H241880   5.364   6.379  12.607 -0.5766  0.2726 -0.5722
 6797TIP3   OH241881   2.895   0.276  11.425 -0.2394 -0.0663  0.0776
 6797TIP3    H141882   2.807   0.283  11.462  0.3127 -3.2385  2.1986
 6797TIP3    H241883   2.895   0.191  11.380  1.9172 -0.4185  0.7026
 6798TIP3   OH241884   0.772   3.308  16.942 -0.1188 -0.2284 -0.2932
 6798TIP3    H141885   0.788   3.273  16.854  1.1204  1.3933 -0.7521
 6798TIP3    H241886   0.852   3.287  16.990 -0.7546 -1.0138  0.4212
 6799TIP3   OH241887   2.901   2.095  16.021 -0.4167  0.2908  0.2656
 6799TIP3    H141888   2.825   2.081  15.965  0.2908  0.3421 -0.7256
 6799TIP3    H241889   2.886   2.039  16.097 -0.7409 -0.8168 -0.6076
 6800TIP3   OH241890   6.696   3.691   4.064 -0.9347  0.3604  0.3873
 6800TIP3    H141891   6.603   3.674   4.049 -0.6779 -1.9131  1.0874
 6800TIP3    H241892   6.741   3.637   3.999 -0.0965  0.1772  1.1122
 6801TIP3   OH241893   4.854   3.294  16.844 -0.8916  0.6819 -0.0209
 6801TIP3    H141894   4.799   3.356  16.891  0.3051 -1.2068  4.0386
 6801TIP3    H241895   4.796   3.255  16.778 -3.6307  0.8295  2.2409
 6802TIP3   OH241896   6.203   2.342   1.890  0.2286 -0.0376  0.0455
 6802TIP3    H141897   6.124   2.362   1.841  0.1729 -1.3158 -0.4022
 6802TIP3    H241898   6.267   2.318   1.823  0.3484 -1.1426  0.5379
 6803TIP3   OH241899   4.975   6.746  13.529  0.2872 -0.0548 -0.1590
 6803TIP3    H141900   4.992   6.839  13.511  1.8048 -0.3833 -0.4562
 6803TIP3    H241901   5.057   6.702  13.507 -0.3227 -1.4331  0.2974
 6804TIP3   OH241902   4.414   1.940   6.599 -0.0061  0.3744 -0.1413
 6804TIP3    H141903   4.328   1.908   6.573 -0.4150  0.9640  0.4830
 6804TIP3    H241904   4.419   2.028   6.562 -0.3297  0.9683  1.2033
 6805TIP3   OH241905   3.436   1.173   1.129  1.0470  0.3127  0.4623
 6805TIP3    H141906   3.435   1.161   1.034 -2.0684 -1.9438  0.6813
 6805TIP3    H241907   3.473   1.260   1.142 -0.3234  1.5011 -2.9403
 6806TIP3   OH241908   5.609   2.308   1.633  0.2368  0.3206 -0.2587
 6806TIP3    H141909   5.696   2.271   1.617  0.7737  1.8771 -1.0802
 6806TIP3    H241910   5.623   2.374   1.701 -0.1121  1.3042 -1.1321
 6807TIP3   OH241911   2.697   1.693   0.310  0.1471 -0.3208 -0.4389
 6807TIP3    H141912   2.650   1.737   0.381  0.3861  2.0359 -1.7109
 6807TIP3    H241913   2.641   1.702   0.234 -0.3685 -3.3411 -0.4924
 6808TIP3   OH241914   4.075   4.259  16.822 -0.0015 -0.2130 -0.2982
 6808TIP3    H141915   3.985   4.228  16.828  0.0845 -0.2982  0.7553
 6808TIP3    H241916   4.075   4.321  16.749 -0.7289 -0.8276 -0.8144
 6809TIP3   OH241917   1.853   0.285  14.492  0.3981  0.0553 -0.0506
 6809TIP3    H141918   1.891   0.237  14.566  0.2404  2.6342  1.7614
 6809TIP3    H241919   1.924   0.289  14.428  1.2520 -0.3051  0.8582
 6810TIP3   OH241920   3.254   1.634  12.100 -0.4946 -0.1418  0.5889
 6810TIP3    H141921   3.213   1.599  12.021 -0.6498 -2.0731  1.4942
 6810TIP3    H241922   3.330   1.681  12.068 -0.4185 -1.0989 -0.7064
 6811TIP3   OH241923   2.384   0.159   3.921 -0.4547  0.1354 -0.1753
 6811TIP3    H141924   2.365   0.082   3.867  0.1568  0.0127 -0.2239
 6811TIP3    H241925   2.349   0.233   3.871 -0.4151 -0.0379 -0.4605
 6812TIP3   OH241926   4.513   6.181   5.182  0.2318  0.0829 -0.0125
 6812TIP3    H141927   4.594   6.230   5.194  0.2554  0.2615 -0.8663
 6812TIP3    H241928   4.532   6.120   5.111 -1.2341  2.0934 -2.2393
 6813TIP3   OH241929   0.379   0.803  13.944 -0.0725 -0.5688 -0.0774
 6813TIP3    H141930   0.451   0.776  13.887 -2.4897 -0.4248 -3.3752
 6813TIP3    H241931   0.398   0.894  13.965  1.1894 -0.8152 -0.1418
 6814TIP3   OH241932   2.546   2.148  15.285 -0.6432  0.6465 -0.2752
 6814TIP3    H141933   2.475   2.200  15.322 -0.2809 -0.3860  1.9210
 6814TIP3    H241934   2.509   2.111  15.205 -2.4611  0.4171  0.6478
 6815TIP3   OH241935   5.290   5.548   1.979  0.2074  0.5919 -0.1410
 6815TIP3    H141936   5.313   5.570   1.888 -0.1566  0.3760 -0.2831
 6815TIP3    H241937   5.357   5.593   2.031 -0.0870  1.4294 -0.4725
 6816TIP3   OH241938   2.080   2.836  10.719 -0.1480  0.4393  0.1127
 6816TIP3    H141939   2.031   2.811  10.641 -0.1057  0.0751  0.1999
 6816TIP3    H241940   2.171   2.822  10.696 -0.2135 -1.1811  0.7414
 6817TIP3   OH241941   0.318   3.932   5.606 -0.4107 -0.4497  0.5018
 6817TIP3    H141942   0.323   3.982   5.687  0.4675  0.7452 -0.2735
 6817TIP3    H241943   0.403   3.888   5.600  0.0777  0.6081 -0.4857
 6818TIP3   OH241944   0.714   5.880   3.527  0.5425 -0.2822 -0.2061
 6818TIP3    H141945   0.754   5.953   3.573 -0.0290  0.8124 -1.4084
 6818TIP3    H241946   0.668   5.830   3.595 -1.0046  1.7705  0.2964
 6819TIP3   OH241947   0.996   3.142   4.388 -0.1437 -0.1682 -0.5915
 6819TIP3    H141948   0.927   3.117   4.449 -0.6774  1.0457 -0.7019
 6819TIP3    H241949   1.059   3.070   4.393 -0.1693 -0.0622  1.4047
 6820TIP3   OH241950   5.905   5.516   1.771  0.0310 -0.4538  0.6352
 6820TIP3    H141951   5.977   5.502   1.832 -1.0171 -2.3374  1.5181
 6820TIP3    H241952   5.826   5.508   1.826 -0.8648  0.5404 -0.4868
 6821TIP3   OH241953   3.976   4.940  11.644 -0.0740  0.7551 -0.0573
 6821TIP3    H141954   3.901   4.883  11.661  0.0132  0.3733 -0.9268
 6821TIP3    H241955   3.938   5.022  11.613 -0.1485  0.7383 -0.0088
 6822TIP3   OH241956   4.940   5.925   0.855  0.4186  0.9706  0.0719
 6822TIP3    H141957   4.961   5.899   0.765  1.8181  0.4590  0.5343
 6822TIP3    H241958   4.854   5.885   0.871 -0.2603  1.8116 -1.3289
 6823TIP3   OH241959   0.047   4.079   6.149  0.2930 -0.5355 -0.1445
 6823TIP3    H141960   0.103   4.082   6.227  0.7691 -1.1860 -0.4578
 6823TIP3    H241961  -0.027   4.024   6.175  1.0538 -1.7589 -0.5329
 6824TIP3   OH241962   1.987   4.093  16.619 -0.0999 -0.2129  0.0203
 6824TIP3    H141963   1.990   4.072  16.526  0.3135  0.1588 -0.0483
 6824TIP3    H241964   2.028   4.178  16.626  1.3608 -0.9629  0.7575
 6825TIP3   OH241965   6.037   2.877  17.020  0.4073  0.3693 -0.3258
 6825TIP3    H141966   5.958   2.867  17.074  1.0883 -2.7571  0.1919
 6825TIP3    H241967   6.107   2.891  17.084  0.7711 -0.3296 -0.5682
 6826TIP3   OH241968   6.724   1.098   0.887 -0.4518 -0.3997  0.6518
 6826TIP3    H141969   6.794   1.040   0.857 -0.3765  0.4713 -0.8676
 6826TIP3    H241970   6.672   1.116   0.809 -0.2345  1.9249  1.0158
 6827TIP3   OH241971   0.967   3.945  17.041  0.2924  0.6669  0.0315
 6827TIP3    H141972   0.959   3.945  16.946  3.3642  3.1068 -0.3202
 6827TIP3    H241973   0.951   3.855  17.067 -1.0445  0.0689 -2.7337
 6828TIP3   OH241974   4.226   2.904   4.052 -0.6705 -0.6995 -0.1388
 6828TIP3    H141975   4.216   2.998   4.068 -3.3801 -1.0321  0.3214
 6828TIP3    H241976   4.140   2.876   4.019 -0.5164 -3.3868  1.6294
 6829TIP3   OH241977   3.337   1.523   1.669  0.7771 -0.0815  0.0401
 6829TIP3    H141978   3.405   1.560   1.614  0.9748  1.8734  1.5382
 6829TIP3    H241979   3.264   1.584   1.661  0.0161 -0.9534  0.2140
 6830TIP3   OH241980   5.033   2.314   0.392  1.0271 -0.1999  0.1046
 6830TIP3    H141981   5.078   2.291   0.474  1.2641  0.4452  0.1574
 6830TIP3    H241982   5.097   2.367   0.344 -0.0324  1.5881  0.6287
 6831TIP3   OH241983   0.705   6.375   3.391 -0.1129  0.0282  0.4394
 6831TIP3    H141984   0.666   6.292   3.418 -0.2964  0.0486  0.2411
 6831TIP3    H241985   0.657   6.399   3.312 -0.6164  0.7420  0.9606
 6832TIP3   OH241986   4.015   5.063  15.321  0.1354 -0.1151  0.2898
 6832TIP3    H141987   4.030   5.152  15.289  0.3364  0.0967  0.9521
 6832TIP3    H241988   4.098   5.038  15.361  0.2496 -0.8114 -0.3727
 6833TIP3   OH241989   0.424   0.539   3.834 -0.1202 -0.2553 -0.6289
 6833TIP3    H141990   0.395   0.551   3.925  2.8622 -0.3533  0.3913
 6833TIP3    H241991   0.371   0.466   3.802 -0.6045 -0.7943  1.3252
 6834TIP3   OH241992   3.192   3.869  17.197  0.0710  0.3400  0.1554
 6834TIP3    H141993   3.118   3.827  17.240  0.8594 -0.9941  0.2328
 6834TIP3    H241994   3.269   3.822  17.230  0.6777 -0.9168 -2.9047
 6835TIP3   OH241995   1.490   4.060  12.668  0.1955  0.1947  0.0049
 6835TIP3    H141996   1.585   4.067  12.666  0.1348  0.6698 -1.7002
 6835TIP3    H241997   1.469   3.991  12.605 -0.4984 -0.9914  1.5148
 6836TIP3   OH241998   2.758   6.150   6.421  0.6659 -0.3016 -0.3635
 6836TIP3    H141999   2.790   6.119   6.336  0.1609  0.5233 -0.8643
 6836TIP3    H242000   2.781   6.243   6.423 -0.2430 -0.0742 -0.0480
 6837TIP3   OH242001   2.989   2.445   0.454 -0.5671 -0.1373  0.5305
 6837TIP3    H142002   3.031   2.369   0.495  0.6124 -0.5465 -1.3923
 6837TIP3    H242003   3.025   2.521   0.500  1.4735 -0.5374 -0.3882
 6838TIP3   OH242004   3.333   6.124   0.461  0.4326 -0.4622  0.0462
 6838TIP3    H142005   3.295   6.142   0.547 -0.5410  0.4740 -0.5727
 6838TIP3    H242006   3.403   6.061   0.479  0.7800  0.3484  1.6336
 6839TIP3   OH242007   2.224   0.422  15.333 -0.3495 -0.4746  0.2931
 6839TIP3    H142008   2.210   0.506  15.289  0.7987  0.2744  1.3292
 6839TIP3    H242009   2.235   0.359  15.261  2.9247  0.9626 -0.5472
 6840TIP3   OH242010   4.882   6.287  14.805  0.2506 -0.1300 -0.2737
 6840TIP3    H142011   4.940   6.268  14.878 -0.5490 -0.1974  0.3469
 6840TIP3    H242012   4.914   6.231  14.734 -0.1227 -1.4632  0.5895
 6841TIP3   OH242013   3.411   5.726   4.855 -0.5848 -0.2712 -0.5715
 6841TIP3    H142014   3.440   5.790   4.790 -0.6796 -0.5587 -0.8971
 6841TIP3    H242015   3.492   5.685   4.886 -0.4920  0.3115 -0.0466
 6842TIP3   OH242016   6.777   6.665   1.618  0.0604  0.5317 -0.2055
 6842TIP3    H142017   6.731   6.731   1.566 -0.1470  1.2199  0.8411
 6842TIP3    H242018   6.744   6.677   1.707  0.8098 -0.2814  0.1893
 6843TIP3   OH242019   4.817   2.483   2.857 -0.0955 -0.3262  0.2453
 6843TIP3    H142020   4.746   2.452   2.802 -0.7699 -0.3284  1.1067
 6843TIP3    H242021   4.887   2.418   2.845 -0.4169 -0.5838 -0.2341
 6844TIP3   OH242022   6.749   4.947   1.747  0.2805 -0.1279  0.4054
 6844TIP3    H142023   6.737   5.003   1.824 -0.8115 -1.9761  1.6248
 6844TIP3    H242024   6.662   4.911   1.729  0.8205 -0.9005 -0.7582
 6845TIP3   OH242025   5.783   4.274  12.154  0.1373  0.2914  0.2291
 6845TIP3    H142026   5.850   4.256  12.088  0.2476  0.4031  0.3111
 6845TIP3    H242027   5.740   4.189  12.167 -0.9653  0.6108 -1.1664
 6846TIP3   OH242028   1.613   6.489   0.787  0.0760  0.0145 -0.0842
 6846TIP3    H142029   1.597   6.531   0.703 -0.8102  0.1183  0.1306
 6846TIP3    H242030   1.541   6.518   0.843 -0.1605 -1.2158  0.2690
 6847TIP3   OH242031   1.691   1.874  13.136 -0.4523 -0.3684  0.4464
 6847TIP3    H142032   1.751   1.804  13.112  1.3998  1.2019  0.4358
 6847TIP3    H242033   1.627   1.876  13.065  0.2170 -1.2175 -0.1851
 6848TIP3   OH242034   1.832   5.407  16.855 -0.1872  0.3939  0.3009
 6848TIP3    H142035   1.776   5.415  16.777  1.0109  0.5442 -0.5498
 6848TIP3    H242036   1.866   5.495  16.870 -0.1572  0.2975  0.8172
 6849TIP3   OH242037   0.936   2.487  12.005 -0.0765  0.3398  0.2443
 6849TIP3    H142038   1.013   2.543  12.014  1.1082 -1.1725 -0.1817
 6849TIP3    H242039   0.917   2.486  11.912  0.9759 -1.2995  0.0126
 6850TIP3   OH242040   6.495   2.963   2.866  0.0274 -0.1789 -0.3579
 6850TIP3    H142041   6.407   2.940   2.836 -0.1162 -1.8580  1.2416
 6850TIP3    H242042   6.491   2.956   2.961  1.7456  0.2851 -0.2329
 6851TIP3   OH242043   4.796   3.305   6.154  0.1111 -0.4266 -0.0188
 6851TIP3    H142044   4.782   3.210   6.153  1.2585 -0.5976 -0.7680
 6851TIP3    H242045   4.767   3.332   6.241  0.2244 -1.5253  0.3773
 6852TIP3   OH242046   5.465   1.574  16.243 -0.2809 -0.6313  0.0900
 6852TIP3    H142047   5.408   1.611  16.175  1.8032  2.5347 -0.0444
 6852TIP3    H242048   5.543   1.545  16.196 -0.5696 -2.3263  0.6287
 6853TIP3   OH242049   4.194   6.030  14.730 -0.0562 -0.4207 -0.2434
 6853TIP3    H142050   4.178   5.993  14.816  0.2525  0.2893  0.1253
 6853TIP3    H242051   4.136   5.982  14.671 -2.8685  1.4774  0.8914
 6854TIP3   OH242052   1.364   1.212  12.711 -0.5355 -0.4870 -0.3930
 6854TIP3    H142053   1.315   1.292  12.688 -0.2917 -0.1253  0.3418
 6854TIP3    H242054   1.374   1.166  12.627 -0.3555  0.4304 -0.8841
 6855TIP3   OH242055   1.677   6.026   3.431 -0.4476 -0.3564 -0.8409
 6855TIP3    H142056   1.704   6.118   3.435 -1.2948 -0.1763  1.2706
 6855TIP3    H242057   1.628   6.018   3.350  0.0683  0.9277 -1.2847
 6856TIP3   OH242058   4.019   5.192  14.624 -0.2495 -0.3696  0.3216
 6856TIP3    H142059   3.935   5.187  14.578 -0.5504  2.0564  0.5596
 6856TIP3    H242060   4.073   5.249  14.570  1.0550 -1.3892  0.5122
 6857TIP3   OH242061   3.681   0.004  12.574 -0.5603 -0.2007  0.0766
 6857TIP3    H142062   3.602   0.055  12.590 -1.4208 -1.6621  0.5806
 6857TIP3    H242063   3.721  -0.007  12.660 -0.1225  0.0492 -0.0948
 6858TIP3   OH242064   3.775   3.492   3.648 -0.1996 -0.0097 -0.6028
 6858TIP3    H142065   3.695   3.530   3.684 -0.3974 -0.5627 -0.4448
 6858TIP3    H242066   3.787   3.537   3.564 -0.8533 -0.1338 -0.7713
 6859TIP3   OH242067   3.849   2.154  12.463  0.1572  0.3812  0.4572
 6859TIP3    H142068   3.859   2.087  12.396 -1.5748 -0.3552  0.9098
 6859TIP3    H242069   3.840   2.236  12.415 -0.7500 -0.0987 -0.1835
 6860TIP3   OH242070   4.860   2.744   4.808  0.5584  0.5806 -0.0953
 6860TIP3    H142071   4.905   2.811   4.757  0.8515 -2.2173 -3.8126
 6860TIP3    H242072   4.928   2.680   4.829 -0.0676  0.4929  1.7387
 6861TIP3   OH242073   4.952   5.991   0.208  0.3783 -0.5142 -0.5292
 6861TIP3    H142074   4.861   5.971   0.229  0.3011 -1.4107 -1.6867
 6861TIP3    H242075   4.964   6.081   0.239 -1.1097 -0.1368 -1.0186
 6862TIP3   OH242076   2.757   5.749  16.297 -0.0805 -0.4108 -0.7676
 6862TIP3    H142077   2.723   5.817  16.240  0.0992  0.4632  0.1487
 6862TIP3    H242078   2.788   5.796  16.374 -3.1936 -1.8345  1.4460
 6863TIP3   OH242079   0.367   2.483   1.471 -0.4867 -0.4699  0.3532
 6863TIP3    H142080   0.418   2.488   1.552  0.1160 -1.6945  0.0550
 6863TIP3    H242081   0.426   2.442   1.408 -1.2085 -0.2025 -0.5039
 6864TIP3   OH242082   6.504   5.738   0.599 -0.0254 -0.1519 -0.9207
 6864TIP3    H142083   6.571   5.691   0.650 -0.0167  0.6455 -0.1806
 6864TIP3    H242084   6.423   5.689   0.616 -0.5459  1.5629  1.9765
 6865TIP3   OH242085   5.473   5.136   3.914  0.1642 -0.2516  0.3043
 6865TIP3    H142086   5.495   5.197   3.843  3.0174 -1.4925  0.0568
 6865TIP3    H242087   5.529   5.060   3.898 -1.9395 -2.1713  1.7160
 6866TIP3   OH242088   0.473   0.619   0.838 -0.7118 -0.0197 -0.2727
 6866TIP3    H142089   0.388   0.662   0.838 -0.7520 -0.0932  0.0313
 6866TIP3    H242090   0.535   0.686   0.808 -0.8182  0.1576 -0.0959
 6867TIP3   OH242091   0.028   6.433  14.772  0.9870  0.4342 -0.4186
 6867TIP3    H142092   0.046   6.381  14.694 -0.5595 -0.6716 -0.0647
 6867TIP3    H242093   0.006   6.520  14.739 -3.1733 -0.9203 -1.5127
 6868TIP3   OH242094   3.578   0.396   3.420  0.4269 -0.6147  0.5123
 6868TIP3    H142095   3.509   0.421   3.359  1.6256  1.6247  0.0043
 6868TIP3    H242096   3.539   0.404   3.507  0.0623  0.7533  0.2342
 6869TIP3   OH242097   2.594   6.160  13.874 -0.1601 -0.5086  0.5240
 6869TIP3    H142098   2.669   6.199  13.919  0.2110 -0.9568  0.2925
 6869TIP3    H242099   2.528   6.230  13.875  1.6624  1.3909 -2.8764
 6870TIP3   OH242100   5.690   1.300  13.689  0.4865 -0.0696 -0.1302
 6870TIP3    H142101   5.663   1.362  13.757 -1.3386  0.0780 -0.9698
 6870TIP3    H242102   5.622   1.232  13.691  1.4735 -1.0787 -0.4842
 6871TIP3   OH242103   0.715   0.571  12.588 -0.5878  0.0608 -0.3023
 6871TIP3    H142104   0.793   0.563  12.535 -1.4738  2.8428 -2.1593
 6871TIP3    H242105   0.644   0.537  12.533 -1.1641  0.8032 -0.0485
 6872TIP3   OH242106   1.968   4.148   3.937  0.2313  0.0382 -0.1699
 6872TIP3    H142107   1.917   4.106   3.867 -0.5580 -0.0129  0.4266
 6872TIP3    H242108   2.024   4.079   3.972  1.0828  0.2114 -1.1562
 6873TIP3   OH242109   0.335   1.025  16.179  0.0406 -0.3089  0.1063
 6873TIP3    H142110   0.278   1.095  16.209  1.6039  2.0085 -2.1886
 6873TIP3    H242111   0.372   0.988  16.259 -1.1774  1.1202  1.3551
 6874TIP3   OH242112   3.094   0.437  12.714 -0.0270  0.0999 -0.5736
 6874TIP3    H142113   3.000   0.432  12.733 -0.0914 -0.0484 -0.9378
 6874TIP3    H242114   3.136   0.402  12.792 -0.2582  0.7019 -0.1727
 6875TIP3   OH242115   2.166   2.696   2.588  0.2265 -0.0407 -0.1578
 6875TIP3    H142116   2.140   2.778   2.630  0.1657 -0.6256  0.9680
 6875TIP3    H242117   2.256   2.711   2.559 -0.4501  1.1022 -1.7578
 6876TIP3   OH242118   4.651   5.243  14.220 -0.1011 -0.3512  0.1794
 6876TIP3    H142119   4.613   5.285  14.143 -1.1618 -0.8083  0.4433
 6876TIP3    H242120   4.738   5.214  14.192 -0.6812 -0.9659 -0.9959
 6877TIP3   OH242121   6.355   4.551  15.249 -0.0757  0.3549 -0.5616
 6877TIP3    H142122   6.271   4.521  15.214  0.9073 -1.2730 -1.5999
 6877TIP3    H242123   6.347   4.541  15.344 -0.7924 -0.5089 -0.7124
 6878TIP3   OH242124   3.148   2.924  16.727 -0.3545  0.1261  0.0111
 6878TIP3    H142125   3.108   2.847  16.686 -1.7116  0.5182  0.5869
 6878TIP3    H242126   3.226   2.889  16.771 -0.6418 -0.8166 -0.2099
 6879TIP3   OH242127   5.863   3.858  16.946 -0.0255 -0.8900 -0.1542
 6879TIP3    H142128   5.925   3.794  16.982 -0.1410 -0.8328  0.1443
 6879TIP3    H242129   5.912   3.940  16.947 -0.6177 -0.5475  1.4944
 6880TIP3   OH242130   2.014   5.852   1.523  0.3702 -0.4944 -0.4162
 6880TIP3    H142131   1.945   5.918   1.529  1.1347  0.3162 -0.4858
 6880TIP3    H242132   2.092   5.901   1.496  1.0538 -1.3470 -0.0014
 6881TIP3   OH242133   3.669   2.503   5.804  0.5584  0.4248 -0.2597
 6881TIP3    H142134   3.643   2.559   5.876 -0.1828 -0.6892  0.3475
 6881TIP3    H242135   3.591   2.497   5.749  0.4492 -0.4945 -0.0064
 6882TIP3   OH242136   6.434   5.954   1.210 -0.4879  0.1006 -0.1586
 6882TIP3    H142137   6.399   6.022   1.153  0.3992 -1.7968 -3.0745
 6882TIP3    H242138   6.527   5.949   1.187  0.0556 -0.2207  1.9921
 6883TIP3   OH242139   5.938   4.702   4.174  0.4345 -0.0612 -0.0768
 6883TIP3    H142140   5.946   4.723   4.081  0.3133  1.9027  0.3536
 6883TIP3    H242141   6.013   4.745   4.215  0.5730 -1.0496  0.7357
 6884TIP3   OH242142   4.461   2.848   3.615 -0.6353 -0.4880  0.0878
 6884TIP3    H142143   4.492   2.913   3.552  0.7457 -0.5290  0.6904
 6884TIP3    H242144   4.370   2.872   3.632  0.0158  1.6633  0.7408
 6885TIP3   OH242145   1.298   0.452  12.729 -0.5483 -0.0407 -0.2993
 6885TIP3    H142146   1.369   0.424  12.786  1.5313 -0.2982 -2.9271
 6885TIP3    H242147   1.218   0.423  12.774  0.9622  0.2542  2.6969
 6886TIP3   OH242148   4.855   5.052  14.354  0.9976 -0.2265  0.1431
 6886TIP3    H142149   4.913   5.127  14.343  1.0208  0.0187  1.7538
 6886TIP3    H242150   4.778   5.088  14.399 -1.0870 -0.2551 -3.2957
 6887TIP3   OH242151   3.105   5.590   2.380 -0.1945 -0.1359 -0.7313
 6887TIP3    H142152   3.200   5.605   2.371 -0.3027 -0.7230 -2.9238
 6887TIP3    H242153   3.067   5.629   2.302 -1.8130  0.2575  0.2379
 6888TIP3   OH242154   1.777   0.724  17.264 -0.3246 -0.6865 -0.1439
 6888TIP3    H142155   1.793   0.645  17.316  0.0837 -0.7249 -0.3211
 6888TIP3    H242156   1.696   0.706  17.216 -0.1581 -1.0482 -0.2854
 6889TIP3   OH242157   2.425   1.239  13.251  0.5071 -0.0928 -0.2979
 6889TIP3    H142158   2.440   1.286  13.169 -0.0601  1.2200  0.3246
 6889TIP3    H242159   2.512   1.214  13.281  0.8272  0.6692 -0.5887
 6890TIP3   OH242160   0.632   0.947  12.984  0.2328  0.0134  0.1279
 6890TIP3    H142161   0.654   1.025  12.932 -0.5248  0.7472  0.8943
 6890TIP3    H242162   0.626   0.876  12.919 -0.8968  0.9622 -0.8298
 6891TIP3   OH242163   0.668   2.692   1.157 -0.0037 -0.2744 -0.0794
 6891TIP3    H142164   0.718   2.641   1.093 -0.5071  0.0387 -0.7279
 6891TIP3    H242165   0.611   2.627   1.198  2.1149 -0.9685  1.8918
 6892TIP3   OH242166   4.581   1.620   0.806  0.3959 -0.2380  0.2398
 6892TIP3    H142167   4.492   1.654   0.795  0.4920 -0.1661 -0.3183
 6892TIP3    H242168   4.631   1.658   0.734  0.9402 -0.0902  0.6905
 6893TIP3   OH242169   6.467   5.157  14.675 -0.2650  0.4548  0.2455
 6893TIP3    H142170   6.424   5.236  14.708  0.0022  1.0380 -0.8039
 6893TIP3    H242171   6.461   5.095  14.748 -2.1086  0.8237  0.4313
 6894TIP3   OH242172   3.485   1.596  13.649  0.3079  0.1527 -0.7056
 6894TIP3    H142173   3.525   1.558  13.728 -1.5057  0.2373  0.2894
 6894TIP3    H242174   3.495   1.690  13.660 -0.0259  0.1685 -0.5157
 6895TIP3   OH242175   6.121   1.865   4.592 -0.0140  0.0208 -0.1248
 6895TIP3    H142176   6.076   1.908   4.520  1.1844 -0.1082 -0.9731
 6895TIP3    H242177   6.098   1.916   4.670 -0.8793  0.4780 -0.6819
 6896TIP3   OH242178   0.029   0.993   4.201  0.2431 -0.3118 -0.0764
 6896TIP3    H142179   0.087   1.059   4.238 -0.2154  0.3724 -0.5530
 6896TIP3    H242180  -0.046   0.991   4.260  0.4109 -0.6406  0.1221
 6897TIP3   OH242181   6.442   1.329   6.594  0.5888  0.4541  0.3883
 6897TIP3    H142182   6.436   1.390   6.667  1.5030  0.0012  0.8489
 6897TIP3    H242183   6.481   1.251   6.631 -2.4886 -1.2257  0.2927
 6898TIP3   OH242184   1.202   1.011  12.577 -0.1094  0.2613  0.1137
 6898TIP3    H142185   1.148   0.993  12.500  0.6635 -2.5852  0.1612
 6898TIP3    H242186   1.287   0.972  12.556  0.3531  0.1517  2.0752
 6899TIP3   OH242187   5.749   3.005  16.413  0.5235  0.6115  0.1149
 6899TIP3    H142188   5.733   3.010  16.507 -0.9347  3.2719 -0.2128
 6899TIP3    H242189   5.723   2.916  16.389  1.1399 -0.1741  2.2494
 6900TIP3   OH242190   3.009   0.652  13.009 -0.2507  0.2819  0.2834
 6900TIP3    H142191   2.920   0.673  12.980 -0.4168 -0.6413  0.1195
 6900TIP3    H242192   2.997   0.597  13.086  0.1326 -1.7266 -1.0366
 6901TIP3   OH242193   2.248   1.393   1.056 -0.2913 -0.3112 -0.4206
 6901TIP3    H142194   2.202   1.312   1.079 -0.2098 -0.2970 -0.2058
 6901TIP3    H242195   2.325   1.364   1.007 -0.0831 -0.3847 -0.0532
 6902TIP3   OH242196   3.186   0.813  13.318  0.5675  0.0055  0.2324
 6902TIP3    H142197   3.210   0.897  13.279  0.4081  0.6438  1.4702
 6902TIP3    H242198   3.159   0.835  13.407 -0.7291 -1.1951  0.1602
 6903TIP3   OH242199   3.764   1.844  15.638 -0.3173 -0.5684 -0.1225
 6903TIP3    H142200   3.758   1.891  15.721 -0.8278 -0.8237 -0.0140
 6903TIP3    H242201   3.675   1.847  15.603  0.2689  1.2479 -1.5954
 6904TIP3   OH242202   4.961   3.779   6.217 -0.7218  0.2242 -0.1623
 6904TIP3    H142203   5.050   3.812   6.208  0.0118 -1.0481  1.8516
 6904TIP3    H242204   4.906   3.857   6.222  0.4371  1.0394 -0.0263
 6905TIP3   OH242205   0.659   3.227  12.264  0.5129 -0.4067 -0.2704
 6905TIP3    H142206   0.718   3.296  12.235  0.4180 -0.2291 -0.0442
 6905TIP3    H242207   0.677   3.154  12.206  1.2196 -0.4818  0.0464
 6906TIP3   OH242208   2.669   2.482   0.267 -0.2025  0.3439 -0.1818
 6906TIP3    H142209   2.746   2.527   0.232  0.8343 -1.0068  0.3235
 6906TIP3    H242210   2.594   2.534   0.237  0.8482  1.0220 -1.6259
 6907TIP3   OH242211   5.543   0.694  12.914 -0.2087  0.4878  0.3876
 6907TIP3    H142212   5.622   0.714  12.864 -0.6510  0.2491 -0.4213
 6907TIP3    H242213   5.474   0.744  12.870 -0.6105  0.2442  0.7378
 6908TIP3   OH242214   5.787   3.331   1.878 -0.2936  0.6466 -0.1190
 6908TIP3    H142215   5.864   3.367   1.922 -1.2990  2.2555  0.3853
 6908TIP3    H242216   5.794   3.236   1.889  1.7364  0.7576 -0.3116
 6909TIP3   OH242217   0.164   0.879   2.411  0.6777 -0.2489 -0.0443
 6909TIP3    H142218   0.075   0.885   2.377  0.2706 -0.7576  0.9155
 6909TIP3    H242219   0.220   0.890   2.334 -0.1946  0.9028 -0.5350
 6910TIP3   OH242220   6.010   3.925   3.248 -0.1292 -0.4465  0.3489
 6910TIP3    H142221   6.088   3.873   3.229 -0.3629 -1.0019  0.8433
 6910TIP3    H242222   5.965   3.933   3.164  1.2247  1.1870 -0.2352
 6911TIP3   OH242223   5.815   5.696  11.214  0.0791  0.5705  0.0831
 6911TIP3    H142224   5.818   5.785  11.178 -0.7862  0.7517  0.4298
 6911TIP3    H242225   5.799   5.709  11.308  1.6960  0.0879  0.4341
 6912TIP3   OH242226   5.813   0.022   0.797 -0.1518 -0.1468 -0.3797
 6912TIP3    H142227   5.732   0.017   0.848  0.8633 -0.3718  1.2476
 6912TIP3    H242228   5.862   0.094   0.835  1.4310 -1.4817  0.1843
 6913TIP3   OH242229   4.293   1.438   3.011 -0.1143 -0.1684 -0.3649
 6913TIP3    H142230   4.250   1.370   2.960 -0.3225 -0.6692  0.4685
 6913TIP3    H242231   4.376   1.399   3.039 -0.7488 -0.5112  1.0928
 6914TIP3   OH242232   3.274   3.215   1.149  0.2912 -0.4542 -0.6685
 6914TIP3    H142233   3.182   3.240   1.155  0.7371  1.1382 -0.2549
 6914TIP3    H242234   3.284   3.146   1.214 -1.0184 -1.9603 -2.0113
 6915TIP3   OH242235   1.486   5.417  15.506 -0.3773  0.1848  0.2184
 6915TIP3    H142236   1.576   5.387  15.517 -0.2101  0.5508 -0.1269
 6915TIP3    H242237   1.494   5.512  15.499 -0.8401  0.2610  0.7017
 6916TIP3   OH242238   2.470   1.339   4.801 -0.3274  0.5724  0.3532
 6916TIP3    H142239   2.544   1.387   4.763  0.7157 -1.0790  0.2325
 6916TIP3    H242240   2.420   1.309   4.725 -0.5314  0.7615  0.4111
 6917TIP3   OH242241   5.089   0.535  12.046 -0.0562  0.0041 -0.0607
 6917TIP3    H142242   5.147   0.602  12.012  0.2757 -0.0639  0.3579
 6917TIP3    H242243   5.148   0.471  12.087 -0.2809 -1.2059 -1.6000
 6918TIP3   OH242244   0.206   3.810   3.933 -0.2390 -0.8619 -0.0620
 6918TIP3    H142245   0.244   3.754   4.001 -0.8533 -1.0390  0.1399
 6918TIP3    H242246   0.282   3.846   3.887  0.1923 -0.4190  0.9725
 6919TIP3   OH242247   3.595   2.799  15.772 -0.5149 -0.0444 -0.2912
 6919TIP3    H142248   3.564   2.779  15.683 -0.0765  0.7914 -0.6371
 6919TIP3    H242249   3.530   2.760  15.829 -1.8118  1.0433 -1.0043
 6920TIP3   OH242250   5.993   2.762   3.234  0.3451  0.0072  0.2604
 6920TIP3    H142251   5.960   2.749   3.323 -0.5068 -0.6238 -0.1462
 6920TIP3    H242252   5.972   2.854   3.214 -2.1289 -0.6543 -0.3742
 6921TIP3   OH242253   2.937   3.416  15.740  0.2527 -0.0433 -0.4114
 6921TIP3    H142254   2.868   3.483  15.738 -0.5738 -0.8744 -0.1922
 6921TIP3    H242255   3.017   3.465  15.761 -0.0928  1.0716 -1.6374
 6922TIP3   OH242256   3.787   2.481   4.757  1.0121  0.7450 -0.6768
 6922TIP3    H142257   3.733   2.512   4.830  0.1879 -0.0613 -0.9283
 6922TIP3    H242258   3.863   2.539   4.757  0.0892  1.9798 -0.3826
 6923TIP3   OH242259   4.986   1.086   0.843 -0.4526  0.1891  0.2076
 6923TIP3    H142260   5.036   1.146   0.898  0.5492  0.5327 -1.0513
 6923TIP3    H242261   4.907   1.135   0.819 -0.4147  0.4035  0.5255
 6924TIP3   OH242262   1.370   3.910  17.076  0.2752  0.2988  0.0475
 6924TIP3    H142263   1.427   3.883  17.004  0.3019 -0.7606  0.4571
 6924TIP3    H242264   1.422   3.895  17.155  0.0015  0.8122  0.3242
 6925TIP3   OH242265   3.538   6.352   0.404 -0.6278  0.1648  0.2127
 6925TIP3    H142266   3.581   6.267   0.407  2.5194  1.5982 -0.8315
 6925TIP3    H242267   3.446   6.335   0.424 -0.3526 -3.6560 -1.4784
 6926TIP3   OH242268   2.923   5.063   3.225  0.5092 -0.3351 -0.2796
 6926TIP3    H142269   2.921   5.013   3.143 -0.1069 -1.3501  0.3395
 6926TIP3    H242270   2.846   5.033   3.274  0.8387  0.2952  0.6502
 6927TIP3   OH242271   5.461   5.941  16.420  0.3173  0.0874 -1.1842
 6927TIP3    H142272   5.378   5.975  16.388 -0.4396 -1.5130 -0.9300
 6927TIP3    H242273   5.440   5.899  16.503  1.2021 -1.1912 -1.5930
 6928TIP3   OH242274   5.025   1.280   2.056 -0.3678 -0.1087 -0.1516
 6928TIP3    H142275   5.058   1.190   2.065  0.7691  0.2784 -0.4420
 6928TIP3    H242276   4.967   1.277   1.980 -0.5383 -0.6501 -0.0059
 6929TIP3   OH242277   0.515   4.660  11.462  0.1828 -0.2733  0.6238
 6929TIP3    H142278   0.563   4.659  11.379 -1.3216 -1.9896 -0.2678
 6929TIP3    H242279   0.574   4.620  11.525  1.2883  0.9122  0.3600
 6930TIP3   OH242280   5.046   4.531   4.645 -0.3215 -0.3706  0.3848
 6930TIP3    H142281   5.020   4.444   4.675 -1.6796  0.5210  1.9022
 6930TIP3    H242282   4.970   4.564   4.598 -0.3939  0.5767  1.1422
 6931TIP3   OH242283   5.863   2.336  14.014  0.6129 -0.2712 -0.3169
 6931TIP3    H142284   5.796   2.285  14.060  0.2132  0.4695 -0.0735
 6931TIP3    H242285   5.943   2.321  14.064  0.3342 -0.0521  0.1995
 6932TIP3   OH242286   4.185   5.608  12.474 -0.1434 -0.0108  0.2294
 6932TIP3    H142287   4.147   5.691  12.504 -3.0386 -1.3750  0.5397
 6932TIP3    H242288   4.250   5.585  12.541  0.9517  2.1493 -0.0479
 6933TIP3   OH242289   1.699   5.845  15.098 -0.2738 -0.0726  0.3190
 6933TIP3    H142290   1.628   5.853  15.162 -0.6314  3.5055 -0.4225
 6933TIP3    H242291   1.776   5.881  15.142  0.6209 -1.9866  0.3657
 6934TIP3   OH242292   1.603   2.996   1.351 -0.0069 -0.2610  0.2575
 6934TIP3    H142293   1.677   2.937   1.367  1.9562  2.3120  1.0540
 6934TIP3    H242294   1.554   2.955   1.281  3.4215 -0.9761 -1.8331
 6935TIP3   OH242295   2.919   0.017   0.439 -0.2079 -0.1762 -0.8759
 6935TIP3    H142296   3.001  -0.029   0.454 -0.4111 -0.4034 -0.4321
 6935TIP3    H242297   2.928   0.099   0.488  0.3497  0.4878 -2.0737
 6936TIP3   OH242298   3.317   0.289   5.851 -0.4271 -0.2533 -0.2862
 6936TIP3    H142299   3.288   0.378   5.869  1.5456  0.1982  0.7818
 6936TIP3    H242300   3.344   0.291   5.759 -1.4639 -0.0390 -0.5830
 6937TIP3   OH242301   3.133   2.890   4.017 -0.0220 -0.4737 -0.3123
 6937TIP3    H142302   3.102   2.972   4.057 -0.5945 -0.7054 -0.2767
 6937TIP3    H242303   3.156   2.835   4.092  0.1019 -0.4442 -0.3298
 6938TIP3   OH242304   2.784   2.010   1.338 -0.0584  0.4151 -0.7084
 6938TIP3    H142305   2.748   2.081   1.391  0.7426  0.8506 -0.7460
 6938TIP3    H242306   2.725   2.005   1.263 -0.0688  1.0979 -0.7512
 6939TIP3   OH242307   0.552   5.594   6.246  0.1727  0.1663  0.4078
 6939TIP3    H142308   0.542   5.544   6.327  0.4029  0.4904  0.6383
 6939TIP3    H242309   0.495   5.670   6.257 -1.4563 -0.8714 -0.6242
 6940TIP3   OH242310   2.403   2.277  16.391  0.4051  0.0305 -0.5225
 6940TIP3    H142311   2.409   2.257  16.298 -2.0484  2.2537 -1.2333
 6940TIP3    H242312   2.428   2.368  16.398  0.5195 -0.1066  0.9898
 6941TIP3   OH242313   0.976   2.634   1.925 -0.0548 -0.7918  0.0799
 6941TIP3    H142314   0.960   2.709   1.869  0.8417 -1.6046 -1.2950
 6941TIP3    H242315   0.938   2.658   2.010  1.9851  2.0289  0.2555
 6942TIP3   OH242316   2.451   4.987  12.932 -0.0914  0.0101 -0.6301
 6942TIP3    H142317   2.453   4.891  12.933  1.5714  0.0396  1.6667
 6942TIP3    H242318   2.542   5.013  12.918 -0.4114  1.2700 -0.4161
 6943TIP3   OH242319   1.353   5.997   6.015  0.0431  0.3811  0.2133
 6943TIP3    H142320   1.439   5.954   6.007 -0.2321  0.0522 -1.1695
 6943TIP3    H242321   1.369   6.088   5.992 -0.4290 -0.2142 -2.7261
 6944TIP3   OH242322   3.327   5.833  13.371 -0.1325 -0.0905  0.2677
 6944TIP3    H142323   3.286   5.875  13.447  0.1699  1.8717 -0.6159
 6944TIP3    H242324   3.364   5.906  13.321  0.3703 -1.4293 -1.3451
 6945TIP3   OH242325   0.195   1.950  14.645  0.4239  0.5293 -0.7205
 6945TIP3    H142326   0.105   1.971  14.669 -0.0099 -2.1930  0.2133
 6945TIP3    H242327   0.187   1.871  14.591  2.1908  0.7783 -1.3714
 6946TIP3   OH242328   1.993   4.056  10.842 -0.2930  0.0811  0.2170
 6946TIP3    H142329   2.074   4.055  10.893 -0.1208  1.9425  0.0243
 6946TIP3    H242330   1.989   3.969  10.802  2.6830  0.5921 -1.4092
 6947TIP3   OH242331   3.380   3.977  11.745 -0.0065  0.7373 -0.0829
 6947TIP3    H142332   3.451   4.018  11.795 -0.7119  1.8205  0.0648
 6947TIP3    H242333   3.301   4.004  11.791 -0.5211 -0.3594 -0.3240
 6948TIP3   OH242334   0.333   2.986  12.136 -0.0458  0.3532 -0.5159
 6948TIP3    H142335   0.294   2.965  12.052  0.1407  3.2164 -1.3684
 6948TIP3    H242336   0.406   2.924  12.145 -0.9456 -0.9072 -1.7765
 6949TIP3   OH242337   2.711   2.045   4.034  0.1577 -0.0149 -0.1772
 6949TIP3    H142338   2.628   2.093   4.029 -1.3017 -2.0550  2.6181
 6949TIP3    H242339   2.743   2.062   4.122  0.2959 -2.9543  0.4155
 6950TIP3   OH242340   3.153   0.977   1.071 -0.0136 -0.4333 -0.1600
 6950TIP3    H142341   3.207   1.045   1.031  2.1297 -1.9553  0.1232
 6950TIP3    H242342   3.214   0.923   1.121 -2.0375 -1.1480  1.6262
 6951TIP3   OH242343   3.007   3.880   2.754 -0.1664  0.8721  0.6360
 6951TIP3    H142344   2.991   3.862   2.661  2.1398  0.8433  0.2229
 6951TIP3    H242345   3.038   3.797   2.790 -1.7596  0.6891  1.6112
 6952TIP3   OH242346   3.774   3.977   4.324 -0.2557  0.7380 -0.5791
 6952TIP3    H142347   3.723   3.898   4.341 -0.8087  1.0839 -0.6358
 6952TIP3    H242348   3.828   3.954   4.248  1.5479 -0.4922  1.0216
 6953TIP3   OH242349   4.714   5.600  15.003  0.5479 -0.9274  0.5169
 6953TIP3    H142350   4.791   5.556  15.037 -0.4596 -0.9675  2.8244
 6953TIP3    H242351   4.698   5.671  15.065 -1.5695 -1.2440  0.3590
 6954TIP3   OH242352   0.980   4.692   2.880  0.7322  0.1795 -0.2925
 6954TIP3    H142353   0.947   4.700   2.969  2.7529 -0.3007  0.5450
 6954TIP3    H242354   0.996   4.598   2.868  2.9169  0.5149 -0.2043
 6955TIP3   OH242355   2.813   4.427   1.802  0.0264  0.0139  0.1464
 6955TIP3    H142356   2.835   4.337   1.826  0.8515  0.1386 -0.1380
 6955TIP3    H242357   2.726   4.441   1.839 -0.8839 -1.5114 -1.3376
 6956TIP3   OH242358   6.331   5.707  12.445 -0.0669  0.3472  0.0019
 6956TIP3    H142359   6.271   5.678  12.514  0.8715  1.3965  1.2918
 6956TIP3    H242360   6.285   5.779  12.402  1.6472  3.6073  3.3514
 6957TIP3   OH242361   2.972   1.308   0.515 -0.0436 -0.1432 -0.3534
 6957TIP3    H142362   3.036   1.239   0.497 -0.2773 -1.2321  2.7003
 6957TIP3    H242363   3.024   1.385   0.537  0.2271 -0.6411  0.7641
 6958TIP3   OH242364   4.941   6.058   2.120  0.6934  0.1355 -0.0413
 6958TIP3    H142365   4.893   6.136   2.092 -1.7660 -1.6974 -1.0648
 6958TIP3    H242366   5.005   6.043   2.050 -0.0322  0.2170 -0.7326
 6959TIP3   OH242367   4.926   1.093   5.551  0.3502  0.6237 -0.0256
 6959TIP3    H142368   4.877   1.043   5.485  0.4111 -0.1752  0.5196
 6959TIP3    H242369   4.912   1.044   5.632  0.0436  1.7596  0.6041
 6960TIP3   OH242370   5.613   4.917   1.514  0.0093 -0.7729  0.1423
 6960TIP3    H142371   5.593   4.987   1.576 -0.7824 -0.0711 -0.8849
 6960TIP3    H242372   5.577   4.838   1.554 -1.7997 -0.0862 -0.0916
 6961TIP3   OH242373   3.590   0.350   4.204  0.3100 -0.2189  0.5307
 6961TIP3    H142374   3.504   0.364   4.164  0.5684  1.5621  0.5355
 6961TIP3    H242375   3.619   0.438   4.228  2.6322 -0.6769 -0.4985
 6962TIP3   OH242376   5.231   2.693   4.278 -0.1695 -0.3933  0.4307
 6962TIP3    H142377   5.318   2.707   4.315 -0.0427  4.5196 -1.3780
 6962TIP3    H242378   5.209   2.603   4.302  4.4086 -1.0027  2.8989
 6963TIP3   OH242379   0.381   0.675   5.775  0.7105  0.2830  0.9224
 6963TIP3    H142380   0.469   0.677   5.811  1.5156  0.2540 -0.9926
 6963TIP3    H242381   0.341   0.757   5.805  1.3554  0.2584  1.8652
 6964TIP3   OH242382   2.395   1.080   3.684 -0.2820 -0.0949  0.5376
 6964TIP3    H142383   2.385   1.074   3.589 -0.1470 -0.7468  0.5653
 6964TIP3    H242384   2.334   1.014   3.718  0.5762 -0.7162  0.8630
 6965TIP3   OH242385   0.587   1.983  13.967  0.2009 -0.4413  0.3667
 6965TIP3    H142386   0.661   1.922  13.972 -0.1363 -0.8654  0.1725
 6965TIP3    H242387   0.627   2.069  13.981  1.5168 -0.1382 -4.4944
 6966TIP3   OH242388   3.218   6.556  13.464  0.7123  0.4687 -0.7185
 6966TIP3    H142389   3.192   6.629  13.520 -0.2170 -0.5895  0.2562
 6966TIP3    H242390   3.304   6.530  13.496 -0.6592 -1.4458  1.6220
 6967TIP3   OH242391   0.826   6.079   5.504 -0.3259 -0.3722  0.1329
 6967TIP3    H142392   0.804   6.054   5.415  0.1670  0.0751 -0.1177
 6967TIP3    H242393   0.748   6.057   5.555 -0.6929 -0.4227 -0.4464
 6968TIP3   OH242394   4.710   3.491   4.927  0.1558 -0.0098  0.2114
 6968TIP3    H142395   4.738   3.450   5.009  2.8907 -1.5021 -1.3948
 6968TIP3    H242396   4.649   3.428   4.888  1.6676 -1.0126 -0.5907
 6969TIP3   OH242397   1.064   1.642  15.092  0.1309  0.6922 -0.4917
 6969TIP3    H142398   1.145   1.634  15.043  0.4056  0.1540  0.0412
 6969TIP3    H242399   1.011   1.704  15.042 -0.7696 -2.0276 -3.0375
 6970TIP3   OH242400   6.642   4.605   0.643 -0.0470  0.1769  0.4640
 6970TIP3    H142401   6.681   4.690   0.663  0.1261  0.1681  0.1746
 6970TIP3    H242402   6.559   4.604   0.692  0.2373  0.2631  0.9445
 6971TIP3   OH242403   6.758   2.639   3.817  0.1718 -0.0248 -0.4345
 6971TIP3    H142404   6.803   2.595   3.745  0.1628 -0.7195 -0.0237
 6971TIP3    H242405   6.806   2.611   3.896 -0.1514  0.2908 -0.1229
 6972TIP3   OH242406   3.746   6.042  11.929  0.0625 -0.6619 -0.2556
 6972TIP3    H142407   3.656   6.033  11.897  0.1348 -1.4158 -0.2648
 6972TIP3    H242408   3.747   5.994  12.012  0.5040 -0.8064 -0.3444
 6973TIP3   OH242409   1.094   4.764   6.802  0.8635  0.8019  0.1081
 6973TIP3    H142410   1.054   4.677   6.800  3.1217 -0.2410 -0.6468
 6973TIP3    H242411   1.047   4.813   6.734  0.6459 -0.2939 -0.5364
 6974TIP3   OH242412   0.026   0.264  17.047  0.1136 -0.8249 -0.4236
 6974TIP3    H142413   0.084   0.339  17.052  1.3463 -1.7902  0.0865
 6974TIP3    H242414  -0.027   0.268  17.126 -0.1904 -0.2137 -0.6548
 6975TIP3   OH242415   3.461   3.311  17.292  0.1324 -0.1351  0.0020
 6975TIP3    H142416   3.483   3.237  17.348 -1.1203 -0.1984  0.4409
 6975TIP3    H242417   3.434   3.271  17.209  1.0542 -0.0875 -0.3239
 6976TIP3   OH242418   6.216   4.747  16.237 -0.0380  0.1827 -0.0738
 6976TIP3    H142419   6.122   4.731  16.236 -0.0465  0.2700 -1.4039
 6976TIP3    H242420   6.225   4.841  16.252 -0.1469  0.0800  0.6403
 6977TIP3   OH242421   6.193   3.190   2.896  0.2976  0.1492 -0.1494
 6977TIP3    H142422   6.210   3.105   2.853 -3.1190  0.2597 -1.8964
 6977TIP3    H242423   6.153   3.167   2.980 -0.1020  0.0287 -0.3733
 6978TIP3   OH242424   3.424   3.534  15.046  0.1998 -0.5118  0.0050
 6978TIP3    H142425   3.397   3.473  14.978  2.0957  0.2747 -1.5147
 6978TIP3    H242426   3.350   3.593  15.056  0.2331 -0.0723 -2.0680
 6979TIP3   OH242427   0.397   0.206   5.393  0.8163  0.0042 -0.4569
 6979TIP3    H142428   0.393   0.192   5.298  0.9276  0.7803 -0.5743
 6979TIP3    H242429   0.363   0.124   5.430  0.6796 -0.2668 -1.1660
 6980TIP3   OH242430   1.727   3.029  16.649  0.2314 -0.3809 -0.2977
 6980TIP3    H142431   1.632   3.032  16.641  0.0758  0.6530  1.6011
 6980TIP3    H242432   1.760   3.063  16.566 -1.0921  0.2574 -0.5682
 6981TIP3   OH242433   2.170   5.500   0.365  0.1911  0.2748  0.3390
 6981TIP3    H142434   2.248   5.464   0.407 -0.6100  0.6080  2.1319
 6981TIP3    H242435   2.097   5.472   0.420 -0.6873  2.4203  0.3331
 6982TIP3   OH242436   0.028   4.043  13.874  0.2592 -0.1751 -0.3158
 6982TIP3    H142437   0.055   4.111  13.811  0.4384 -0.7100 -0.8260
 6982TIP3    H242438   0.010   4.091  13.954  1.5076  0.3606 -0.3318
 6983TIP3   OH242439   4.723   1.844   6.015  0.3321  0.3339  0.4490
 6983TIP3    H142440   4.764   1.762   6.045 -1.0991 -0.4264  0.4104
 6983TIP3    H242441   4.708   1.893   6.096  0.2779  0.1102  0.5777
 6984TIP3   OH242442   2.873   5.131   4.926  0.5343  0.8143  0.3605
 6984TIP3    H142443   2.809   5.107   4.992  0.4583  1.7445  0.6351
 6984TIP3    H242444   2.896   5.222   4.946  3.0600  0.0459  1.1979
 6985TIP3   OH242445   4.573   3.496   5.292  0.8446 -0.6008  0.3461
 6985TIP3    H142446   4.597   3.589   5.295  1.3450 -0.6658 -1.4429
 6985TIP3    H242447   4.656   3.449   5.294  0.5912 -1.0283  1.2604
 6986TIP3   OH242448   0.560   3.380   4.008 -0.4043  0.1439  0.2133
 6986TIP3    H142449   0.654   3.368   3.991 -0.3828 -1.0063  1.0301
 6986TIP3    H242450   0.534   3.454   3.953  0.7753 -0.1325 -0.7246
 6987TIP3   OH242451   3.357   1.026   2.175 -0.7503  0.1672 -0.4271
 6987TIP3    H142452   3.339   0.937   2.145 -0.6024  0.6063 -1.8405
 6987TIP3    H242453   3.452   1.036   2.166 -0.6130  0.0615  0.8689
 6988TIP3   OH242454   2.119   5.109   4.266  0.1780  0.4042 -0.3473
 6988TIP3    H142455   2.168   5.084   4.344 -0.1886 -3.3607 -1.2582
 6988TIP3    H242456   2.180   5.098   4.193 -0.5476  0.4871 -0.9822
 6989TIP3   OH242457   6.647   0.956   5.160 -0.2923 -0.3960  0.2294
 6989TIP3    H142458   6.723   0.933   5.213 -0.5585  1.3596  1.4240
 6989TIP3    H242459   6.573   0.919   5.207 -0.4241  0.1831  0.4781
 6990TIP3   OH242460   0.826   3.112  13.544 -0.3208 -0.5984  0.1615
 6990TIP3    H142461   0.819   3.167  13.466  0.8457 -0.4055  0.1878
 6990TIP3    H242462   0.771   3.036  13.524 -1.2188  0.1555 -0.2390
 6991TIP3   OH242463   4.242   4.983  16.219 -0.4115 -0.0681  0.2051
 6991TIP3    H142464   4.200   4.911  16.173 -1.7258 -0.7264  2.3928
 6991TIP3    H242465   4.193   5.061  16.193  0.5241 -0.0241 -1.5416
 6992TIP3   OH242466   3.565   4.871   5.978 -0.0503  0.0276 -0.4637
 6992TIP3    H142467   3.582   4.966   5.979  1.1996 -0.1911 -0.7513
 6992TIP3    H242468   3.636   4.833   6.028 -0.1832 -0.8262 -0.9081
 6993TIP3   OH242469   0.706   2.563  16.228  0.0281 -0.6742  0.2370
 6993TIP3    H142470   0.795   2.539  16.203 -0.0928  0.2727 -1.1834
 6993TIP3    H242471   0.707   2.659  16.230 -1.0394 -0.6505 -0.0524
 6994TIP3   OH242472   4.986   3.347   1.484 -0.4809 -0.0963  0.4144
 6994TIP3    H142473   4.898   3.353   1.520 -0.4569  0.1211  0.4347
 6994TIP3    H242474   5.026   3.274   1.532 -1.5555 -2.0281 -1.5250
 6995TIP3   OH242475   5.344   6.318  14.952  0.3898  0.3404  0.2912
 6995TIP3    H142476   5.260   6.332  14.993  0.8071  1.1951  0.8512
 6995TIP3    H242477   5.326   6.256  14.880 -0.7296  0.6737  0.2880
 6996TIP3   OH242478   1.342   4.509   0.699  0.6328  0.3578  0.1506
 6996TIP3    H142479   1.335   4.437   0.636  1.8818  1.6318 -1.5065
 6996TIP3    H242480   1.370   4.468   0.780  0.2450 -1.1616 -0.4721
 6997TIP3   OH242481   4.557   4.169  10.555 -0.0778 -0.3123  0.6162
 6997TIP3    H142482   4.574   4.257  10.522  0.6493  0.0275  1.8227
 6997TIP3    H242483   4.636   4.148  10.606 -0.7896 -1.1423  1.3861
 6998TIP3   OH242484   2.812   4.127   4.060 -0.3227  0.3102  0.0989
 6998TIP3    H142485   2.726   4.159   4.032 -0.9575 -1.1107  0.3885
 6998TIP3    H242486   2.843   4.194   4.121 -1.0894  0.9846 -0.2262
 6999TIP3   OH242487   6.150   4.222  13.048 -0.3712  0.6158 -0.4889
 6999TIP3    H142488   6.154   4.127  13.057  0.5109  0.6426 -0.5719
 6999TIP3    H242489   6.135   4.237  12.955  1.9267  0.6085 -0.8819
 7000TIP3   OH242490   2.774   5.223  16.285 -0.4699 -0.2101 -0.1376
 7000TIP3    H142491   2.827   5.297  16.255  0.3895 -1.3675 -1.5731
 7000TIP3    H242492   2.736   5.252  16.367  0.8529  1.3701 -0.0611
 7001TIP3   OH242493   5.472   0.043  12.525 -0.1116  0.0317 -0.2204
 7001TIP3    H142494   5.509  -0.045  12.519  0.3337  0.2206 -0.2749
 7001TIP3    H242495   5.413   0.039  12.600 -1.0446 -0.6613 -0.9837
 7002TIP3   OH242496   4.865   6.380   1.188 -0.2550 -0.7626  0.0984
 7002TIP3    H142497   4.788   6.402   1.241  0.2280 -0.0387  0.5184
 7002TIP3    H242498   4.840   6.403   1.099  0.5894  2.5833  0.6469
 7003TIP3   OH242499   5.268   0.856   1.031  0.6641  0.4417  0.0485
 7003TIP3    H142500   5.299   0.765   1.023  0.2180  0.1849  1.2140
 7003TIP3    H242501   5.173   0.848   1.039  0.4748  1.1115 -1.3840
 7004TIP3   OH242502   2.977   1.044  14.331 -0.1376  0.1887  0.0348
 7004TIP3    H142503   2.994   1.069  14.422  1.2251  1.1126 -0.4693
 7004TIP3    H242504   3.041   1.093  14.280 -1.3329  0.1831 -1.4888
 7005TIP3   OH242505   3.713   3.888  16.900 -0.0184  0.0016  0.1213
 7005TIP3    H142506   3.778   3.957  16.892  0.1539 -0.0947  0.6249
 7005TIP3    H242507   3.727   3.832  16.824 -0.1551  0.5152 -0.2862
 7006TIP3   OH242508   6.678   3.270  14.894  0.1950 -0.1481 -0.0595
 7006TIP3    H142509   6.591   3.282  14.857 -0.1853 -0.1433  0.8053
 7006TIP3    H242510   6.734   3.250  14.819 -0.8367 -1.6360 -0.4684
 7007TIP3   OH242511   2.520   0.964   1.064 -0.0485 -0.4284  0.0720
 7007TIP3    H142512   2.586   0.951   0.997 -0.5772  2.0880 -1.0005
 7007TIP3    H242513   2.437   0.958   1.017 -0.4356  0.7703  0.5871
 7008TIP3   OH242514   5.619   0.767   3.428  0.8453  0.0708 -0.3862
 7008TIP3    H142515   5.598   0.701   3.361 -0.0853 -0.6741  0.6293
 7008TIP3    H242516   5.715   0.772   3.426  1.0623 -2.6129  0.7338
 7009TIP3   OH242517   4.878   2.518   6.125 -0.1421  0.4107 -0.7350
 7009TIP3    H142518   4.809   2.463   6.088 -0.1953 -0.7338  1.0198
 7009TIP3    H242519   4.833   2.572   6.190  0.4592  0.2230 -0.1557
 7010TIP3   OH242520   5.330   2.221  11.654 -0.0468 -0.5894 -0.0748
 7010TIP3    H142521   5.251   2.208  11.706  0.2922  0.0018  0.6009
 7010TIP3    H242522   5.325   2.155  11.585 -1.4309 -0.1691 -0.3901
 7011TIP3   OH242523   0.065   3.330  10.853 -0.3145  0.0090  0.4893
 7011TIP3    H142524   0.007   3.354  10.781 -0.9008  0.2601  1.0353
 7011TIP3    H242525   0.127   3.402  10.859  0.4114 -0.5274 -0.4630
 7012TIP3   OH242526   5.209   2.317  13.535 -0.2400 -0.1818  0.2565
 7012TIP3    H142527   5.301   2.301  13.517 -0.0655 -1.5051  2.1640
 7012TIP3    H242528   5.166   2.311  13.450  1.4415  0.6407 -0.6662
 7013TIP3   OH242529   5.535   4.723  13.921 -0.2074 -0.1085  0.3181
 7013TIP3    H142530   5.561   4.635  13.948 -1.6400 -0.7098 -0.2364
 7013TIP3    H242531   5.530   4.773  14.003 -0.5814 -0.8625  0.7530
 7014TIP3   OH242532   3.424   5.306   3.920 -0.3617 -0.7111  0.1052
 7014TIP3    H142533   3.348   5.301   3.862 -0.5287 -0.3882  0.2962
 7014TIP3    H242534   3.407   5.240   3.987  0.5818 -2.1996 -1.0949
 7015TIP3   OH242535   0.982   2.034   2.364 -0.3052 -0.4374  0.3813
 7015TIP3    H142536   0.905   2.090   2.351 -0.9103 -1.0655  1.2052
 7015TIP3    H242537   0.981   2.015   2.458  0.7169 -0.6535  0.3495
 7016TIP3   OH242538   1.333   1.545   3.220 -0.2286  0.2075 -0.1888
 7016TIP3    H142539   1.325   1.589   3.305  1.3279 -0.0822  0.1231
 7016TIP3    H242540   1.382   1.606   3.166  0.0631 -0.2353 -0.4218
 7017TIP3   OH242541   2.690   5.598  16.818  0.2028 -0.5681 -0.4353
 7017TIP3    H142542   2.685   5.577  16.725 -0.4564  1.4383 -0.8664
 7017TIP3    H242543   2.626   5.668  16.831 -1.5198 -2.5021  2.0203
 7018TIP3   OH242544   2.748   5.197   0.148  0.0782 -0.3146 -0.1738
 7018TIP3    H142545   2.732   5.141   0.072  0.4324 -1.5948  0.6686
 7018TIP3    H242546   2.811   5.262   0.118  0.7457 -1.2314 -0.7809
 7019TIP3   OH242547   6.722   1.819  12.750 -0.1248  0.1164  0.2003
 7019TIP3    H142548   6.760   1.742  12.791 -2.5078 -0.7063  0.9470
 7019TIP3    H242549   6.658   1.785  12.688 -0.4506  1.4623 -0.2327
 7020TIP3   OH242550   5.946   2.571  11.453 -0.6235 -0.6152 -0.2394
 7020TIP3    H142551   5.998   2.642  11.491 -0.6649 -0.9883  0.5297
 7020TIP3    H242552   5.980   2.561  11.364 -0.7327  0.4765 -0.4183
 7021TIP3   OH242553   2.186   3.943  11.835  0.1610 -0.1497 -0.1129
 7021TIP3    H142554   2.222   4.015  11.783  1.8617 -0.3285  0.7545
 7021TIP3    H242555   2.092   3.955  11.831  0.3920  1.6246 -0.7095
 7022TIP3   OH242556   0.502   2.050  15.651 -0.3047 -0.0265  0.7939
 7022TIP3    H142557   0.575   2.007  15.606 -0.2835  0.2646  0.5417
 7022TIP3    H242558   0.544   2.109  15.714 -0.2989  0.8335  0.0002
 7023TIP3   OH242559   4.073   3.726   2.638 -0.1938  0.2234  0.5084
 7023TIP3    H142560   3.987   3.725   2.598  0.5751  1.2750 -1.2407
 7023TIP3    H242561   4.110   3.811   2.613  2.2549 -1.1528 -0.7892
 7024TIP3   OH242562   0.687   6.573   1.517 -0.0027  0.4345 -0.4622
 7024TIP3    H142563   0.682   6.583   1.422  1.4010  0.5696 -0.5287
 7024TIP3    H242564   0.712   6.659   1.549  1.5572 -0.1105 -0.1530
 7025TIP3   OH242565   4.863   3.541  11.875  0.6194 -0.3726 -0.1742
 7025TIP3    H142566   4.929   3.587  11.824 -2.0588  2.9499 -0.8686
 7025TIP3    H242567   4.809   3.497  11.810  1.4508 -2.1472  0.3118
 7026TIP3   OH242568   5.342   3.519   1.283  0.1470 -0.0482 -0.0956
 7026TIP3    H142569   5.386   3.478   1.357  0.2122 -1.5317 -0.9269
 7026TIP3    H242570   5.383   3.480   1.206 -2.6867 -1.6177 -0.9025
 7027TIP3   OH242571   6.046   0.082   4.527  0.3298  0.2757  0.1458
 7027TIP3    H142572   6.068   0.063   4.436  2.4238  0.7895  0.5159
 7027TIP3    H242573   5.986   0.157   4.522  0.4901  0.3435 -0.7986
 7028TIP3   OH242574   5.734   4.048   2.436 -0.4316  0.8313  0.4832
 7028TIP3    H142575   5.816   4.096   2.428  0.6254 -1.2680 -2.0738
 7028TIP3    H242576   5.741   4.002   2.519  1.5388 -0.2970 -0.2823
 7029TIP3   OH242577   4.368   0.810  16.983 -0.1363 -0.1860 -0.1918
 7029TIP3    H142578   4.424   0.733  16.978 -0.5024 -0.4935  0.3609
 7029TIP3    H242579   4.298   0.785  17.043 -0.5641  0.3844 -0.4451
 7030TIP3   OH242580   0.389   4.338  13.210  0.4181 -0.2542 -0.0481
 7030TIP3    H142581   0.412   4.356  13.301  0.4398 -0.2465 -0.0552
 7030TIP3    H242582   0.415   4.416  13.162  0.5049 -0.3008 -0.0775
 7031TIP3   OH242583   0.998   4.418   2.840  0.5645 -0.7334  0.2565
 7031TIP3    H142584   0.920   4.428   2.784  0.9507  1.1553  0.0238
 7031TIP3    H242585   1.071   4.415   2.778  1.0893  2.4140  0.6569
 7032TIP3   OH242586   6.173   5.864  14.111 -0.4445 -0.5409 -0.3497
 7032TIP3    H142587   6.251   5.838  14.160 -0.6029 -1.3575 -0.5155
 7032TIP3    H242588   6.112   5.896  14.177  0.3050  0.8017 -0.3014
 7033TIP3   OH242589   2.728   3.695  16.540 -0.4989  0.1063  0.3279
 7033TIP3    H142590   2.822   3.712  16.534 -0.4882 -0.4892 -1.5223
 7033TIP3    H242591   2.691   3.738  16.462 -1.3144 -2.5439 -0.8056
 7034TIP3   OH242592   4.737   4.495   5.295 -0.0446  0.0381  0.2945
 7034TIP3    H142593   4.697   4.572   5.255  0.9190  0.4759  0.1568
 7034TIP3    H242594   4.755   4.522   5.385 -0.7268 -0.4054  0.5691
 7035TIP3   OH242595   3.503   5.682   5.344 -0.4939  0.1163 -0.4810
 7035TIP3    H142596   3.544   5.600   5.316  0.1818  0.1120  0.5203
 7035TIP3    H242597   3.550   5.750   5.296  0.9808  0.1436  0.9586
 7036TIP3   OH242598   5.570   0.077   5.311 -0.4003 -0.3610 -0.4859
 7036TIP3    H142599   5.588  -0.007   5.268  0.1931 -0.5846  0.1943
 7036TIP3    H242600   5.635   0.137   5.277 -1.1819 -0.0195 -1.4074
 7037TIP3   OH242601   2.777   1.824  15.506 -0.5272  0.0945 -0.1810
 7037TIP3    H142602   2.682   1.824  15.507 -0.5233  0.8164  0.8583
 7037TIP3    H242603   2.801   1.902  15.456 -0.4904  1.5816  2.0816
 7038TIP3   OH242604   0.208   1.673  13.611  0.7148 -0.1375 -0.0510
 7038TIP3    H142605   0.133   1.731  13.605  0.0468 -0.9409  0.3947
 7038TIP3    H242606   0.256   1.687  13.529 -0.7071 -0.6843 -0.9930
 7039TIP3   OH242607   4.307   4.916  12.739  0.1584  0.7373 -0.0617
 7039TIP3    H142608   4.241   4.980  12.766 -0.5675 -0.9427  2.3707
 7039TIP3    H242609   4.376   4.924  12.805  0.7517  0.0715 -0.5958
 7040TIP3   OH242610   4.904   6.625   5.498  0.1263 -0.0486 -0.0336
 7040TIP3    H142611   4.879   6.587   5.414  0.2047  0.0384 -0.0956
 7040TIP3    H242612   4.926   6.549   5.553 -0.4534 -0.1374  0.0781
 7041TIP3   OH242613   6.128   3.332  17.037 -0.1243  0.4506  0.0250
 7041TIP3    H142614   6.101   3.285  17.116 -0.7146  0.0049 -0.4367
 7041TIP3    H242615   6.094   3.420  17.049 -0.9807  0.1530 -0.1067
 7042TIP3   OH242616   0.878   4.115  15.984 -0.1447  0.1565 -0.2493
 7042TIP3    H142617   0.867   4.194  15.930  1.0199 -0.9591 -2.1749
 7042TIP3    H242618   0.972   4.106  15.993 -0.2777 -1.0422 -0.0913
 7043TIP3   OH242619   3.376   2.299  13.984 -0.8914  0.3309  0.2059
 7043TIP3    H142620   3.386   2.220  13.931 -0.2147 -0.0148  0.8500
 7043TIP3    H242621   3.293   2.337  13.954 -0.8228 -0.1900 -0.6642
 7044TIP3   OH242622   4.086   0.502   2.347  0.5964 -0.1087  0.1229
 7044TIP3    H142623   4.176   0.513   2.378 -0.3086 -0.7314  3.1799
 7044TIP3    H242624   4.080   0.409   2.323  0.9870  0.1099 -0.8168
 7045TIP3   OH242625   1.840   3.557  16.582  0.9514  0.4876 -0.1920
 7045TIP3    H142626   1.925   3.512  16.578  0.2160 -0.8623 -0.9384
 7045TIP3    H242627   1.823   3.582  16.492  0.4728  0.6157 -0.0653
 7046TIP3   OH242628   2.647   4.712   2.478 -0.0639 -0.0555  0.3420
 7046TIP3    H142629   2.734   4.708   2.438 -0.4339 -3.2909 -0.2833
 7046TIP3    H242630   2.594   4.761   2.415  0.0995 -2.4626 -1.7481
 7047TIP3   OH242631   4.699   0.153   4.445 -0.2317 -0.0021 -0.4407
 7047TIP3    H142632   4.652   0.212   4.504 -0.6485 -0.6752 -0.0966
 7047TIP3    H242633   4.631   0.096   4.410  0.2777 -0.7748 -0.1800
 7048TIP3   OH242634   0.865   2.701  13.094  0.0009 -0.1702 -0.2236
 7048TIP3    H142635   0.885   2.697  13.188 -0.1677  0.8137 -0.1394
 7048TIP3    H242636   0.836   2.791  13.080  0.6214 -0.1405 -1.3436
 7049TIP3   OH242637   3.221   1.231   4.865  0.9614  0.3976  0.1924
 7049TIP3    H142638   3.133   1.266   4.876  0.7951 -0.2879  1.0579
 7049TIP3    H242639   3.279   1.304   4.887  0.6142  0.3579  1.2440
 7050TIP3   OH242640   4.008   6.649   0.039  0.0987  0.3536 -0.0274
 7050TIP3    H142641   3.991   6.669   0.130  0.5174  0.9128 -0.0711
 7050TIP3    H242642   4.058   6.567   0.041 -3.2701 -1.7889  0.0639
 7051TIP3   OH242643   0.310   3.799   4.385  0.2307 -0.8111  0.1911
 7051TIP3    H142644   0.379   3.847   4.433  2.1323 -2.4823 -0.7981
 7051TIP3    H242645   0.278   3.735   4.448  0.9102 -1.2675  0.0856
 7052TIP3   OH242646   0.038   0.886  12.138  0.3507 -0.0988  0.1698
 7052TIP3    H142647  -0.056   0.872  12.153  0.1052  0.1924 -1.0263
 7052TIP3    H242648   0.051   0.863  12.046  1.7193 -1.4680  0.6770
 7053TIP3   OH242649   5.005   4.879  10.657 -0.1213 -0.4338  0.4420
 7053TIP3    H142650   4.931   4.839  10.611  0.3648 -1.9518  0.9630
 7053TIP3    H242651   5.044   4.807  10.706  2.8200 -0.0672 -1.2449
 7054TIP3   OH242652   2.914   1.388  14.096  0.0693 -0.1142  0.3653
 7054TIP3    H142653   2.852   1.342  14.153 -1.4348  1.5603  0.1278
 7054TIP3    H242654   2.860   1.451  14.048  2.1358  2.1242  0.8947
 7055TIP3   OH242655   1.388   5.132   2.009  0.2129  0.5864  0.1998
 7055TIP3    H142656   1.366   5.050   2.053  1.7133  0.3662  0.5716
 7055TIP3    H242657   1.309   5.185   2.016 -1.1257 -1.1827 -0.9114
 7056TIP3   OH242658   6.763   5.991   1.349  0.0602 -0.4289 -0.0259
 7056TIP3    H142659   6.784   5.905   1.312 -1.5786  0.0617 -2.2240
 7056TIP3    H242660   6.839   6.045   1.326  0.4849 -0.9422  0.1481
 7057TIP3   OH242661   1.499   3.414   2.587  0.3507  0.3723  0.8830
 7057TIP3    H142662   1.504   3.329   2.543  0.8472  1.1555 -0.5995
 7057TIP3    H242663   1.455   3.395   2.670 -1.0741 -1.0462 -0.1629
 7058TIP3   OH242664   6.117   0.730   0.464  0.0790 -0.2841  0.0664
 7058TIP3    H142665   6.107   0.777   0.547 -1.0339  1.2843 -0.9401
 7058TIP3    H242666   6.029   0.696   0.446  0.3210 -0.6176 -0.4776
 7059TIP3   OH242667   1.959   1.621  16.067  0.5382 -0.2798  0.2723
 7059TIP3    H142668   2.050   1.631  16.040  1.1556 -0.9470  2.0747
 7059TIP3    H242669   1.942   1.697  16.122 -0.1477  0.1058 -0.4722
 7060TIP3   OH242670   2.331   3.289   1.885  0.1953  0.6416 -0.6085
 7060TIP3    H142671   2.365   3.286   1.974  1.6319  1.1645 -1.1247
 7060TIP3    H242672   2.409   3.305   1.830 -0.7826  1.1378 -1.8718
 7061TIP3   OH242673   3.931   0.783  15.715 -0.4864 -0.2513 -0.3658
 7061TIP3    H142674   3.950   0.773  15.808 -2.1306 -0.6794 -0.0684
 7061TIP3    H242675   4.010   0.822  15.679  0.5085 -0.9276  1.0441
 7062TIP3   OH242676   6.739   1.086  11.710  0.4925 -0.7444 -0.3169
 7062TIP3    H142677   6.723   1.153  11.643 -1.1993  0.8129  1.5674
 7062TIP3    H242678   6.652   1.050  11.729  0.5052  0.8178  2.9851
 7063TIP3   OH242679   6.689   6.409   0.225  0.6317  0.1346  0.3719
 7063TIP3    H142680   6.623   6.441   0.163  1.3005  0.3631 -0.2199
 7063TIP3    H242681   6.660   6.321   0.248  0.1651  0.2028  0.0439
 7064TIP3   OH242682   0.300   5.155   1.443  0.2913  0.4444  0.1758
 7064TIP3    H142683   0.259   5.119   1.522  0.0730  0.3142  0.0055
 7064TIP3    H242684   0.348   5.081   1.405  1.4408  0.8297  0.8662
 7065TIP3   OH242685   5.554   4.003  17.279  0.2383  0.8232 -0.7648
 7065TIP3    H142686   5.579   3.915  17.253 -0.4759  0.9365 -1.8686
 7065TIP3    H242687   5.465   3.993  17.314  0.1657  1.0992 -0.8699
 7066TIP3   OH242688   2.576   5.242   1.959  0.6954  0.8839  0.7228
 7066TIP3    H142689   2.491   5.201   1.941  0.7102 -0.7403  3.9427
 7066TIP3    H242690   2.627   5.227   1.880 -0.7368 -1.5949  0.2228
 7067TIP3   OH242691   6.449   4.707  17.170  0.0160 -0.5092 -0.2670
 7067TIP3    H142692   6.528   4.669  17.208  0.2368  1.3098  1.0952
 7067TIP3    H242693   6.479   4.745  17.087  0.8611  1.4212  0.9087
 7068TIP3   OH242694   1.703   4.391  11.220  0.0349 -0.3696 -0.0244
 7068TIP3    H142695   1.718   4.301  11.248 -1.1187 -1.4004 -2.5984
 7068TIP3    H242696   1.761   4.403  11.145  0.1232  1.0128  0.2552
 7069TIP3   OH242697   1.088   2.441   4.180  0.2921 -0.6300 -0.4060
 7069TIP3    H142698   1.124   2.354   4.196  0.7281 -0.5932 -1.2105
 7069TIP3    H242699   1.079   2.447   4.085  0.9858  0.4928 -0.4098
 7070TIP3   OH242700   4.144   3.029   6.062  0.0902 -0.4650  0.4320
 7070TIP3    H142701   4.240   3.031   6.059  0.0833  0.0560  0.5718
 7070TIP3    H242702   4.122   2.938   6.040  0.6916 -1.1357  2.4950
 7071TIP3   OH242703   0.120   3.353  12.294  0.4523 -0.2372  0.8009
 7071TIP3    H142704   0.149   3.268  12.327  1.4742 -0.4579 -0.5932
 7071TIP3    H242705   0.128   3.345  12.199  1.6554  1.8001  0.7069
 7072TIP3   OH242706   1.787   4.374   0.777 -0.2726 -0.8495  0.2235
 7072TIP3    H142707   1.753   4.286   0.761 -1.0778 -0.7780  1.4831
 7072TIP3    H242708   1.859   4.362   0.839 -0.6849 -0.5928  0.7664
 7073TIP3   OH242709   4.655   3.743  10.960  0.2489 -0.0621 -0.0262
 7073TIP3    H142710   4.705   3.808  10.911  1.0453 -0.3473  0.3941
 7073TIP3    H242711   4.605   3.695  10.894 -0.2315  0.8767 -0.3526
 7074TIP3   OH242712   2.707   3.888   2.762  0.3818 -0.2047 -0.3118
 7074TIP3    H142713   2.703   3.856   2.672  0.2883  1.1165 -0.7796
 7074TIP3    H242714   2.737   3.812   2.812  1.1467 -0.7453 -1.5560
 7075TIP3   OH242715   2.869   5.948   0.598 -0.7342  0.1981 -0.1175
 7075TIP3    H142716   2.837   5.992   0.676 -1.8634 -0.4711 -0.1905
 7075TIP3    H242717   2.803   5.967   0.531 -0.8830 -1.0099 -0.3300
 7076TIP3   OH242718   0.896   5.246   4.554  0.2919 -0.1162 -0.1561
 7076TIP3    H142719   0.912   5.337   4.531  0.0659 -0.3024 -1.0879
 7076TIP3    H242720   0.982   5.205   4.548  0.0772 -0.3630 -1.6259
 7077TIP3   OH242721   2.817   6.580  11.111  0.2175  0.3175  0.7148
 7077TIP3    H142722   2.908   6.601  11.128  1.2420 -1.2971 -2.4576
 7077TIP3    H242723   2.775   6.664  11.092  1.6763  0.7721 -0.5719
 7078TIP3   OH242724   0.565   4.364   1.462  0.1344  0.2561 -0.0635
 7078TIP3    H142725   0.532   4.302   1.397 -0.6877  1.5719 -0.9097
 7078TIP3    H242726   0.505   4.355   1.537 -0.2255  0.3398 -0.3430
 7079TIP3   OH242727   5.957   2.034  11.565  0.1349 -0.2307 -0.0929
 7079TIP3    H142728   5.991   2.091  11.496  0.1216  0.1580  0.2156
 7079TIP3    H242729   5.948   2.092  11.641 -0.7664 -0.4303 -0.0439
 7080TIP3   OH242730   1.119   1.318   0.616  0.0410 -0.5638  0.2308
 7080TIP3    H142731   1.120   1.229   0.582  1.5894 -2.0199  3.9246
 7080TIP3    H242732   1.062   1.315   0.692 -0.8306  1.8882 -0.2750
 7081TIP3   OH242733   5.391   3.978   0.389 -0.1149  0.1513  0.4242
 7081TIP3    H142734   5.413   3.926   0.466 -0.7045  0.0659  0.5334
 7081TIP3    H242735   5.445   4.057   0.398  0.2490 -0.1166  0.6211
 7082TIP3   OH242736   1.059   3.416  16.791 -0.0133 -0.0325  0.4254
 7082TIP3    H142737   1.056   3.334  16.841  0.8136  1.0600  2.2865
 7082TIP3    H242738   1.152   3.426  16.767 -0.3143 -0.2755 -0.9284
 7083TIP3   OH242739   5.678   6.110   4.245  0.4543 -0.0849  0.0562
 7083TIP3    H142740   5.607   6.065   4.198  0.2337 -0.1474  0.4451
 7083TIP3    H242741   5.673   6.076   4.334  1.1940 -0.3422  0.0002
 7084TIP3   OH242742   6.034   1.775   1.722  0.1084  0.5051  0.1300
 7084TIP3    H142743   6.095   1.756   1.794  0.1463 -0.2136 -0.0930
 7084TIP3    H242744   6.082   1.837   1.667 -0.1072  1.4427  0.9732
 7085TIP3   OH242745   5.315   1.556   5.122  0.2930  0.7173  0.9618
 7085TIP3    H142746   5.318   1.640   5.167 -1.5104  0.8382  0.8868
 7085TIP3    H242747   5.237   1.561   5.067  0.0204 -1.0931  1.1507
 7086TIP3   OH242748   4.552   1.201   1.745  0.0076 -0.3136 -0.3482
 7086TIP3    H142749   4.579   1.128   1.800 -0.3177 -0.7213 -0.7272
 7086TIP3    H242750   4.501   1.257   1.802  0.8136 -0.0421  0.1162
 7087TIP3   OH242751   4.970   0.964  11.326 -0.1936  0.0478 -0.0923
 7087TIP3    H142752   4.971   0.869  11.324  0.3521  0.0508 -0.1123
 7087TIP3    H242753   4.941   0.987  11.414 -1.4322 -0.1341 -0.4493
 7088TIP3   OH242754   1.411   3.680  12.058  0.3302  0.1786  0.3849
 7088TIP3    H142755   1.412   3.731  12.139  0.8874 -1.4083  1.4121
 7088TIP3    H242756   1.330   3.706  12.014  1.1828  2.8022  0.2950
 7089TIP3   OH242757   6.115   2.957   4.075  0.1869 -0.4147  0.1766
 7089TIP3    H142758   6.100   3.031   4.017 -1.3386 -2.0412 -1.5979
 7089TIP3    H242759   6.119   2.881   4.016  1.3852 -1.7820  1.9590
 7090TIP3   OH242760   1.433   0.003  15.688 -0.6132 -0.2030  0.4609
 7090TIP3    H142761   1.404  -0.056  15.757 -1.0075 -0.1557  0.3343
 7090TIP3    H242762   1.494  -0.050  15.636  1.0475  0.2921  1.8634
 7091TIP3   OH242763   5.837   0.808   6.413 -0.5499 -0.4377  0.4163
 7091TIP3    H142764   5.876   0.724   6.389  1.9128  0.9723 -0.7516
 7091TIP3    H242765   5.833   0.806   6.509  1.8591 -0.9242  0.5532
 7092TIP3   OH242766   5.279   0.605  13.491  0.3454 -0.3844 -0.2150
 7092TIP3    H142767   5.342   0.626  13.560 -0.9713  0.5889  0.7122
 7092TIP3    H242768   5.320   0.636  13.410  0.8344  0.7151  0.4433
 7093TIP3   OH242769   1.816   1.952   0.246 -0.0902  0.0135  0.0980
 7093TIP3    H142770   1.828   1.858   0.259 -1.8048 -0.2986 -0.3951
 7093TIP3    H242771   1.904   1.986   0.230  0.1686 -2.0317 -3.0908
 7094TIP3   OH242772   3.242   1.032   5.066 -0.4156 -0.0141 -0.0502
 7094TIP3    H142773   3.214   1.120   5.041 -0.1008  0.3791  0.9503
 7094TIP3    H242774   3.335   1.030   5.045 -0.5119 -0.2495 -0.4556
 7095TIP3   OH242775   5.632   3.241   4.066  0.6224 -0.2969 -0.4239
 7095TIP3    H142776   5.629   3.251   3.971  0.6740 -1.2579 -0.5263
 7095TIP3    H242777   5.708   3.292   4.094 -0.7934  2.0355 -0.6285
 7096TIP3   OH242778   5.824   5.342   0.321  0.1391 -0.4440  0.2653
 7096TIP3    H142779   5.814   5.408   0.253  0.6374 -0.7199 -0.0774
 7096TIP3    H242780   5.917   5.319   0.320 -0.1101 -1.4961  0.0596
 7097TIP3   OH242781   1.209   0.701  12.679  0.5920  0.1254  0.2397
 7097TIP3    H142782   1.200   0.753  12.760 -0.4394  1.5781 -0.7829
 7097TIP3    H242783   1.244   0.617  12.709 -2.5089 -0.4420  2.5943
 7098TIP3   OH242784   1.206   0.872   2.601  0.1031 -0.3698  0.1740
 7098TIP3    H142785   1.120   0.852   2.639 -0.6621  3.0319  0.3577
 7098TIP3    H242786   1.204   0.829   2.516 -0.7432 -2.4975  1.2155
 7099TIP3   OH242787   2.384   4.357   4.193 -0.0872  0.9798 -0.0495
 7099TIP3    H142788   2.428   4.302   4.257  0.2487  1.4151  0.0972
 7099TIP3    H242789   2.291   4.340   4.207  0.0535 -0.8163 -1.1553
 7100TIP3   OH242790   6.465   1.410  11.029 -0.1937  0.0702 -0.1900
 7100TIP3    H142791   6.542   1.450  10.989  1.1022 -1.4705  0.6885
 7100TIP3    H242792   6.443   1.338  10.971  0.3910 -0.8460  0.7025
 7101TIP3   OH242793   5.554   2.370  12.435 -0.2563 -0.4791 -0.5516
 7101TIP3    H142794   5.511   2.369  12.350  1.2017 -0.3758 -1.3066
 7101TIP3    H242795   5.616   2.443  12.431 -0.8801  0.1632  0.9647
 7102TIP3   OH242796   5.285   1.204  12.770  0.2944 -0.4457  0.3116
 7102TIP3    H142797   5.283   1.176  12.862 -1.5577  1.3941  0.8750
 7102TIP3    H242798   5.254   1.127  12.722  0.3390 -1.1116  1.3060
 7103TIP3   OH242799   5.474   4.901  11.463  0.1268 -0.2711  0.4054
 7103TIP3    H142800   5.434   4.861  11.385  0.0430 -1.4199  1.0211
 7103TIP3    H242801   5.406   4.961  11.496  0.3612  0.6145 -0.6886
 7104TIP3   OH242802   1.810   1.120  17.212  0.0361  0.5032  0.0321
 7104TIP3    H142803   1.775   1.130  17.124  1.0221 -0.2659 -0.4617
 7104TIP3    H242804   1.745   1.068  17.259 -1.4254  2.5606  0.3481
 7105TIP3   OH242805   4.401   6.279   4.854  0.1388  0.8922 -0.0609
 7105TIP3    H142806   4.406   6.208   4.919  2.2909 -0.4547 -1.6295
 7105TIP3    H242807   4.343   6.244   4.786 -1.4046  1.9586  0.6725
 7106TIP3   OH242808   3.225   6.796   1.842  0.1983  0.1654  0.0437
 7106TIP3    H142809   3.263   6.883   1.831  0.5145  0.0847  0.4894
 7106TIP3    H242810   3.239   6.775   1.934  0.9474 -0.7324 -0.2642
 7107TIP3   OH242811   0.724   0.992  14.037  0.6364  0.5789 -0.0462
 7107TIP3    H142812   0.660   0.983  13.966  1.8569 -0.1936 -1.0580
 7107TIP3    H242813   0.701   0.922  14.098 -0.0221  0.8516  0.0283
 7108TIP3   OH242814   2.107   1.486  15.471 -0.4370  0.4168 -0.2096
 7108TIP3    H142815   2.054   1.502  15.549 -0.9062 -0.3252 -0.3730
 7108TIP3    H242816   2.062   1.532  15.401  0.1525  1.3412  0.0120
 7109TIP3   OH242817   6.706   6.351   3.155  0.9608  0.7183  0.1731
 7109TIP3    H142818   6.762   6.348   3.078  1.5257 -0.6299  0.6103
 7109TIP3    H242819   6.619   6.326   3.123  0.9293  1.3589 -0.2406
 7110TIP3   OH242820   4.357   0.249   2.750  0.1049 -0.3042  0.0202
 7110TIP3    H142821   4.319   0.228   2.835 -0.9447  1.5103  0.0048
 7110TIP3    H242822   4.448   0.218   2.757  0.0518 -0.1146  1.8240
 7111TIP3   OH242823   4.742   5.098  13.707 -0.4297 -0.5361  0.7302
 7111TIP3    H142824   4.805   5.038  13.668 -0.5494 -0.9003  1.0855
 7111TIP3    H242825   4.729   5.166  13.642  0.5247 -0.3267  0.7553
 7112TIP3   OH242826   1.229   2.962   3.290  0.2619 -0.4049 -0.2239
 7112TIP3    H142827   1.215   2.892   3.353  0.8914  0.7963  1.3005
 7112TIP3    H242828   1.269   3.032   3.341 -0.1146  0.9708 -1.7632
 7113TIP3   OH242829   5.101   5.039  14.163 -0.2964 -0.2041  0.0273
 7113TIP3    H142830   5.172   4.984  14.198 -1.2764 -0.1638  2.1891
 7113TIP3    H242831   5.024   4.983  14.168 -0.6008  0.0676 -1.4568
 7114TIP3   OH242832   1.071   3.452  15.727  0.0416 -0.2664 -0.7113
 7114TIP3    H142833   0.999   3.407  15.684  0.5421 -2.0918  0.2924
 7114TIP3    H242834   1.088   3.400  15.806  2.4375  0.1076 -0.9387
 7115TIP3   OH242835   0.282   4.571  14.846  0.0325  0.3102 -0.0464
 7115TIP3    H142836   0.215   4.513  14.810  1.2970 -1.2147  0.0059
 7115TIP3    H242837   0.291   4.543  14.938  0.4015  0.8307  0.0784
 7116TIP3   OH242838   3.515   5.538  15.900  0.4525 -0.4401  0.0975
 7116TIP3    H142839   3.493   5.504  15.813  0.2576 -0.4254  0.1416
 7116TIP3    H242840   3.447   5.603  15.918  1.1680  0.4184 -0.2530
 7117TIP3   OH242841   6.809   2.504  14.242 -0.0361  0.1282 -0.4461
 7117TIP3    H142842   6.833   2.538  14.156  1.5302 -2.0026 -0.9040
 7117TIP3    H242843   6.863   2.554  14.303 -1.5262  2.0003 -0.6289
 7118TIP3   OH242844   1.107   0.464   1.225  0.0328  0.0983 -0.4433
 7118TIP3    H142845   1.187   0.518   1.229  0.9173 -1.3245  2.0272
 7118TIP3    H242846   1.036   0.526   1.241  0.9815  0.7063  1.5950
 7119TIP3   OH242847   4.912   4.286  13.051  0.2421 -0.1603  0.4149
 7119TIP3    H142848   5.005   4.302  13.031  0.2384 -1.0244 -0.3468
 7119TIP3    H242849   4.873   4.373  13.057  1.1619  0.2185  1.0153
 7120TIP3   OH242850   2.974   5.431   0.597  0.1244 -0.4455  0.0588
 7120TIP3    H142851   3.001   5.363   0.659  0.4886 -2.1501 -1.8960
 7120TIP3    H242852   2.992   5.392   0.511  0.8289  2.3554 -1.0934
 7121TIP3   OH242853   5.858   5.481   5.126 -0.7818 -0.5003 -0.2126
 7121TIP3    H142854   5.859   5.460   5.219 -0.8105  0.4763  0.0116
 7121TIP3    H242855   5.900   5.406   5.084  0.7702 -0.1945  0.7489
 7122TIP3   OH242856   4.702   6.170   3.061  0.3594  0.4127  0.4147
 7122TIP3    H142857   4.614   6.132   3.069  0.5404 -0.3740 -0.9807
 7122TIP3    H242858   4.738   6.165   3.149 -0.1706 -1.3724  0.5693
 7123TIP3   OH242859   3.016   4.931  16.872  0.2083  0.2760 -0.0789
 7123TIP3    H142860   3.029   4.979  16.953  0.0688  0.7049 -0.3141
 7123TIP3    H242861   3.058   4.984  16.804  0.3927 -0.1167 -0.2800
 7124TIP3   OH242862   2.740   4.223  11.655  0.1974  0.6550  0.6698
 7124TIP3    H142863   2.678   4.275  11.604 -0.7637 -0.5455  0.6153
 7124TIP3    H242864   2.686   4.176  11.718  1.1017  0.0110  0.9767
 7125TIP3   OH242865   4.555   2.286   3.360 -0.4130  0.3944  0.3110
 7125TIP3    H142866   4.643   2.272   3.396 -1.3983 -1.2923  2.2128
 7125TIP3    H242867   4.567   2.280   3.265  1.2771 -1.4262  0.5966
 7126TIP3   OH242868   4.563   4.399   4.316  0.0611 -0.4557  0.1062
 7126TIP3    H142869   4.568   4.435   4.227 -1.5728  0.2461  0.2834
 7126TIP3    H242870   4.542   4.475   4.371 -1.6642 -1.3565  0.7183
 7127TIP3   OH242871   0.618   2.823  16.161  0.2382  0.0032 -0.1782
 7127TIP3    H142872   0.551   2.855  16.222  0.9677 -0.5654  0.9445
 7127TIP3    H242873   0.680   2.895  16.153  0.1884  0.0456 -0.1857
 7128TIP3   OH242874   0.880   4.712  15.791 -0.9708  0.2982  1.0481
 7128TIP3    H142875   0.832   4.673  15.864  1.6089 -1.4485  1.8970
 7128TIP3    H242876   0.919   4.792  15.828 -0.5307 -0.0277  1.2917
 7129TIP3   OH242877   0.557   2.929  14.790 -0.0598  0.7033 -0.1757
 7129TIP3    H142878   0.550   2.958  14.881  0.2663  0.0527  0.0562
 7129TIP3    H242879   0.573   2.835  14.796 -2.0576  0.2779 -0.9282
 7130TIP3   OH242880   2.541   5.496  12.794  0.0568 -0.2988 -0.1114
 7130TIP3    H142881   2.635   5.511  12.807 -0.1137  1.2980 -0.5982
 7130TIP3    H242882   2.499   5.551  12.860 -0.5621 -0.2084 -0.5812
 7131TIP3   OH242883   1.712   0.332  15.758 -0.0895  0.5934  0.1437
 7131TIP3    H142884   1.801   0.362  15.741  0.3842 -0.6344  0.4022
 7131TIP3    H242885   1.658   0.410  15.748  1.2478  1.8202  2.1039
 7132TIP3   OH242886   3.015   1.817  17.094 -0.3246 -0.3976 -0.2748
 7132TIP3    H142887   3.108   1.795  17.103 -0.0475  1.0835  0.7168
 7132TIP3    H242888   3.007   1.848  17.004 -0.2109 -2.1190 -0.8861
 7133TIP3   OH242889   3.556   6.546   0.174  0.0414 -0.5391  0.3659
 7133TIP3    H142890   3.559   6.628   0.223 -0.7644 -1.3899  1.8633
 7133TIP3    H242891   3.545   6.478   0.240  0.6556 -1.8693 -0.8553
 7134TIP3   OH242892   5.416   1.902   1.636 -0.0015  0.5874  0.1385
 7134TIP3    H142893   5.464   1.941   1.563  0.8167  0.4571  0.6000
 7134TIP3    H242894   5.420   1.967   1.705  0.4037  0.1598  0.5270
 7135TIP3   OH242895   1.568   5.745   5.651  0.3690 -0.3353 -0.1190
 7135TIP3    H142896   1.571   5.788   5.565  0.4772 -0.3894 -0.1427
 7135TIP3    H242897   1.505   5.796   5.701  1.6240  0.7980  0.3554
 7136TIP3   OH242898   0.876   1.659   2.004  0.2639 -0.4821  0.2797
 7136TIP3    H142899   0.818   1.598   2.050  2.2481 -1.3429  1.7062
 7136TIP3    H242900   0.865   1.742   2.049 -0.2439 -0.5053  0.2040
 7137TIP3   OH242901   1.293   3.312  15.103 -0.3029  0.5451 -0.0773
 7137TIP3    H142902   1.324   3.234  15.149  0.1023  0.0411 -1.1647
 7137TIP3    H242903   1.218   3.342  15.153 -1.1448 -1.1989 -0.2711
 7138TIP3   OH242904   5.449   3.004   3.331  0.1326 -0.1984  0.1178
 7138TIP3    H142905   5.503   2.949   3.276  0.1368 -1.4034  1.2995
 7138TIP3    H242906   5.509   3.072   3.363  0.6773 -0.8453  0.4843
 7139TIP3   OH242907   1.316   3.174   1.147 -0.2193 -0.1769  0.1456
 7139TIP3    H142908   1.322   3.232   1.223 -2.6116  2.2991 -1.4733
 7139TIP3    H242909   1.241   3.118   1.165  0.6208 -1.1597  0.6230
 7140TIP3   OH242910   2.689   4.404   3.002 -0.0560 -0.3241 -0.2090
 7140TIP3    H142911   2.733   4.392   3.086 -0.8177  0.4288  0.3062
 7140TIP3    H242912   2.597   4.416   3.025  0.0063  1.8685 -0.9991
 7141TIP3   OH242913   1.524   1.785   4.030  0.4617  0.1770  0.3200
 7141TIP3    H142914   1.542   1.697   4.063 -0.1389 -0.4013 -0.8606
 7141TIP3    H242915   1.548   1.843   4.102  1.3514 -0.9189  0.9202
 7142TIP3   OH242916   4.321   6.476  12.670 -0.2542 -0.3190 -0.0232
 7142TIP3    H142917   4.388   6.481  12.602 -0.1517 -0.3957  0.0726
 7142TIP3    H242918   4.369   6.454  12.750 -0.5743 -1.9203 -0.2482
 7143TIP3   OH242919   4.316   4.625   3.479 -0.3385  0.6454 -0.1950
 7143TIP3    H142920   4.268   4.636   3.561  2.5793  2.0354  1.3926
 7143TIP3    H242921   4.302   4.533   3.455  0.5823 -0.3891  3.0539
 7144TIP3   OH242922   3.111   2.836  11.376  0.3689  0.5457  0.4343
 7144TIP3    H142923   3.156   2.751  11.378  0.3871  0.5503  0.2213
 7144TIP3    H242924   3.158   2.890  11.440  1.1185  0.7826 -0.3067
 7145TIP3   OH242925   6.197   3.314  16.293 -0.0045 -0.2883  0.1389
 7145TIP3    H142926   6.280   3.358  16.309 -1.3374  2.0653  0.8491
 7145TIP3    H242927   6.165   3.291  16.380  0.5448 -2.4564 -0.2163
 7146TIP3   OH242928   4.127   3.477  16.711  0.4787  0.1509 -0.3687
 7146TIP3    H142929   4.124   3.491  16.616  0.2924  2.7979 -0.0072
 7146TIP3    H242930   4.036   3.464  16.736  0.2830  1.5351 -0.2993
 7147TIP3   OH242931   6.204   0.277  16.233  0.2098 -0.1025  0.0095
 7147TIP3    H142932   6.287   0.325  16.240  0.9931 -1.2123 -1.3392
 7147TIP3    H242933   6.230   0.184  16.236 -0.9113 -0.4632 -1.0667
 7148TIP3   OH242934   6.391   3.013   6.058  0.4026  0.5537  0.5199
 7148TIP3    H142935   6.326   3.066   6.104 -0.1768 -0.9330  1.4561
 7148TIP3    H242936   6.446   2.977   6.128 -0.3465 -1.5383  0.0688
 7149TIP3   OH242937   5.447   4.335  11.676  0.2318  0.1698  0.1840
 7149TIP3    H142938   5.498   4.274  11.729 -0.0778 -0.2793 -0.0317
 7149TIP3    H242939   5.371   4.285  11.648 -0.2097  0.7672  0.3012
 7150TIP3   OH242940   3.586   4.622   0.341 -0.0605 -0.2675  0.0699
 7150TIP3    H142941   3.560   4.552   0.401  0.7909  0.7714  1.6578
 7150TIP3    H242942   3.679   4.607   0.326  0.3234  1.0700  1.1331
 7151TIP3   OH242943   0.119   0.967   1.935 -0.3523 -0.0269 -0.2432
 7151TIP3    H142944   0.140   0.906   1.864 -0.1933 -0.5512  0.2538
 7151TIP3    H242945   0.086   1.045   1.890 -1.1029 -0.6946 -0.8667
 7152TIP3   OH242946   4.119   4.755  12.642  0.1158  0.2871  0.2331
 7152TIP3    H142947   4.190   4.800  12.689  0.3963  0.7771 -0.6456
 7152TIP3    H242948   4.152   4.745  12.552 -0.5169 -0.4091  0.0728
 7153TIP3   OH242949   2.973   3.560  12.883 -0.4121  0.5969  0.0763
 7153TIP3    H142950   2.890   3.544  12.928  0.1267 -1.8737  0.2291
 7153TIP3    H242951   2.964   3.516  12.799 -0.3012  2.7470 -1.1225
 7154TIP3   OH242952   3.302   2.956   5.483  0.3305 -0.2813  0.1136
 7154TIP3    H142953   3.355   2.984   5.409  1.5246  1.1373  1.4687
 7154TIP3    H242954   3.251   3.034   5.507 -2.3942 -1.6171 -1.1579
 7155TIP3   OH242955   1.629   1.793  12.642 -0.1447  0.1649 -0.3303
 7155TIP3    H142956   1.699   1.728  12.647  1.8984  2.3579  1.3165
 7155TIP3    H242957   1.566   1.756  12.581  1.1116 -3.1468  0.2703
 7156TIP3   OH242958   0.705   3.096   2.054 -0.2275  0.4597  0.0742
 7156TIP3    H142959   0.748   3.123   2.135  0.3926  1.2013 -0.4889
 7156TIP3    H242960   0.617   3.134   2.060 -0.1719  0.5424  0.3848
 7157TIP3   OH242961   3.641   3.054   2.539  0.1391 -0.5549 -0.3658
 7157TIP3    H142962   3.591   3.044   2.620 -0.6872  1.5811 -0.5858
 7157TIP3    H242963   3.727   3.085   2.567 -0.5276  1.3541 -0.3505
 7158TIP3   OH242964   3.366   2.005  10.599 -0.3179 -0.1148  0.8979
 7158TIP3    H142965   3.358   2.091  10.639  0.5706  1.0384 -1.3802
 7158TIP3    H242966   3.276   1.978  10.582 -0.5801  0.5363  1.2343
 7159TIP3   OH242967   0.803   2.918  12.276  0.9372 -0.6819  0.0690
 7159TIP3    H142968   0.815   2.831  12.314 -1.1093 -0.3274  1.6219
 7159TIP3    H242969   0.846   2.977  12.338  2.3707 -0.5644 -1.0111
 7160TIP3   OH242970   4.003   0.426   4.125 -0.8850 -0.6535  0.2379
 7160TIP3    H142971   4.071   0.484   4.160  1.1309 -2.4524 -0.6539
 7160TIP3    H242972   4.005   0.349   4.182 -2.5928 -0.4975  0.5458
 7161TIP3   OH242973   1.249   3.105  15.829 -0.0783 -0.8197 -0.7007
 7161TIP3    H142974   1.214   3.193  15.829  0.5745 -0.5338 -2.5614
 7161TIP3    H242975   1.191   3.056  15.770  0.8656 -1.0646 -1.4414
 7162TIP3   OH242976   2.397   5.151  17.101  0.2000 -0.3410 -0.5276
 7162TIP3    H142977   2.471   5.124  17.154 -1.3699  0.0084  1.9072
 7162TIP3    H242978   2.411   5.108  17.016  1.7161 -2.4972  0.7801
 7163TIP3   OH242979   1.344   5.552  14.251  0.2213  0.2098  0.0392
 7163TIP3    H142980   1.392   5.480  14.291  0.2900  0.7138  0.8911
 7163TIP3    H242981   1.280   5.578  14.318  0.8746  1.6021  0.1484
 7164TIP3   OH242982   4.244   2.288  13.288  0.1522 -0.2767  0.6286
 7164TIP3    H142983   4.204   2.280  13.374 -0.4688  0.8002  0.4501
 7164TIP3    H242984   4.338   2.291  13.306 -0.0589  2.4923  1.5023
 7165TIP3   OH242985   0.688   1.860  12.522  0.0456  0.5761  0.1231
 7165TIP3    H142986   0.741   1.940  12.525 -1.2846  1.4368  2.3762
 7165TIP3    H242987   0.672   1.838  12.614 -0.0119 -2.0469 -0.4762
 7166TIP3   OH242988   5.806   1.497  11.598  0.1126  0.3644 -0.3033
 7166TIP3    H142989   5.855   1.530  11.674  1.9498  0.0851 -1.3419
 7166TIP3    H242990   5.801   1.572  11.538 -2.3835  0.9411  0.5557
 7167TIP3   OH242991   6.563   5.291   4.811 -0.6301 -0.2298  0.5977
 7167TIP3    H142992   6.492   5.355   4.804 -1.4312 -1.2855 -1.0743
 7167TIP3    H242993   6.524   5.208   4.786  1.1992 -0.8422 -0.3267
 7168TIP3   OH242994   6.282   6.673  17.233 -0.3841 -0.1808  0.5292
 7168TIP3    H142995   6.198   6.696  17.274 -0.6551 -0.8812  0.3807
 7168TIP3    H242996   6.302   6.748  17.177 -0.5920  0.2716  1.0598
 7169TIP3   OH242997   4.487   5.852  15.694  1.0542 -0.0358 -0.0823
 7169TIP3    H142998   4.462   5.901  15.773 -1.1516 -2.4666  0.8124
 7169TIP3    H242999   4.524   5.770  15.727 -0.4515 -1.3484 -1.5390
 7170TIP3   OH243000   3.683   4.917  11.099  0.7647 -0.0360 -0.0351
 7170TIP3    H143001   3.735   4.994  11.120  1.2784 -0.6104  0.8530
 7170TIP3    H243002   3.601   4.952  11.062  1.2229  0.9051 -0.1757
 7171TIP3   OH243003   1.478   0.786   5.770  0.3767 -0.6503 -0.3549
 7171TIP3    H143004   1.572   0.772   5.755  0.6398 -0.6272  1.1747
 7171TIP3    H243005   1.474   0.836   5.852 -0.8981  0.9852 -1.3776
 7172TIP3   OH243006   1.565   0.089   4.627  0.0194 -0.1439  0.3611
 7172TIP3    H143007   1.584   0.065   4.717 -0.6889 -0.6458  0.3842
 7172TIP3    H243008   1.553   0.184   4.628 -1.2271 -0.2927  1.0326
 7173TIP3   OH243009   0.743   0.006  15.264  0.2469  0.2189 -0.0360
 7173TIP3    H143010   0.803   0.044  15.199  0.4087 -0.5165 -0.3242
 7173TIP3    H243011   0.797  -0.057  15.312  0.1637  0.8889  0.9254
 7174TIP3   OH243012   2.407   5.760   0.374 -0.0991 -0.1766  0.2724
 7174TIP3    H143013   2.315   5.777   0.394  1.1850  4.9320  2.7985
 7174TIP3    H243014   2.441   5.716   0.452 -0.0957 -0.8776 -0.1229
 7175TIP3   OH243015   3.218   3.498   2.622 -0.5099 -0.4603  0.1592
 7175TIP3    H143016   3.313   3.505   2.609 -0.6928  1.2447 -0.2748
 7175TIP3    H243017   3.190   3.434   2.557  0.2034 -0.2346 -0.3764
 7176TIP3   OH243018   5.641   1.827   4.903  0.0717  0.2835  0.1695
 7176TIP3    H143019   5.609   1.765   4.968 -0.2204  0.7299  0.4523
 7176TIP3    H243020   5.716   1.783   4.863 -1.1061 -0.9191 -0.7655
 7177TIP3   OH243021   4.392   3.260  12.155  0.5151  0.0412 -0.3876
 7177TIP3    H143022   4.405   3.208  12.076 -0.7977  0.4589 -0.8851
 7177TIP3    H243023   4.300   3.248  12.177  1.0626 -0.7437  1.5638
 7178TIP3   OH243024   4.489   2.825   3.256  0.4856 -0.5662  0.5610
 7178TIP3    H143025   4.409   2.854   3.300 -0.0777 -0.2584 -0.6381
 7178TIP3    H243026   4.472   2.734   3.234 -1.0885  0.4987 -3.0326
 7179TIP3   OH243027   4.801   6.093  16.986 -0.1108 -0.0106  0.3130
 7179TIP3    H143028   4.893   6.111  16.964 -0.1449 -1.0731 -0.7428
 7179TIP3    H243029   4.760   6.075  16.902 -1.1783 -0.0720  0.8469
 7180TIP3   OH243030   6.430   5.184   4.137  0.2108 -0.5703 -0.6535
 7180TIP3    H143031   6.518   5.195   4.100  1.2907 -1.2589  1.6575
 7180TIP3    H243032   6.438   5.109   4.197 -1.8212 -0.3033 -0.0154
 7181TIP3   OH243033   2.728   2.539  13.448  0.0272 -0.2746  0.5514
 7181TIP3    H143034   2.643   2.523  13.489  0.3139  0.1476  1.3109
 7181TIP3    H243035   2.767   2.608  13.501 -0.0286  1.0061 -1.0346
 7182TIP3   OH243036   3.836   5.186   1.793 -0.1157 -0.2728  0.0512
 7182TIP3    H143037   3.754   5.152   1.758  0.2796  0.9191 -2.1691
 7182TIP3    H243038   3.903   5.123   1.764  0.0719  0.1288 -0.3989
 7183TIP3   OH243039   5.978   2.951  16.114 -0.1827 -0.2616 -0.2824
 7183TIP3    H143040   5.946   3.014  16.178 -0.0761 -1.1333  0.6381
 7183TIP3    H243041   6.074   2.960  16.117 -0.2101  0.3365 -0.9857
 7184TIP3   OH243042   4.320   0.827  12.031  0.0336 -0.7058  0.5140
 7184TIP3    H143043   4.296   0.735  12.026  0.2402 -0.7295 -0.0948
 7184TIP3    H243044   4.301   0.852  12.122 -0.4966 -1.2117  0.5426
 7185TIP3   OH243045   0.556   2.532   1.658 -0.3184  0.6159  0.0075
 7185TIP3    H143046   0.644   2.560   1.635  0.7863 -1.9010  0.8708
 7185TIP3    H243047   0.541   2.569   1.745  0.7778 -0.7084  0.7815
 7186TIP3   OH243048   0.401   4.976  16.514 -0.4148 -0.1738  0.4246
 7186TIP3    H143049   0.435   4.918  16.582  0.5339 -0.2510 -0.1045
 7186TIP3    H243050   0.477   5.029  16.488 -0.7240 -0.2514 -0.6693
 7187TIP3   OH243051   5.993   4.263   1.564 -0.0249  0.0790 -0.0119
 7187TIP3    H143052   5.907   4.230   1.539 -0.1948  0.4846  0.0412
 7187TIP3    H243053   6.052   4.189   1.547 -0.5909 -0.7000  1.3868
 7188TIP3   OH243054   6.680   4.314   2.768  0.2045  0.3469  0.5282
 7188TIP3    H143055   6.611   4.380   2.770  0.6099  0.7975 -0.1036
 7188TIP3    H243056   6.743   4.347   2.704  0.2698 -0.7990 -0.0025
 7189TIP3   OH243057   0.417   3.538   2.809  0.0137 -0.2665 -0.0428
 7189TIP3    H143058   0.325   3.565   2.802  0.3826  0.8886 -0.5902
 7189TIP3    H243059   0.415   3.443   2.802 -1.0331 -0.1685 -1.2059
 7190TIP3   OH243060   6.639   4.367   0.464  0.0403 -0.5510 -0.1643
 7190TIP3    H143061   6.568   4.321   0.509 -1.5091  1.2488 -0.7191
 7190TIP3    H243062   6.651   4.448   0.514  0.3423  0.0839 -1.2548
 7191TIP3   OH243063   5.014   3.988   5.226 -0.7667 -0.1148  0.7554
 7191TIP3    H143064   5.080   4.056   5.215  0.0219 -0.7809  1.2054
 7191TIP3    H243065   5.036   3.947   5.310 -3.3531  1.3505  2.2132
 7192TIP3   OH243066   5.033   1.999  16.907  0.1452  0.2937  0.1740
 7192TIP3    H143067   4.986   2.068  16.953  1.4412  1.7003 -0.5534
 7192TIP3    H243068   5.122   2.002  16.942  0.5246 -0.1887 -0.7146
 7193TIP3   OH243069   2.577   2.011  12.372 -0.2701  0.4422  0.1486
 7193TIP3    H143070   2.505   2.070  12.351 -1.0384 -0.8433 -0.9104
 7193TIP3    H243071   2.647   2.068  12.403 -0.3830  2.0732 -2.4568
 7194TIP3   OH243072   2.135   3.868  15.195  0.2132  0.0153  0.0559
 7194TIP3    H143073   2.060   3.818  15.163  1.0989 -0.9264 -0.5933
 7194TIP3    H243074   2.172   3.814  15.264 -0.1356  0.8186  0.8724
 7195TIP3   OH243075   1.126   3.692  12.938 -0.1351 -0.1350  0.2689
 7195TIP3    H143076   1.109   3.627  13.006 -0.4110 -0.6689 -0.3021
 7195TIP3    H243077   1.074   3.663  12.863  1.3030 -0.3960 -0.6623
 7196TIP3   OH243078   3.265   0.545   1.392 -0.0836 -0.2825  0.0283
 7196TIP3    H143079   3.311   0.548   1.308 -0.2279 -1.1805 -0.0869
 7196TIP3    H243080   3.289   0.460   1.429 -1.5359 -0.7105  0.0272
 7197TIP3   OH243081   6.516   5.220  17.221  0.2647 -0.8623  0.3550
 7197TIP3    H143082   6.539   5.138  17.178  0.0764 -0.6265 -0.2021
 7197TIP3    H243083   6.424   5.210  17.245 -0.2726 -0.1168 -1.3479
 7198TIP3   OH243084   0.954   2.329  15.184  0.2899  0.3731  0.0986
 7198TIP3    H143085   0.872   2.372  15.208 -0.1122  0.0008 -0.5846
 7198TIP3    H243086   0.932   2.279  15.105  0.4186 -2.1278  1.5902
 7199TIP3   OH243087   2.146   3.766   4.877 -0.2562  0.7129  0.2665
 7199TIP3    H143088   2.233   3.739   4.849  0.0482  0.8834  1.0298
 7199TIP3    H243089   2.162   3.823   4.952 -1.0895 -0.6031  1.4753
 7200TIP3   OH243090   5.161   0.575   5.241  0.3301  0.1614  0.2847
 7200TIP3    H143091   5.091   0.510   5.233  0.4525  0.2346 -1.5285
 7200TIP3    H243092   5.238   0.524   5.267  0.5715 -0.5241 -1.7192
 7201TIP3   OH243093   2.030   1.637   2.841  0.1642 -0.0169 -0.1648
 7201TIP3    H143094   1.950   1.635   2.894  1.8349  2.5634  2.6592
 7201TIP3    H243095   2.092   1.582   2.889  0.1719 -1.9755 -2.3169
 7202TIP3   OH243096   0.091   6.059  15.716 -0.0979  0.2899 -0.5276
 7202TIP3    H143097   0.013   6.095  15.674 -0.9881 -0.2866  0.6126
 7202TIP3    H243098   0.063   6.035  15.804  1.0626 -1.0539 -0.5054
 7203TIP3   OH243099   2.566   5.048  16.025  0.3950 -0.1085  0.4829
 7203TIP3    H143100   2.628   5.114  15.992 -2.0477 -0.1727 -4.6861
 7203TIP3    H243101   2.491   5.098  16.055 -0.0722 -0.3662 -0.2493
 7204TIP3   OH243102   0.794   4.746   3.864 -0.3636  0.2242  0.3843
 7204TIP3    H143103   0.800   4.755   3.959 -0.5706 -0.8157  0.5004
 7204TIP3    H243104   0.877   4.706   3.839  0.0688  1.3305  0.0096
 7205TIP3   OH243105   6.340   6.470  15.515  0.3213 -0.4661 -0.0845
 7205TIP3    H143106   6.338   6.543  15.576 -0.3847  0.7482 -1.5103
 7205TIP3    H243107   6.257   6.424  15.529  0.2658 -0.3249  0.0505
 7206TIP3   OH243108   1.700   5.063  17.023 -0.1435  0.0531  0.2290
 7206TIP3    H143109   1.658   5.003  17.084 -0.0646 -0.3254 -0.0919
 7206TIP3    H243110   1.669   5.150  17.050 -1.0771 -0.2184  0.0301
 7207TIP3   OH243111   4.308   4.008  14.135  0.5836  0.2542 -0.0435
 7207TIP3    H143112   4.230   4.009  14.079  0.4140  0.8503  0.2041
 7207TIP3    H243113   4.330   3.915  14.144 -0.8008  0.0068  0.8555
 7208TIP3   OH243114   4.999   4.002  13.519  0.3243 -0.5247  0.2714
 7208TIP3    H143115   5.072   4.031  13.573 -0.4806  0.2953  0.9402
 7208TIP3    H243116   4.983   4.075  13.459  0.5920 -1.0416 -0.4322
 7209TIP3   OH243117   6.375   0.856   5.874  0.5527 -0.4324  0.9165
 7209TIP3    H143118   6.344   0.797   5.805  2.8644  0.1345 -0.7008
 7209TIP3    H243119   6.331   0.939   5.855  1.4196 -0.1892 -0.1254
 7210TIP3   OH243120   3.907   5.697  11.567  0.0627 -0.4696  0.0711
 7210TIP3    H143121   3.883   5.776  11.616 -2.1300 -0.5256 -0.8489
 7210TIP3    H243122   4.002   5.701  11.559  0.0988  1.3436  1.2804
 7211TIP3   OH243123   4.997   4.914  15.838  0.4424  0.0269 -0.5978
 7211TIP3    H143124   4.993   5.005  15.810 -1.2992 -1.0032 -3.9380
 7211TIP3    H243125   5.090   4.896  15.850  0.8446  2.0068 -0.6451
 7212TIP3   OH243126   0.833   2.987  12.719 -0.1397 -0.1555  0.2521
 7212TIP3    H143127   0.895   3.016  12.652 -0.7993 -1.1029 -0.7929
 7212TIP3    H243128   0.772   3.060  12.728 -0.9626 -0.6317 -1.3337
 7213TIP3   OH243129   5.140   6.211  11.495  0.0253  0.0963  0.7294
 7213TIP3    H143130   5.060   6.259  11.518  0.4072  1.6415 -1.0214
 7213TIP3    H243131   5.110   6.140  11.439 -0.0588  1.2872 -0.7826
 7214TIP3   OH243132   6.390   0.338  10.948  0.0804 -0.1920  0.0865
 7214TIP3    H143133   6.296   0.337  10.963  0.0115  1.7129 -0.1062
 7214TIP3    H243134   6.400   0.373  10.859  0.9178 -1.8311 -0.4969
 7215TIP3   OH243135   2.852   2.738   5.838 -0.2035 -0.1085  0.1340
 7215TIP3    H143136   2.885   2.805   5.777 -1.9128 -0.0593 -0.7881
 7215TIP3    H243137   2.834   2.662   5.783 -3.2176  0.4443  0.2846
 7216TIP3   OH243138   4.384   3.518  14.861  0.0700  0.1464  0.1393
 7216TIP3    H143139   4.396   3.613  14.852  0.2763  0.2641  1.5169
 7216TIP3    H243140   4.333   3.508  14.941 -0.8126 -0.8656 -0.5328
 7217TIP3   OH243141   4.302   2.992   2.017  0.6168 -0.1516  0.2898
 7217TIP3    H143142   4.284   3.071   2.069 -0.6788 -0.2728  0.0482
 7217TIP3    H243143   4.343   2.932   2.078  0.4185  0.2374  0.8147
 7218TIP3   OH243144   4.370   0.214  12.842  0.5767  0.0136  0.3692
 7218TIP3    H143145   4.371   0.137  12.900  0.9687 -0.7126 -0.5925
 7218TIP3    H243146   4.456   0.213  12.800  0.0763  0.1945 -0.6687
 7219TIP3   OH243147   6.506   4.717  16.890 -0.4407  0.0354  0.2233
 7219TIP3    H143148   6.585   4.663  16.884 -0.8394 -0.7629  2.0335
 7219TIP3    H243149   6.436   4.655  16.910 -1.3622  0.8798 -0.3469
 7220TIP3   OH243150   5.260   3.266  16.593 -0.0985  0.0151  0.2509
 7220TIP3    H143151   5.347   3.235  16.618 -0.2749 -1.1573 -0.5485
 7220TIP3    H243152   5.200   3.218  16.650 -0.2085  1.3251  1.2786
 7221TIP3   OH243153   2.188   2.556  15.111  0.5799 -0.2053  0.0153
 7221TIP3    H143154   2.270   2.573  15.065  0.2986  0.6055 -0.2063
 7221TIP3    H243155   2.188   2.618  15.184  0.4180 -0.5794  0.3338
 7222TIP3   OH243156   1.041   1.031  13.464  0.4111 -0.1728 -0.3804
 7222TIP3    H143157   0.988   1.097  13.508  0.2421  1.1367 -2.4648
 7222TIP3    H243158   1.077   0.978  13.535 -1.0658  0.9176  1.2291
 7223TIP3   OH243159   3.522   5.115   1.749 -0.2457 -0.5931  0.6658
 7223TIP3    H143160   3.501   5.208   1.756  2.5148  0.0938  0.7289
 7223TIP3    H243161   3.477   5.074   1.822 -0.8729  0.8261  1.0872
 7224TIP3   OH243162   2.931   5.323  12.008 -0.6427  0.2548 -0.0512
 7224TIP3    H143163   2.987   5.392  12.044 -1.1169  0.4414  0.3472
 7224TIP3    H243164   2.868   5.305  12.079 -2.2716  1.3765 -1.1842
 7225TIP3   OH243165   5.583   3.621  14.266 -0.0392 -0.3246 -0.3927
 7225TIP3    H143166   5.670   3.658  14.251 -0.2543  0.5625  0.4661
 7225TIP3    H243167   5.530   3.657  14.195 -0.0768  0.4605  0.0221
 7226TIP3   OH243168   2.980   3.954  12.321  0.4691 -0.0265 -0.2289
 7226TIP3    H143169   3.066   3.933  12.285  0.2633  0.6808 -1.1447
 7226TIP3    H243170   2.935   3.870  12.327  1.2021 -0.3914  0.2172
 7227TIP3   OH243171   6.159   3.095   3.806 -0.2904 -0.0578  0.1325
 7227TIP3    H143172   6.177   3.018   3.752  0.6710  0.9087 -0.9643
 7227TIP3    H243173   6.089   3.141   3.759 -2.1326 -1.1715  1.7296
 7228TIP3   OH243174   2.768   2.839   5.517  0.0824 -0.1006  0.3745
 7228TIP3    H143175   2.736   2.887   5.441 -1.5622  2.4178  2.5501
 7228TIP3    H243176   2.863   2.836   5.506 -0.0034  1.6218 -1.0284
 7229TIP3   OH243177   2.112   1.175  11.724 -0.1911 -0.1651 -0.3105
 7229TIP3    H143178   2.072   1.252  11.682 -0.2166 -0.4444 -0.8117
 7229TIP3    H243179   2.124   1.200  11.815 -0.6878  0.2488 -0.3555
 7230TIP3   OH243180   3.927   6.442  16.709 -0.2659 -0.2213 -0.6879
 7230TIP3    H143181   3.843   6.468  16.670 -0.6076  0.8128  0.6982
 7230TIP3    H243182   3.904   6.370  16.768 -0.2512  0.4080  0.0814
 7231TIP3   OH243183   1.455   5.049  12.576  0.2162  0.2420  0.1083
 7231TIP3    H143184   1.489   5.025  12.490 -1.8169  1.7418 -1.1569
 7231TIP3    H243185   1.389   4.983  12.595 -0.8984  1.1843 -0.4892
 7232TIP3   OH243186   5.601   1.243   1.048 -0.4586  0.0477  0.1258
 7232TIP3    H143187   5.685   1.244   1.003 -0.6942 -1.3336 -0.3797
 7232TIP3    H243188   5.537   1.222   0.979 -1.0652 -0.0718  0.7202
 7233TIP3   OH243189   1.486   4.221   0.054  0.1573  0.6465  0.3034
 7233TIP3    H143190   1.519   4.194   0.139 -1.3025  0.8891  0.9655
 7233TIP3    H243191   1.465   4.139   0.009  1.5979  0.4932 -0.1145
 7234TIP3   OH243192   6.751   3.953  10.409  0.1478 -0.1895  0.2599
 7234TIP3    H143193   6.748   3.901  10.328  0.9956 -0.4646  0.4063
 7234TIP3    H243194   6.807   3.902  10.468  0.3779  0.5367  0.6642
 7235TIP3   OH243195   2.829   4.545   5.385  0.2849 -0.6549  0.1373
 7235TIP3    H143196   2.754   4.575   5.334 -1.6337 -4.4419  0.5635
 7235TIP3    H243197   2.807   4.566   5.475  2.1383  2.9172 -0.1707
 7236TIP3   OH243198   5.873   4.975   3.025  0.4240 -0.3630 -0.0697
 7236TIP3    H143199   5.945   4.985   2.963  1.8046  1.6035  1.7499
 7236TIP3    H243200   5.834   5.062   3.030 -1.4474 -1.1755 -0.2751
 7237TIP3   OH243201   4.649   6.228   4.694 -0.4921 -0.3580 -0.3319
 7237TIP3    H143202   4.562   6.268   4.703 -0.6675 -0.6306 -0.7485
 7237TIP3    H243203   4.665   6.185   4.778 -2.0053 -2.7225 -1.1753
 7238TIP3   OH243204   6.668   0.287  16.536 -0.7561 -0.5922  0.0218
 7238TIP3    H143205   6.701   0.245  16.615 -1.3789 -0.4759  0.3483
 7238TIP3    H243206   6.656   0.379  16.561 -1.6041 -0.6949 -0.0066
 7239TIP3   OH243207   5.722   5.150   2.329  0.9216  0.2363 -0.0026
 7239TIP3    H143208   5.753   5.154   2.239 -0.5610 -1.7403 -0.6429
 7239TIP3    H243209   5.752   5.065   2.361  2.6676  1.5310  1.8544
 7240TIP3   OH243210   4.571   6.443   2.936  0.7100 -0.1112 -0.1463
 7240TIP3    H143211   4.495   6.473   2.984  0.6220 -0.5726 -0.0015
 7240TIP3    H243212   4.605   6.369   2.986  2.5771  1.4681  1.0211
 7241TIP3   OH243213   4.721   1.832  17.152 -0.4886 -0.3931  0.0110
 7241TIP3    H143214   4.651   1.822  17.216 -0.5284  0.4243  0.1017
 7241TIP3    H243215   4.784   1.890  17.194  0.2224 -1.0864 -0.0876
 7242TIP3   OH243216   4.810   2.697  10.527  0.4413  0.5400 -0.6695
 7242TIP3    H143217   4.819   2.608  10.562  0.3885  0.6484 -0.3764
 7242TIP3    H243218   4.742   2.737  10.581  0.9078  0.9606 -0.3844
 7243TIP3   OH243219   3.108   1.380   3.256  0.1202 -0.1382  0.0277
 7243TIP3    H143220   3.130   1.398   3.165  0.4623 -1.4214 -0.1536
 7243TIP3    H243221   3.111   1.465   3.299  0.8732  0.3439 -0.9725
 7244TIP3   OH243222   0.675   1.115   5.071  0.3814 -0.2415 -0.0818
 7244TIP3    H143223   0.728   1.111   4.991  1.2113 -0.9413  0.4864
 7244TIP3    H243224   0.643   1.205   5.074  1.4879  0.1734 -0.4759
 7245TIP3   OH243225   3.258   2.662   1.196 -0.5363 -0.4375  0.6211
 7245TIP3    H143226   3.268   2.586   1.138  1.2089  0.5762 -0.4531
 7245TIP3    H243227   3.328   2.652   1.260  0.1543  0.6223  0.0485
 7246TIP3   OH243228   4.834   5.420   0.498  0.5150  0.3787  0.4481
 7246TIP3    H143229   4.904   5.482   0.478 -0.6100  1.8361  0.8703
 7246TIP3    H243230   4.845   5.349   0.434  3.6696 -0.5110  1.9160
 7247TIP3   OH243231   0.702   5.214   1.129 -0.3688  0.4908  0.1630
 7247TIP3    H143232   0.626   5.185   1.079 -0.7049  0.7688  0.5130
 7247TIP3    H243233   0.670   5.224   1.218  0.3882 -0.6421  0.5721
 7248TIP3   OH243234   2.460   2.454  12.435  0.0013  0.6318  0.5550
 7248TIP3    H143235   2.385   2.513  12.441  0.4571  1.0483  2.2386
 7248TIP3    H243236   2.533   2.504  12.471  1.2120  0.3949 -1.4901
 7249TIP3   OH243237   2.555   2.200   0.643 -0.5215  0.3486  0.3404
 7249TIP3    H143238   2.580   2.285   0.680 -0.6165  0.9772 -1.0272
 7249TIP3    H243239   2.521   2.220   0.556  0.5434 -1.2146 -0.4597
 7250TIP3   OH243240   2.518   6.352   2.089 -0.1087  0.4027 -0.2209
 7250TIP3    H143241   2.549   6.262   2.077 -2.1742 -0.0034 -3.2060
 7250TIP3    H243242   2.595   6.400   2.117  1.7845 -1.7333 -1.5522
 7251TIP3   OH243243   5.591   0.034  13.273  0.0323 -0.0229 -0.6231
 7251TIP3    H143244   5.647  -0.005  13.340  0.4583  1.7661  0.0729
 7251TIP3    H243245   5.631   0.008  13.190 -0.3765 -2.0699 -0.2258
 7252TIP3   OH243246   4.125   2.911  13.227  0.8937  0.1915  0.1488
 7252TIP3    H143247   4.090   2.983  13.175  2.1568  2.2122  1.9725
 7252TIP3    H243248   4.048   2.869  13.266  0.1640  0.7450 -0.6885
 7253TIP3   OH243249   0.898   6.666  14.743 -0.4674 -0.2380  0.2758
 7253TIP3    H143250   0.949   6.590  14.771  0.1855  0.5384  1.2338
 7253TIP3    H243251   0.809   6.648  14.775  0.0449  0.1635  1.9806
 7254TIP3   OH243252   3.433   6.477   1.211  0.8187  0.0737 -0.0969
 7254TIP3    H143253   3.513   6.479   1.263  1.1327 -0.7257 -0.5346
 7254TIP3    H243254   3.455   6.422   1.136  0.4024  1.2893 -1.1266
 7255TIP3   OH243255   2.501   4.425   1.543 -0.8567 -0.2961  0.2810
 7255TIP3    H143256   2.458   4.382   1.469  3.3691  0.5239 -2.7778
 7255TIP3    H243257   2.492   4.519   1.525 -1.4394 -0.0436  1.8223
 7256TIP3   OH243258   2.610   1.764  12.813  0.2736  0.0201  0.0054
 7256TIP3    H143259   2.663   1.817  12.754  0.2700  0.1507  0.1197
 7256TIP3    H243260   2.672   1.734  12.880  0.3247 -0.3179 -0.1942
 7257TIP3   OH243261   6.615   2.241   5.934 -0.4128 -0.1203 -0.6082
 7257TIP3    H143262   6.524   2.269   5.925 -0.1592  0.4006 -1.7254
 7257TIP3    H243263   6.642   2.274   6.020 -1.2338 -0.1536 -0.3329
 7258TIP3   OH243264   6.528   1.865   6.452 -0.1599 -0.0485  0.4510
 7258TIP3    H143265   6.514   1.770   6.451  0.6153 -0.1626 -1.6206
 7258TIP3    H243266   6.439   1.901   6.452 -0.4762 -0.7865 -0.2356
 7259TIP3   OH243267   3.984   1.025  15.128 -0.6475  0.5737 -0.3741
 7259TIP3    H143268   4.026   0.947  15.091 -2.2369 -0.7350  0.5317
 7259TIP3    H243269   3.906   1.038  15.074 -1.6685  0.1093  0.9699
 7260TIP3   OH243270   2.339   0.151   2.264  0.1316  0.6445 -0.2363
 7260TIP3    H143271   2.340   0.247   2.256  0.9386  0.5678 -1.0566
 7260TIP3    H243272   2.363   0.135   2.356 -1.1048  1.2515  0.2061
 7261TIP3   OH243273   3.974   2.227  10.290 -0.0823  0.3616 -0.2314
 7261TIP3    H143274   3.921   2.291  10.242  0.8522  3.2685  2.4503
 7261TIP3    H243275   3.937   2.226  10.379 -0.3959 -3.2498 -0.3135
 7262TIP3   OH243276   0.617   5.195  13.305 -0.2855  0.3675  0.1328
 7262TIP3    H143277   0.707   5.217  13.329 -0.2444  0.3764 -0.0301
 7262TIP3    H243278   0.626   5.130  13.235 -0.4046  0.7598 -0.2449
 7263TIP3   OH243279   5.959   4.602  12.000 -0.8561  0.5186 -0.2003
 7263TIP3    H143280   5.884   4.662  11.996 -1.1354  0.2739  1.0373
 7263TIP3    H243281   6.035   4.658  11.984 -1.3952  0.4713 -3.2986
 7264TIP3   OH243282   6.669   1.811  12.306 -0.0477 -0.2738 -0.0164
 7264TIP3    H143283   6.744   1.858  12.271 -1.2891  1.2807 -0.6176
 7264TIP3    H243284   6.701   1.721  12.319  2.0065  0.4520  0.1063
 7265TIP3   OH243285   3.086   0.144   3.911  0.2817 -0.1142  0.0682
 7265TIP3    H143286   3.167   0.186   3.884  0.5489 -0.0186  1.0275
 7265TIP3    H243287   3.059   0.094   3.834  1.2639 -0.1825 -0.2367
 7266TIP3   OH243288   4.642   5.867  13.127  0.3314  0.1135  0.1497
 7266TIP3    H143289   4.600   5.794  13.082 -0.0814 -1.2706  2.6646
 7266TIP3    H243290   4.719   5.829  13.168  0.5545  1.2764  0.8339
 7267TIP3   OH243291   3.690   0.329   3.120 -0.5565 -0.1669  0.1914
 7267TIP3    H143292   3.777   0.368   3.128 -0.5763  0.1689 -1.0886
 7267TIP3    H243293   3.703   0.237   3.145  0.6585 -0.6668 -2.0401
 7268TIP3   OH243294   5.273   1.751  12.168  0.1505 -0.0351 -0.2524
 7268TIP3    H143295   5.182   1.744  12.197  0.3660  1.9959  1.0189
 7268TIP3    H243296   5.272   1.820  12.101  0.6662 -0.3542 -0.5933
 7269TIP3   OH243297   6.436   0.849   5.309  0.1196  0.1905  0.2189
 7269TIP3    H143298   6.446   0.765   5.264 -3.7367  0.0765 -0.5816
 7269TIP3    H243299   6.382   0.829   5.385 -2.4402  2.2121 -0.9881
 7270TIP3   OH243300   5.039   6.200  15.012  0.0692 -0.1839 -0.1195
 7270TIP3    H143301   4.996   6.114  15.015  0.4473 -0.3754 -0.2944
 7270TIP3    H243302   5.081   6.208  15.098 -1.0257  0.3690  0.3777
 7271TIP3   OH243303   3.003   3.796  16.537  0.2519  0.3142 -0.2400
 7271TIP3    H143304   3.094   3.804  16.509  0.3995  0.0461  0.1757
 7271TIP3    H243305   2.994   3.860  16.608  0.7540 -1.3206  1.3445
 7272TIP3   OH243306   3.452   0.643   0.099 -0.2184  0.2455  0.9347
 7272TIP3    H143307   3.451   0.674   0.189  0.0350 -1.2765  1.4751
 7272TIP3    H243308   3.362   0.614   0.083 -0.2421  0.4299  0.7286
 7273TIP3   OH243309   1.852   5.728   6.647 -0.2456 -0.1032 -0.2514
 7273TIP3    H143310   1.763   5.760   6.635 -0.4145  1.0479  3.5525
 7273TIP3    H243311   1.844   5.655   6.708  1.4132 -0.1695 -0.0775
 7274TIP3   OH243312   1.504   3.936  11.409 -0.3800 -0.5975 -0.5167
 7274TIP3    H143313   1.484   3.899  11.323 -1.1422  1.1871 -1.1461
 7274TIP3    H243314   1.431   3.996  11.427  0.6963  0.4500  0.5178
 7275TIP3   OH243315   1.111   4.128   0.492 -0.5802 -0.0060 -0.0042
 7275TIP3    H143316   1.021   4.098   0.493 -0.4969 -0.2940 -0.8774
 7275TIP3    H243317   1.112   4.201   0.430 -0.4718  0.8490  0.9714
 7276TIP3   OH243318   1.646   2.228  16.906 -0.3739 -0.8188  0.3079
 7276TIP3    H143319   1.710   2.194  16.968  0.2220  0.4180  0.3862
 7276TIP3    H243320   1.697   2.248  16.827 -0.9128 -1.1653 -0.1352
 7277TIP3   OH243321   0.699   4.590   5.365 -0.1461  0.7060 -0.1336
 7277TIP3    H143322   0.768   4.602   5.300  0.2886  2.5242  0.6489
 7277TIP3    H243323   0.717   4.504   5.404  1.4967  1.0459 -0.1398
 7278TIP3   OH243324   1.219   6.356   6.866 -1.2514 -0.4130 -0.3520
 7278TIP3    H143325   1.213   6.267   6.900  1.1570 -0.2302  0.7089
 7278TIP3    H243326   1.215   6.346   6.771 -1.7797 -1.5689 -0.2155
 7279TIP3   OH243327   1.196   3.516  11.444  0.0451  0.3469  0.8674
 7279TIP3    H143328   1.134   3.574  11.400 -1.4326 -0.6236  1.5979
 7279TIP3    H243329   1.271   3.571  11.465 -0.5660  1.5456 -0.0646
 7280TIP3   OH243330   5.172   0.241   1.417  0.1352  0.1736 -0.5606
 7280TIP3    H143331   5.142   0.164   1.465  1.1544 -0.9089 -1.5931
 7280TIP3    H243332   5.095   0.297   1.411 -0.4260 -0.4160  0.8717
 7281TIP3   OH243333   4.573   5.886   2.443 -1.4350 -0.0542 -0.0572
 7281TIP3    H143334   4.652   5.881   2.496 -1.3150 -1.9143 -0.3690
 7281TIP3    H243335   4.532   5.969   2.468  1.9108  2.2682 -1.7427
 7282TIP3   OH243336   2.056   6.717   5.278 -0.2878  0.6353 -0.1533
 7282TIP3    H143337   2.116   6.788   5.257  0.8881  0.3827  2.2246
 7282TIP3    H243338   2.046   6.721   5.373 -2.0877 -0.8927 -0.2416
 7283TIP3   OH243339   0.607   4.943   1.871  0.3172 -0.0696  0.1375
 7283TIP3    H143340   0.669   4.884   1.914  0.8047  1.6665  1.9045
 7283TIP3    H243341   0.530   4.943   1.927  0.0858  0.4778 -0.1690
 7284TIP3   OH243342   4.573   3.202  12.533  0.1508 -0.1066 -0.2448
 7284TIP3    H143343   4.593   3.288  12.495 -0.5732 -0.3977 -1.3075
 7284TIP3    H243344   4.488   3.214  12.575  0.5764 -0.0046  0.5986
 7285TIP3   OH243345   5.131   3.420   4.705  0.2934  0.2392 -0.5239
 7285TIP3    H143346   5.222   3.409   4.732  0.5704 -0.7588 -1.8155
 7285TIP3    H243347   5.092   3.474   4.774  2.1747  1.7765 -0.6183
 7286TIP3   OH243348   1.781   6.098  11.048 -0.2552  0.5788  0.9975
 7286TIP3    H143349   1.858   6.042  11.034 -0.9162 -1.0235  3.4484
 7286TIP3    H243350   1.707   6.037  11.050 -1.7486  2.1884 -2.1689
 7287TIP3   OH243351   4.638   1.376   1.250  0.6770  0.5807 -0.4803
 7287TIP3    H143352   4.709   1.319   1.220 -0.9102 -0.7633 -1.7877
 7287TIP3    H243353   4.676   1.464   1.249  3.2841 -0.4215  1.8716
 7288TIP3   OH243354   2.326   0.490   0.052 -0.0771 -0.0313  0.0906
 7288TIP3    H143355   2.384   0.542   0.107  0.9716 -0.4648 -0.5777
 7288TIP3    H243356   2.367   0.403   0.050 -2.0797 -1.0231  1.6056
 7289TIP3   OH243357   6.008   0.485  14.754 -0.6461  0.1432  0.3633
 7289TIP3    H143358   6.063   0.546  14.802  0.4332 -0.5398  0.0157
 7289TIP3    H243359   5.963   0.435  14.822  0.6008 -0.5688  0.6841
 7290TIP3   OH243360   4.420   0.498   6.318 -0.5372 -0.4122  0.1792
 7290TIP3    H143361   4.515   0.488   6.324 -0.5489 -1.2273 -0.8597
 7290TIP3    H243362   4.395   0.537   6.402  0.7800  0.3517  0.2278
 7291TIP3   OH243363   4.256   4.437   6.442 -0.1690  0.0174  0.4244
 7291TIP3    H143364   4.183   4.492   6.412 -0.1478 -1.5701 -2.7760
 7291TIP3    H243365   4.335   4.482   6.411 -0.1105 -1.3081 -1.4154
 7292TIP3   OH243366   5.241   6.284  16.786 -0.5703 -0.3897 -0.2813
 7292TIP3    H143367   5.283   6.322  16.709  0.1948 -1.4591 -0.4042
 7292TIP3    H243368   5.214   6.359  16.838  0.2776  0.3343 -0.8635
 7293TIP3   OH243369   6.174   4.621  17.108  0.3788  0.0916 -0.2253
 7293TIP3    H143370   6.264   4.630  17.140  0.4489 -0.0098 -0.3942
 7293TIP3    H243371   6.159   4.699  17.055 -0.1723  0.8954  1.0873
 7294TIP3   OH243372   2.651   3.814   2.141  0.4355 -0.3086 -0.0680
 7294TIP3    H143373   2.609   3.832   2.057 -1.0792 -1.1273  0.5064
 7294TIP3    H243374   2.736   3.858   2.135 -0.4416  1.2873 -1.2854
 7295TIP3   OH243375   1.973   5.410   0.526 -0.5931  0.1648  0.0440
 7295TIP3    H143376   1.943   5.332   0.480 -0.9620  1.2985 -1.6682
 7295TIP3    H243377   1.986   5.381   0.617  1.8339 -2.5157 -1.1019
 7296TIP3   OH243378   6.134   0.859  12.773  0.1605 -0.0189 -0.2179
 7296TIP3    H143379   6.141   0.828  12.863  1.4951  1.2223  0.1187
 7296TIP3    H243380   6.092   0.945  12.780  1.3999  0.6313 -0.6645
 7297TIP3   OH243381   2.681   0.444   5.804  0.3432 -0.0703  0.3382
 7297TIP3    H143382   2.752   0.411   5.860 -0.0870 -0.1279  0.8430
 7297TIP3    H243383   2.673   0.377   5.735  0.3637 -0.3671  0.6217
 7298TIP3   OH243384   4.863   5.735  13.220  0.6388 -0.3067  0.2794
 7298TIP3    H143385   4.904   5.780  13.146 -0.7573 -1.1127 -0.9869
 7298TIP3    H243386   4.925   5.666  13.243  1.7175  0.7880  0.7705
 7299TIP3   OH243387   2.687   1.014  15.826  0.4054 -0.5170  0.2814
 7299TIP3    H143388   2.771   0.972  15.808  1.4899  1.4293  0.6555
 7299TIP3    H243389   2.707   1.107  15.831 -1.6722 -0.0740  1.0092
 7300TIP3   OH243390   0.522   0.379   4.836 -0.0822 -0.1385 -0.4139
 7300TIP3    H143391   0.506   0.288   4.863  1.0642  0.4695  2.4682
 7300TIP3    H243392   0.575   0.372   4.757 -2.5168 -1.9752 -1.9843
 7301TIP3   OH243393   5.420   2.847  13.933 -0.2592  0.9118  0.6645
 7301TIP3    H143394   5.389   2.932  13.964 -0.9257  0.8304  0.2379
 7301TIP3    H243395   5.413   2.789  14.010 -0.5101  1.0632  0.7565
 7302TIP3   OH243396   2.128   4.080   3.474 -0.7036 -0.2650  0.1152
 7302TIP3    H143397   2.183   4.006   3.449 -0.1566  0.5253 -1.0739
 7302TIP3    H243398   2.039   4.045   3.474 -0.5781 -0.6421 -1.6745
 7303TIP3   OH243399   6.741   0.914  13.511  0.5704 -0.0204  0.1264
 7303TIP3    H143400   6.755   0.856  13.585  1.2906 -1.0964 -0.8402
 7303TIP3    H243401   6.830   0.938  13.482  0.2887  1.4213  0.3967
 7304TIP3   OH243402   0.350   0.631   4.090  0.1445  0.1805 -0.0164
 7304TIP3    H143403   0.279   0.603   4.148 -0.3242  0.9486 -0.2239
 7304TIP3    H243404   0.361   0.724   4.108  0.3511  0.3093 -0.7920
 7305TIP3   OH243405   1.008   2.602   4.697  0.3690  0.0910 -0.3208
 7305TIP3    H143406   0.973   2.657   4.627 -2.8263 -1.2169  0.1444
 7305TIP3    H243407   1.005   2.657   4.775 -0.8425 -0.0511 -0.2587
 7306TIP3   OH243408   2.853   1.924   3.168  0.4837 -0.1696 -0.5562
 7306TIP3    H143409   2.801   1.858   3.213  1.5489 -0.3937  0.3789
 7306TIP3    H243410   2.809   2.007   3.188  0.4317 -0.3644  0.1807
 7307TIP3   OH243411   2.146   3.875   5.146  0.4237 -0.4023  0.3652
 7307TIP3    H143412   2.121   3.861   5.238 -0.0953  0.7693  0.4066
 7307TIP3    H243413   2.089   3.946   5.116 -1.0839 -2.3674 -1.5810
 7308TIP3   OH243414   5.023   2.584   5.481  0.6130  0.2544 -0.5319
 7308TIP3    H143415   5.062   2.502   5.509  2.9560  1.0473 -1.3188
 7308TIP3    H243416   5.094   2.648   5.487 -0.7700  1.9263 -1.2866
 7309TIP3   OH243417   4.256   0.370  14.596  0.2179  0.1946 -0.3635
 7309TIP3    H143418   4.326   0.431  14.573  0.1393 -0.0899 -1.3790
 7309TIP3    H243419   4.264   0.299  14.532 -0.5222 -0.2123 -0.0111
 7310TIP3   OH243420   5.613   5.306  14.574 -0.3780 -0.1710  0.0028
 7310TIP3    H143421   5.626   5.370  14.643  0.6661 -1.0711  0.6663
 7310TIP3    H243422   5.575   5.230  14.618 -1.1403 -0.2027 -0.6870
 7311TIP3   OH243423   3.644   5.451   5.286  0.5613 -0.6493  0.4228
 7311TIP3    H143424   3.688   5.479   5.205 -0.0868 -0.2670  0.1971
 7311TIP3    H243425   3.596   5.373   5.260  1.6962 -1.5040  0.8499
 7312TIP3   OH243426   3.391   5.838  12.910  0.8209 -0.0353 -0.5654
 7312TIP3    H143427   3.482   5.862  12.897  1.0078 -0.3109  0.2461
 7312TIP3    H243428   3.389   5.742  12.900  0.6372 -0.0417 -0.4731
 7313TIP3   OH243429   0.753   1.412   3.579  0.0579 -0.0686  0.1028
 7313TIP3    H143430   0.826   1.352   3.591 -0.7228 -0.4277  3.4849
 7313TIP3    H243431   0.690   1.363   3.526  0.4677 -1.3028  0.7503
 7314TIP3   OH243432   5.557   2.142  13.968 -0.4967  0.8784 -0.4470
 7314TIP3    H143433   5.494   2.070  13.969  0.4571  0.0523  0.2667
 7314TIP3    H243434   5.587   2.149  14.058  1.0783  0.7059 -0.9535
 7315TIP3   OH243435   2.287   3.189   6.452 -0.3511  0.1428  0.1913
 7315TIP3    H143436   2.259   3.278   6.434 -3.7557 -1.0703 -0.9825
 7315TIP3    H243437   2.317   3.156   6.367 -0.5470 -0.2887  0.2867
 7316TIP3   OH243438   3.456   6.236   3.670  0.2076 -0.0035  0.0003
 7316TIP3    H143439   3.383   6.204   3.618 -0.0051  0.0018  0.2961
 7316TIP3    H243440   3.484   6.160   3.722 -0.0090  0.1708  0.3698
 7317TIP3   OH243441   0.159   3.623   2.832 -0.4418 -0.1934 -0.3564
 7317TIP3    H143442   0.096   3.644   2.901  0.1591  0.4720 -0.0064
 7317TIP3    H243443   0.110   3.569   2.770 -0.5491 -2.2237  1.4247
 7318TIP3   OH243444   5.117   0.373   3.388  0.6709 -0.1877 -0.3394
 7318TIP3    H143445   5.140   0.383   3.480 -0.6347 -0.8199  0.0710
 7318TIP3    H243446   5.197   0.338   3.347  1.3384  0.3576  0.4950
 7319TIP3   OH243447   5.754   1.006  15.362 -0.5270 -0.2020 -0.6351
 7319TIP3    H143448   5.672   1.037  15.324 -1.4283 -1.0631  0.5953
 7319TIP3    H243449   5.750   1.034  15.453  0.9295  0.4754 -0.7678
 7320TIP3   OH243450   2.754   4.439   2.356 -0.2692 -0.2532  0.6907
 7320TIP3    H143451   2.807   4.515   2.334 -1.2466 -0.1288 -1.3752
 7320TIP3    H243452   2.684   4.473   2.411 -0.7997  0.3776 -0.3710
 7321TIP3   OH243453   5.543   1.314   3.154  0.0814 -0.6385 -0.0819
 7321TIP3    H143454   5.580   1.402   3.146 -0.7138 -0.2449  0.4624
 7321TIP3    H243455   5.487   1.304   3.077 -2.4481  0.6412  1.4944
 7322TIP3   OH243456   2.856   0.010   3.805 -0.1104  0.0232  0.1974
 7322TIP3    H143457   2.872   0.069   3.731  0.9163 -0.1652  0.2636
 7322TIP3    H243458   2.827   0.068   3.876 -2.1535  0.0933 -0.6417
 7323TIP3   OH243459   5.046   5.589   4.330  0.5772 -0.0640 -0.0277
 7323TIP3    H143460   5.011   5.502   4.309 -0.4799  0.1116  0.9637
 7323TIP3    H243461   5.141   5.577   4.328  0.4725 -0.7132 -2.0599
 7324TIP3   OH243462   1.307   4.414   4.342 -0.1756  0.2356 -0.2071
 7324TIP3    H143463   1.399   4.429   4.318 -0.5532  0.4989 -1.5395
 7324TIP3    H243464   1.282   4.491   4.392  1.7264 -1.9754  4.4763
 7325TIP3   OH243465   3.824   3.195   3.657  0.5057  0.3128 -0.1472
 7325TIP3    H143466   3.810   3.184   3.751 -1.1570 -0.2804 -0.4513
 7325TIP3    H243467   3.826   3.289   3.643 -0.4205  0.4101  0.3319
 7326TIP3   OH243468   3.653   1.094   6.543  0.4101 -0.4896  0.0436
 7326TIP3    H143469   3.736   1.045   6.537  0.0553 -1.3035  1.6146
 7326TIP3    H243470   3.674   1.170   6.597 -0.3616 -1.8512  2.3422
 7327TIP3   OH243471   2.242   6.287   1.622  0.3390  0.0762  0.1608
 7327TIP3    H143472   2.314   6.280   1.685 -0.2958 -0.1864  0.8607
 7327TIP3    H243473   2.234   6.381   1.606  0.8655  0.1049  0.0360
 7328TIP3   OH243474   3.737   6.318  13.707 -0.6722 -0.1426  0.3005
 7328TIP3    H143475   3.769   6.398  13.666  1.7536 -1.1595  0.0861
 7328TIP3    H243476   3.776   6.320  13.795 -0.8665 -0.9260  0.4027
 7329TIP3   OH243477   2.044   2.206   2.386  0.3662  0.0723 -0.0416
 7329TIP3    H143478   2.073   2.291   2.419  1.5723 -0.9040  1.5142
 7329TIP3    H243479   2.005   2.163   2.462  0.9105 -1.2476 -0.4809
 7330TIP3   OH243480   4.849   0.350  11.040 -0.4664  0.6969  0.6192
 7330TIP3    H143481   4.942   0.331  11.028 -1.2151 -2.3631 -0.6837
 7330TIP3    H243482   4.835   0.430  10.990  1.4256  1.1642  0.7714
 7331TIP3   OH243483   3.368   6.777   4.475 -0.0030  0.2227  0.2151
 7331TIP3    H143484   3.339   6.867   4.459 -1.7459 -0.3272  0.2215
 7331TIP3    H243485   3.299   6.739   4.529  1.3370 -0.7522  1.2906
 7332TIP3   OH243486   1.172   4.919  16.158 -0.3388  0.4235  0.2422
 7332TIP3    H143487   1.096   4.865  16.181 -1.0152  1.1803 -0.1881
 7332TIP3    H243488   1.231   4.910  16.233 -0.1016 -1.5161 -0.1470
 7333TIP3   OH243489   2.771   3.269  15.567 -0.2580 -0.3038 -0.1310
 7333TIP3    H143490   2.696   3.259  15.626 -1.1339 -0.0184 -1.1897
 7333TIP3    H243491   2.845   3.290  15.625 -1.4106  1.4718  0.7276
 7334TIP3   OH243492   3.683   3.611  14.955  0.0126  0.0256  0.0550
 7334TIP3    H143493   3.695   3.611  14.860  0.4855 -1.8198  0.0801
 7334TIP3    H243494   3.589   3.600  14.967  0.1188 -1.3775 -0.2329
 7335TIP3   OH243495   5.435   1.367  13.343 -0.0817  0.5647  0.4094
 7335TIP3    H143496   5.495   1.435  13.312 -1.3884  1.3042 -0.5681
 7335TIP3    H243497   5.357   1.415  13.372 -0.2182 -0.3783  1.6469
 7336TIP3   OH243498   3.256   4.436  11.739 -0.2653 -1.1717  0.0573
 7336TIP3    H143499   3.335   4.385  11.719 -0.4308 -1.1591 -0.6413
 7336TIP3    H243500   3.277   4.525  11.712 -0.4346 -1.1186  0.0984
 7337TIP3   OH243501   3.745   2.586   5.341  0.1655 -0.5636  0.1372
 7337TIP3    H143502   3.778   2.560   5.427  0.3587 -0.5785  0.0588
 7337TIP3    H243503   3.785   2.524   5.280  1.1829  0.3412 -0.1286
 7338TIP3   OH243504   1.950   6.072  14.728  0.6820 -0.2566 -0.2654
 7338TIP3    H143505   1.878   6.011  14.737  0.0335  0.4913 -0.3601
 7338TIP3    H243506   1.975   6.067  14.635  0.9246 -0.6984 -0.1802
 7339TIP3   OH243507   5.798   0.075  14.698 -0.3563  0.4057 -0.0112
 7339TIP3    H143508   5.892   0.071  14.716 -0.2649  0.2354 -0.5110
 7339TIP3    H243509   5.766  -0.012  14.720 -0.9724  1.4064  3.2456
 7340TIP3   OH243510   0.081   6.177  12.635 -0.1533  0.2562  0.7681
 7340TIP3    H143511   0.004   6.214  12.679  0.0731  1.7985 -0.0971
 7340TIP3    H243512   0.064   6.083  12.633 -2.0192  0.5720  0.5848
 7341TIP3   OH243513   6.337   0.123   0.254  0.6734 -0.4184 -0.1670
 7341TIP3    H143514   6.243   0.131   0.235  0.9867 -1.1251 -2.0433
 7341TIP3    H243515   6.360   0.207   0.294 -0.6297  0.0061 -0.2877
 7342TIP3   OH243516   3.473   5.870   0.190  0.6572 -0.2648  0.1391
 7342TIP3    H143517   3.432   5.783   0.188  1.7059 -0.7532 -0.1072
 7342TIP3    H243518   3.400   5.931   0.175 -0.2442 -1.0379  1.3224
 7343TIP3   OH243519   6.129   5.744   1.838 -0.6400  0.4038 -0.1867
 7343TIP3    H143520   6.157   5.661   1.877 -0.1353  0.5788 -0.1793
 7343TIP3    H243521   6.169   5.744   1.751 -1.0473  0.4157 -0.3748
 7344TIP3   OH243522   5.479   3.103  15.755 -0.1379  0.5630 -0.9914
 7344TIP3    H143523   5.549   3.038  15.754  0.6668  1.4010 -0.3033
 7344TIP3    H243524   5.400   3.053  15.773  0.6303 -0.0885  0.6657
 7345TIP3   OH243525   1.387   5.602  13.559  0.8379 -0.5685  0.2236
 7345TIP3    H143526   1.362   5.628  13.647  0.5540 -0.7590  0.2007
 7345TIP3    H243527   1.355   5.672  13.503 -0.8350 -1.4278  0.0551
 7346TIP3   OH243528   0.060   5.558  13.714  0.3057 -0.2425  0.2003
 7346TIP3    H143529   0.136   5.523  13.669 -0.0829  1.1428 -1.5844
 7346TIP3    H243530   0.060   5.514  13.799  1.3132 -2.5519 -0.9532
 7347TIP3   OH243531   4.237   6.226  12.513 -0.3280  0.6432  0.9084
 7347TIP3    H143532   4.291   6.248  12.589  0.1357 -0.3469  0.8775
 7347TIP3    H243533   4.246   6.131  12.504 -0.1964  0.7719 -0.5063
 7348TIP3   OH243534   2.379   1.212   2.262  0.3222  0.1288  0.6543
 7348TIP3    H143535   2.291   1.221   2.225  0.8740  1.0943 -0.4250
 7348TIP3    H243536   2.364   1.170   2.347 -1.2207  0.6272  0.6525
 7349TIP3   OH243537   4.998   1.637  17.290  0.0909 -0.2617 -0.0792
 7349TIP3    H143538   4.951   1.669  17.214  0.4927  0.2864 -0.1043
 7349TIP3    H243539   5.086   1.616  17.257  0.4234  0.4675  0.3336
 7350TIP3   OH243540   2.920   3.519   2.092  0.6466  0.3093 -0.1452
 7350TIP3    H143541   2.927   3.531   1.997 -1.3351 -0.1694 -0.3582
 7350TIP3    H243542   2.952   3.430   2.107 -0.4385 -0.1556 -0.5470
 7351TIP3   OH243543   3.778   6.592  16.403  0.5828  0.2702  0.0227
 7351TIP3    H143544   3.746   6.606  16.493  1.1939 -0.7279  0.4046
 7351TIP3    H243545   3.746   6.504  16.380  2.4700 -0.4780  0.1671
 7352TIP3   OH243546   3.371   0.148   4.734  0.6191 -0.2319  0.3903
 7352TIP3    H143547   3.285   0.108   4.718  0.7332 -0.6120  0.7149
 7352TIP3    H243548   3.366   0.234   4.692  0.7217 -0.9885 -1.2040
 7353TIP3   OH243549   1.254   3.911   4.608 -0.0992  0.5387  0.0381
 7353TIP3    H143550   1.278   3.849   4.539 -1.3253  0.3490 -0.2176
 7353TIP3    H243551   1.300   3.992   4.585  3.1331 -0.7878  1.4340
 7354TIP3   OH243552   6.230   0.978   2.902 -0.4408 -0.4668  0.0898
 7354TIP3    H143553   6.322   0.998   2.915 -0.5848 -0.2926  0.8463
 7354TIP3    H243554   6.228   0.886   2.874 -0.2116 -1.1926  2.3984
 7355TIP3   OH243555   3.549   0.459  10.534  0.0454  0.2274  0.0615
 7355TIP3    H143556   3.541   0.447  10.629  2.4675 -1.4829  0.0884
 7355TIP3    H243557   3.616   0.527  10.525 -1.4390  1.6585 -0.4255
 7356TIP3   OH243558   3.602   0.463  17.203  0.6210  0.1268  0.0887
 7356TIP3    H143559   3.540   0.510  17.260  0.2441 -0.1232 -0.1134
 7356TIP3    H243560   3.606   0.375  17.240  0.9812  0.1870  0.1993
 7357TIP3   OH243561   0.833   0.906   4.961  0.1021  0.7427  0.6659
 7357TIP3    H143562   0.772   0.920   5.034 -0.8854  0.8108 -0.1566
 7357TIP3    H243563   0.889   0.983   4.961  1.3192 -0.0996  2.4950
 7358TIP3   OH243564   0.601   0.425  15.309  0.0030 -0.4410  0.0597
 7358TIP3    H143565   0.609   0.378  15.392  1.6432 -1.0434 -0.4274
 7358TIP3    H243566   0.659   0.378  15.249 -1.2823 -0.1063 -1.4802
 7359TIP3   OH243567   2.674   3.169   5.221 -0.1110 -0.3771  0.6054
 7359TIP3    H143568   2.706   3.224   5.150  0.0522  0.0422  1.0011
 7359TIP3    H243569   2.579   3.173   5.214 -0.1187 -2.8950 -1.5620
 7360TIP3   OH243570   1.288   3.522   4.897  0.2932  0.3244 -0.0045
 7360TIP3    H143571   1.331   3.608   4.900  1.1045 -0.1159  2.8214
 7360TIP3    H243572   1.195   3.542   4.889  0.6753  1.3692 -2.4698
 7361TIP3   OH243573   1.818   4.290  14.086 -0.4591  0.0204 -0.5330
 7361TIP3    H143574   1.883   4.295  14.156  0.3006  0.0822 -1.2357
 7361TIP3    H243575   1.767   4.370  14.096  0.9370  1.0334 -1.2843
 7362TIP3   OH243576   5.405   1.628  16.621 -0.2394 -0.1618 -0.2666
 7362TIP3    H143577   5.500   1.621  16.628 -0.1481  0.5333 -0.7235
 7362TIP3    H243578   5.380   1.552  16.567 -0.1047 -1.1058  0.9781
 7363TIP3   OH243579   6.396   5.209  16.580 -0.4619 -0.3297 -0.0866
 7363TIP3    H143580   6.471   5.246  16.533 -0.9670 -0.5282 -1.0406
 7363TIP3    H243581   6.350   5.285  16.615  0.0384 -0.1939  0.2923
 7364TIP3   OH243582   1.697   1.067   5.022 -0.2482 -0.0248 -0.2689
 7364TIP3    H143583   1.784   1.070   5.062  0.3266 -3.2801 -1.1275
 7364TIP3    H243584   1.691   1.149   4.972  2.0878  0.4915  0.2304
 7365TIP3   OH243585   0.388   3.024  11.358 -0.2265 -0.2378  0.0994
 7365TIP3    H143586   0.301   2.988  11.375  0.0130 -0.5750  0.6440
 7365TIP3    H243587   0.396   3.023  11.263 -1.0603  0.3879  0.0227
 7366TIP3   OH243588   3.531   5.270  16.503  0.4869 -0.1108 -0.7377
 7366TIP3    H143589   3.495   5.197  16.553  2.3104 -1.1708 -0.9127
 7366TIP3    H243590   3.556   5.334  16.570  1.4065 -0.8266 -0.3852
 7367TIP3   OH243591   3.259   5.170   5.698  0.8597 -0.2145  0.1492
 7367TIP3    H143592   3.318   5.138   5.766  0.9422  0.7877  0.5625
 7367TIP3    H243593   3.205   5.095   5.674  0.5503 -0.4670  1.6181
 7368TIP3   OH243594   4.687   6.013   0.294 -0.3799 -0.3533  0.0262
 7368TIP3    H143595   4.643   5.962   0.361 -0.4804 -0.1857  0.0867
 7368TIP3    H243596   4.643   6.098   0.295  1.2697  0.5245  1.5115
 7369TIP3   OH243597   5.732   3.314  12.702  0.2561  0.1295  0.0228
 7369TIP3    H143598   5.820   3.334  12.735 -0.4098  0.0954  1.8337
 7369TIP3    H243599   5.744   3.237  12.647  1.4707  0.5461 -0.3121
 7370TIP3   OH243600   1.981   1.237  12.440 -0.4515 -0.2230  0.3861
 7370TIP3    H143601   2.017   1.188  12.513  1.1639 -0.5415 -0.5929
 7370TIP3    H243602   1.980   1.175  12.367  0.6774  0.8720 -0.5959
 7371TIP3   OH243603   2.757   3.108  16.307 -0.1487 -0.0561  0.0261
 7371TIP3    H143604   2.739   3.178  16.370  0.4858  0.7483 -0.6642
 7371TIP3    H243605   2.839   3.069  16.336 -1.1655 -1.3865  1.1612
 7372TIP3   OH243606   3.963   0.294  11.858  0.4995  0.4071  0.3129
 7372TIP3    H143607   4.013   0.231  11.909 -0.1030 -0.0273  0.3705
 7372TIP3    H243608   3.887   0.314  11.913 -1.4467 -1.9183 -1.4089
 7373TIP3   OH243609   5.765   2.681  10.895 -0.5592 -0.6264 -0.2496
 7373TIP3    H143610   5.753   2.728  10.978  2.8020 -1.4039  0.7560
 7373TIP3    H243611   5.768   2.749  10.829 -0.9850  0.1910  0.5675
 7374TIP3   OH243612   4.754   1.518   0.075  0.2375  0.0540 -0.0570
 7374TIP3    H143613   4.759   1.448   0.010  0.0044 -1.9758  2.0386
 7374TIP3    H243614   4.820   1.582   0.049  0.0572 -0.6739 -2.3156
 7375TIP3   OH243615   1.025   1.687  15.647  0.0742 -0.2370  0.4119
 7375TIP3    H143616   1.014   1.669  15.553 -0.5478 -1.6279  0.7331
 7375TIP3    H243617   0.939   1.667  15.685  0.7636 -1.1865  1.4936
 7376TIP3   OH243618   6.032   6.316  15.119  0.2656 -0.4756 -0.3110
 7376TIP3    H143619   5.992   6.307  15.206  0.3419 -0.3062 -0.2554
 7376TIP3    H243620   6.085   6.396  15.126  1.1170 -1.0353 -0.1801
 7377TIP3   OH243621   1.958   0.894  15.911 -0.0725  0.0237  0.0628
 7377TIP3    H143622   1.963   0.901  16.006  0.0471 -0.9960  0.1412
 7377TIP3    H243623   1.919   0.808  15.895 -1.2039  0.6896 -0.8004
 7378TIP3   OH243624   6.784   0.943  15.364 -0.2146  0.3986  0.4539
 7378TIP3    H143625   6.744   0.879  15.305 -1.5934  2.6309 -1.0925
 7378TIP3    H243626   6.844   0.993  15.309 -0.4012  1.5392  1.2682
 7379TIP3   OH243627   3.695   2.927   0.421 -0.2669 -0.2821 -0.0381
 7379TIP3    H143628   3.733   2.839   0.427 -0.8545 -0.5717 -0.5496
 7379TIP3    H243629   3.604   2.913   0.394 -0.9501  0.3849  1.8655
 7380TIP3   OH243630   2.449   1.121   0.717  0.5315 -0.2047 -0.1601
 7380TIP3    H143631   2.506   1.100   0.792  1.4774 -2.0256 -1.3562
 7380TIP3    H243632   2.426   1.036   0.679  0.0625  0.6895 -1.9445
 7381TIP3   OH243633   6.443   2.370  12.337  0.1749 -0.8875 -0.1961
 7381TIP3    H143634   6.524   2.367  12.388 -1.0056  0.6695  1.8564
 7381TIP3    H243635   6.418   2.462  12.337 -0.2441 -0.9548 -3.0460
 7382TIP3   OH243636   4.786   4.460   2.652  0.3519 -0.0119 -0.0522
 7382TIP3    H143637   4.723   4.508   2.705  1.0026 -0.4200  1.1110
 7382TIP3    H243638   4.758   4.369   2.658  1.0363 -0.1957  0.4732
 7383TIP3   OH243639   1.035   0.610   4.223  0.8081 -0.1957  0.4793
 7383TIP3    H143640   1.100   0.564   4.276  1.3948 -0.0247 -0.0887
 7383TIP3    H243641   1.053   0.703   4.238  2.9468 -0.0828 -2.3478
 7384TIP3   OH243642   1.376   5.294   6.370  0.0446 -0.4154  0.3327
 7384TIP3    H143643   1.317   5.221   6.355 -1.6045  0.4251  2.4674
 7384TIP3    H243644   1.427   5.269   6.448 -0.8420  0.8505  1.3472
 7385TIP3   OH243645   4.620   5.761   3.167  0.1200  0.0472 -0.4371
 7385TIP3    H143646   4.581   5.683   3.128  1.5303 -0.1262 -1.5185
 7385TIP3    H243647   4.579   5.835   3.122 -1.7870 -0.0320  1.1250
 7386TIP3   OH243648   5.220   2.974   4.810  0.1740 -0.5597  0.6363
 7386TIP3    H143649   5.173   3.054   4.834  0.4887 -0.3223  0.4653
 7386TIP3    H243650   5.169   2.936   4.739  0.7923  0.2340 -0.2437
 7387TIP3   OH243651   5.909   4.293  17.055  0.0263 -0.0650  0.1005
 7387TIP3    H143652   5.861   4.376  17.046  2.2601  1.1335 -1.4149
 7387TIP3    H243653   5.856   4.240  17.114 -2.3170  1.8115 -0.2663
 7388TIP3   OH243654   4.796   4.717  10.969  0.0972 -0.5674 -0.0150
 7388TIP3    H143655   4.783   4.796  10.916 -0.2158 -0.6539 -0.0654
 7388TIP3    H243656   4.796   4.646  10.905  3.2892 -0.3731 -0.3295
 7389TIP3   OH243657   2.856   6.513   5.006 -0.0107 -0.4096 -0.4940
 7389TIP3    H143658   2.785   6.452   4.984 -1.1397  0.7189  0.0056
 7389TIP3    H243659   2.895   6.476   5.086  1.6122 -2.3932 -2.1202
 7390TIP3   OH243660   1.444   5.674  12.366  0.1929 -0.0007 -0.2149
 7390TIP3    H143661   1.537   5.655  12.359 -0.0031 -1.9464  1.9897
 7390TIP3    H243662   1.439   5.768  12.383  1.6940  0.2539 -1.1268
 7391TIP3   OH243663   0.787   4.415  15.433 -0.0562  0.6515  0.3287
 7391TIP3    H143664   0.692   4.418  15.418  0.0641  1.0824 -0.4115
 7391TIP3    H243665   0.800   4.342  15.494 -0.9690  1.2846  1.2846
 7392TIP3   OH243666   2.111   4.274  11.476  0.1470  1.3911  0.1158
 7392TIP3    H143667   2.071   4.354  11.509 -0.1021  0.5314  1.9160
 7392TIP3    H243668   2.142   4.228  11.554  1.7389  0.4941 -1.0129
 7393TIP3   OH243669   0.702   0.943   4.289 -0.0107 -0.0850 -0.4870
 7393TIP3    H143670   0.761   0.883   4.334  1.1459  0.4877 -1.2212
 7393TIP3    H243671   0.628   0.953   4.349  0.2045 -1.5145  0.0458
 7394TIP3   OH243672   5.860   0.216   1.691  0.2945  0.0721 -0.4310
 7394TIP3    H143673   5.952   0.188   1.683  0.0722 -0.2749 -1.9762
 7394TIP3    H243674   5.857   0.265   1.773  1.5914 -0.9917  0.2748
 7395TIP3   OH243675   3.985   3.027   5.266 -0.2471 -0.1031 -0.3095
 7395TIP3    H143676   3.892   3.044   5.250  0.2332  0.7960 -2.2083
 7395TIP3    H243677   4.017   3.106   5.310  0.0769  0.4329 -1.5026
 7396TIP3   OH243678   5.388   4.894   0.699  0.3207  0.1548  0.1015
 7396TIP3    H143679   5.389   4.873   0.792 -1.1163  1.8241  0.5360
 7396TIP3    H243680   5.295   4.887   0.674  0.6357  0.1118 -1.0978
 7397TIP3   OH243681   6.428   2.863   3.447  0.3360 -0.3472  0.3227
 7397TIP3    H143682   6.442   2.784   3.395 -1.6352 -0.8297  0.5062
 7397TIP3    H243683   6.403   2.929   3.383 -3.3298 -1.2553  0.7360
 7398TIP3   OH243684   1.994   6.759  15.125 -0.4478 -0.9911 -0.1678
 7398TIP3    H143685   1.957   6.681  15.165 -1.5746  0.2683  1.2821
 7398TIP3    H243686   1.929   6.787  15.061 -1.3122  0.3028  1.2462
 7399TIP3   OH243687   0.610   6.076  16.118  0.4209  0.5953  0.3687
 7399TIP3    H143688   0.683   6.085  16.057  1.2653  0.3223  1.3210
 7399TIP3    H243689   0.546   6.024  16.070  1.3476 -0.1717 -0.0666
 7400TIP3   OH243690   2.416   0.629  12.138  0.0838  0.0259  0.1843
 7400TIP3    H143691   2.375   0.568  12.200 -0.5742 -1.6437 -1.8438
 7400TIP3    H243692   2.435   0.707  12.191 -2.9262 -0.2956  1.9062
 7401TIP3   OH243693   0.995   0.273   2.640 -0.1914 -0.1596  0.2224
 7401TIP3    H143694   0.910   0.231   2.629  0.1880 -1.0456  0.6410
 7401TIP3    H243695   1.027   0.240   2.724  0.8064 -0.2465 -0.1871
 7402TIP3   OH243696   4.504   2.702   1.945 -0.9497  0.0029 -0.1489
 7402TIP3    H143697   4.485   2.612   1.920 -2.1180  1.0054 -3.0595
 7402TIP3    H243698   4.585   2.696   1.997 -2.0872 -2.8892  1.3931
 7403TIP3   OH243699   5.647   3.148  12.115 -0.3575  0.0610 -0.3060
 7403TIP3    H143700   5.699   3.224  12.091  1.6444 -1.1814 -0.0526
 7403TIP3    H243701   5.583   3.181  12.178 -0.5905  1.8200 -1.4199
 7404TIP3   OH243702   1.343   5.092   5.338 -0.6240  0.0277  0.3540
 7404TIP3    H143703   1.341   5.187   5.345  0.9863  0.0035  1.3576
 7404TIP3    H243704   1.394   5.074   5.259 -0.6127  0.0036  0.3666
 7405TIP3   OH243705   6.191   2.789  11.802 -0.2481 -0.2796 -0.3155
 7405TIP3    H143706   6.250   2.846  11.753 -0.1768 -0.2844 -0.2340
 7405TIP3    H243707   6.223   2.791  11.892  0.2582 -1.1055 -0.4749
 7406TIP3   OH243708   6.575   0.134  11.504 -0.3932 -0.1257  0.1417
 7406TIP3    H143709   6.650   0.076  11.498  0.6936  1.3915 -1.5289
 7406TIP3    H243710   6.540   0.120  11.592 -0.1453 -3.2462 -0.2254
 7407TIP3   OH243711   6.099   5.933   2.844 -0.3751 -0.0226 -0.3772
 7407TIP3    H143712   6.087   5.879   2.923 -0.1750  1.3307  0.5887
 7407TIP3    H243713   6.115   6.021   2.877 -1.3663  0.7787 -1.9564
 7408TIP3   OH243714   3.276   5.435   5.264  0.5312  0.0986 -0.4579
 7408TIP3    H143715   3.333   5.512   5.266 -0.0570  0.5244  0.4733
 7408TIP3    H243716   3.334   5.361   5.276  1.2363  0.3146 -2.4050
 7409TIP3   OH243717   0.972   3.279   1.356  0.4691  0.3136 -0.0004
 7409TIP3    H143718   0.898   3.219   1.364  2.8823 -2.9279 -0.7824
 7409TIP3    H243719   0.986   3.287   1.261  0.6960  1.4677  0.1266
 7410TIP3   OH243720   3.104   6.703  12.395  0.4136  0.3239 -0.1087
 7410TIP3    H143721   3.163   6.632  12.419  0.2788  0.7476  1.5238
 7410TIP3    H243722   3.045   6.664  12.330  1.1323 -0.7060 -0.1494
 7411TIP3   OH243723   2.523   1.114   5.111  0.0700  0.0051  0.0449
 7411TIP3    H143724   2.450   1.174   5.125  1.4857  2.0913 -1.0431
 7411TIP3    H243725   2.551   1.133   5.021  1.3052 -1.4605  0.1139
 7412TIP3   OH243726   4.186   5.853   3.054 -0.0087 -0.3673 -0.2640
 7412TIP3    H143727   4.146   5.939   3.039 -0.4558 -0.3055  1.1409
 7412TIP3    H243728   4.127   5.810   3.116  1.2111 -0.9374  0.5317
 7413TIP3   OH243729   1.483   6.073   5.023 -0.5094  0.0647 -0.0501
 7413TIP3    H143730   1.391   6.051   5.033 -1.2811  2.5265 -1.3428
 7413TIP3    H243731   1.496   6.150   5.078  0.9188 -0.5719  0.5423
 7414TIP3   OH243732   4.136   2.704   3.891  0.4789  0.2879  0.3816
 7414TIP3    H143733   4.128   2.645   3.966  1.2544  2.0807  1.9058
 7414TIP3    H243734   4.230   2.708   3.873  0.4703  1.4522  0.5977
 7415TIP3   OH243735   3.411   3.986   5.439 -0.1421 -0.7341 -0.0228
 7415TIP3    H143736   3.463   3.908   5.419 -1.0274 -1.7469  1.5558
 7415TIP3    H243737   3.348   3.991   5.366  1.9226  0.3308 -1.7790
 7416TIP3   OH243738   2.709   6.633   4.091  0.1824 -0.1380  0.0520
 7416TIP3    H143739   2.729   6.540   4.086 -0.1181 -0.3180  1.9796
 7416TIP3    H243740   2.794   6.676   4.088  0.4380 -0.5679  1.0557
 7417TIP3   OH243741   0.456   1.573  11.935 -0.2931  0.0742  0.1287
 7417TIP3    H143742   0.483   1.599  11.847  1.2983 -0.6134  0.4026
 7417TIP3    H243743   0.475   1.649  11.990 -0.5914  0.2385  0.0025
 7418TIP3   OH243744   3.936   5.721   0.161  0.4787  0.4094  0.0173
 7418TIP3    H143745   3.943   5.763   0.247  0.8311  0.3746  0.0078
 7418TIP3    H243746   4.007   5.761   0.110  0.1623  0.5531 -0.3087
 7419TIP3   OH243747   6.655   2.169   6.368  0.5393 -0.2913 -0.7567
 7419TIP3    H143748   6.576   2.147   6.320 -0.0463 -0.8494  0.4274
 7419TIP3    H243749   6.675   2.259   6.342  0.5555 -0.7794 -2.4412
 7420TIP3   OH243750   5.558   6.203  13.403 -0.0383  0.4840 -0.5648
 7420TIP3    H143751   5.471   6.219  13.438  0.2661  1.3349 -0.1694
 7420TIP3    H243752   5.584   6.287  13.364  0.5015  0.1707 -0.8950
 7421TIP3   OH243753   1.639   2.049   6.052 -0.1611 -0.1260 -0.3461
 7421TIP3    H143754   1.594   2.076   5.972 -0.3325 -0.0611 -0.2282
 7421TIP3    H243755   1.723   2.016   6.022 -0.7952 -1.4765 -0.7017
 7422TIP3   OH243756   4.671   4.352  14.138  0.4887 -0.0351 -0.9530
 7422TIP3    H143757   4.580   4.334  14.113  1.0882 -3.2022 -1.1253
 7422TIP3    H243758   4.721   4.339  14.057  1.3893 -1.2655 -0.2246
 7423TIP3   OH243759   5.047   6.257   4.609 -0.2367 -0.1338 -0.1944
 7423TIP3    H143760   5.033   6.338   4.658 -1.6549 -0.1823 -0.4990
 7423TIP3    H243761   5.079   6.194   4.674  0.2848  0.5022  0.1628
 7424TIP3   OH243762   3.474   2.978   3.518 -0.1357 -0.1197 -0.2509
 7424TIP3    H143763   3.474   2.985   3.613  0.1111  2.1266 -0.3817
 7424TIP3    H243764   3.565   2.959   3.495  0.2132  1.3155 -0.1277
 7425TIP3   OH243765   2.598   5.887  13.619  0.2414 -0.1651 -0.0870
 7425TIP3    H143766   2.519   5.848  13.656 -0.6352  0.5958 -1.0915
 7425TIP3    H243767   2.657   5.899  13.693 -1.3661  1.0664  1.0316
 7426TIP3   OH243768   4.501   1.244   4.491  0.2433 -0.5019  0.3184
 7426TIP3    H143769   4.570   1.182   4.514  0.0336 -0.7436  0.2979
 7426TIP3    H243770   4.478   1.223   4.401 -1.3158 -1.8097  0.9905
 7427TIP3   OH243771   6.536   5.139   1.069 -0.1577 -0.6686 -0.3026
 7427TIP3    H143772   6.505   5.157   0.980 -1.8436 -3.3227 -0.3104
 7427TIP3    H243773   6.457   5.146   1.124  0.6953  0.0526  0.8576
 7428TIP3   OH243774   1.029   1.742   0.993 -0.7778  0.5054  0.2964
 7428TIP3    H143775   0.948   1.714   0.951 -0.9958 -0.3216  1.2681
 7428TIP3    H243776   1.001   1.804   1.061 -0.4393  1.7042 -0.6409
 7429TIP3   OH243777   6.187   0.560   1.025 -0.2420  0.1609 -0.3629
 7429TIP3    H143778   6.242   0.539   1.100 -0.9781 -1.2271 -0.1983
 7429TIP3    H243779   6.219   0.504   0.955 -0.9827 -0.1408 -0.4651
 7430TIP3   OH243780   6.129   1.227   1.738 -0.0390  0.2767  0.2674
 7430TIP3    H143781   6.160   1.316   1.753 -2.4061  1.1242  0.3839
 7430TIP3    H243782   6.080   1.231   1.656 -0.3652 -0.8503  0.3909
 7431TIP3   OH243783   2.958   5.389   4.987  0.2854 -0.0785  0.4368
 7431TIP3    H143784   3.009   5.438   4.922 -0.9150  0.6584  0.0320
 7431TIP3    H243785   2.971   5.438   5.069 -0.9242  0.9365  0.0288
 7432TIP3   OH243786   1.254   4.934  12.328  0.4238  0.1296  0.1122
 7432TIP3    H143787   1.268   4.979  12.244  0.0709  1.7211  0.8972
 7432TIP3    H243788   1.215   5.000  12.385  0.4945 -0.9919  1.4887
 7433TIP3   OH243789   2.263   3.078  14.474  0.2051 -0.0527  0.3064
 7433TIP3    H143790   2.191   3.141  14.482 -0.4243 -0.7891  0.5513
 7433TIP3    H243791   2.254   3.022  14.552  0.8505 -0.3509  0.1713
 7434TIP3   OH243792   0.029   6.245  16.234  0.3947 -0.4970 -0.1706
 7434TIP3    H143793   0.004   6.172  16.291  0.9414 -0.4559  0.1266
 7434TIP3    H243794  -0.052   6.269  16.189  0.4912 -2.2193 -1.3473
 7435TIP3   OH243795   3.800   3.699   0.360  0.3822 -0.1299  0.0356
 7435TIP3    H143796   3.812   3.711   0.265 -1.4866 -2.8178 -0.5997
 7435TIP3    H243797   3.706   3.684   0.370  0.2858  1.8610  2.5847
 7436TIP3   OH243798   4.486   2.716  15.526  0.9701 -0.3100  0.3347
 7436TIP3    H143799   4.489   2.811  15.525 -0.5787 -0.2502  0.0266
 7436TIP3    H243800   4.429   2.694  15.601 -1.2774 -0.8790 -1.4800
 7437TIP3   OH243801   4.565   3.613   3.738 -0.2016  0.0371 -0.1056
 7437TIP3    H143802   4.527   3.661   3.664  0.2582 -1.3855 -1.2943
 7437TIP3    H243803   4.659   3.612   3.720 -0.0507 -0.0437  0.6648
 7438TIP3   OH243804   4.021   0.602   1.878 -0.1353 -0.1270 -0.1476
 7438TIP3    H143805   3.979   0.644   1.803 -2.8807  1.6199  2.2399
 7438TIP3    H243806   4.098   0.657   1.896 -0.4958  0.5330 -0.5951
 7439TIP3   OH243807   1.575   5.953  12.699  0.6044 -0.5648  0.0185
 7439TIP3    H143808   1.591   6.019  12.766 -1.9383 -2.0554  2.2015
 7439TIP3    H243809   1.654   5.900  12.696  0.5251 -0.8340  2.2912
 7440TIP3   OH243810   1.302   1.052   5.003 -0.2185  0.5449  0.0464
 7440TIP3    H143811   1.329   1.076   5.091 -2.5830 -1.2262  1.2907
 7440TIP3    H243812   1.367   0.989   4.974  0.1033  0.5120  0.8349
 7441TIP3   OH243813   2.207   0.209   0.399  0.3314  0.0227 -0.0315
 7441TIP3    H143814   2.178   0.244   0.484  0.6512 -0.4626  0.2769
 7441TIP3    H243815   2.255   0.129   0.421  0.7419  0.1008 -0.6432
 7442TIP3   OH243816   2.247   4.531   0.145  0.6303  0.3709  0.4297
 7442TIP3    H143817   2.214   4.443   0.165  0.7462  0.0450 -0.7873
 7442TIP3    H243818   2.306   4.519   0.071 -2.5765  2.0201 -2.5590
 7443TIP3   OH243819   5.578   1.780  16.062  0.3517 -0.0493 -0.3131
 7443TIP3    H143820   5.630   1.818  15.991  0.8916  1.1787  0.7054
 7443TIP3    H243821   5.531   1.855  16.099  0.2973 -0.6289  0.7992
 7444TIP3   OH243822   5.767   1.396  17.233 -0.6914 -0.0118 -0.2562
 7444TIP3    H143823   5.792   1.414  17.142 -2.2070 -1.8416 -1.0782
 7444TIP3    H243824   5.734   1.306  17.231 -0.0153 -0.3520  2.2773
 7445TIP3   OH243825   6.202   0.632   2.163 -0.3070 -0.4046  0.8668
 7445TIP3    H143826   6.288   0.657   2.129 -1.1531  0.0012 -1.0106
 7445TIP3    H243827   6.190   0.687   2.241  1.3311 -0.8181  1.4398
 7446TIP3   OH243828   1.905   0.539   4.097 -0.1896 -0.0833  0.4482
 7446TIP3    H143829   1.996   0.568   4.095 -0.1405 -0.2241  0.5620
 7446TIP3    H243830   1.911   0.445   4.117 -0.3894  0.0470  1.1207
 7447TIP3   OH243831   3.689   2.331   4.287 -0.0922 -0.2257 -0.3698
 7447TIP3    H143832   3.672   2.348   4.195 -0.5835 -3.3076 -0.8963
 7447TIP3    H243833   3.611   2.285   4.318 -0.1267  1.1776  1.7081
 7448TIP3   OH243834   0.397   6.353   6.728  0.2304  0.3560 -0.1622
 7448TIP3    H143835   0.363   6.302   6.655 -0.9237  0.8307  0.0318
 7448TIP3    H243836   0.346   6.434   6.726  0.0573  0.2879  1.2902
 7449TIP3   OH243837   5.051   1.531  10.920  0.6227 -0.1615 -0.2804
 7449TIP3    H143838   5.139   1.543  10.883  0.1828  1.4207 -0.8580
 7449TIP3    H243839   4.993   1.531  10.844  0.0666 -0.6022  0.1447
 7450TIP3   OH243840   0.757   0.265  15.746  0.3807  0.3759  0.2431
 7450TIP3    H143841   0.720   0.333  15.801  2.4681  1.1997  0.6387
 7450TIP3    H243842   0.770   0.307  15.661  0.7374  0.1815  0.2009
 7451TIP3   OH243843   4.092   5.557   2.459  0.6890  0.7377 -0.4976
 7451TIP3    H143844   4.157   5.525   2.522  1.3407  1.8973 -0.5734
 7451TIP3    H243845   4.036   5.481   2.442  1.5083 -0.0397  0.2164
 7452TIP3   OH243846   5.614   5.793   1.581  0.6167  0.4554  0.0570
 7452TIP3    H143847   5.579   5.780   1.669 -0.5768  0.6078 -0.3946
 7452TIP3    H243848   5.703   5.758   1.586 -0.0632 -1.2317  0.8245
 7453TIP3   OH243849   6.670   0.004   0.407 -0.5422  0.3073  0.0784
 7453TIP3    H143850   6.588  -0.046   0.413 -0.1750 -0.1537  1.3764
 7453TIP3    H243851   6.736  -0.054   0.445  0.6081  0.2264 -1.9533
 7454TIP3   OH243852   0.386   6.358   5.601 -0.1204  0.2308 -0.5863
 7454TIP3    H143853   0.475   6.363   5.566  0.9706 -0.8675  1.9319
 7454TIP3    H243854   0.362   6.266   5.589 -0.7998  0.4432 -0.9016
 7455TIP3   OH243855   3.572   2.769  15.348  0.5555 -0.1869  0.0909
 7455TIP3    H143856   3.505   2.794  15.412  1.6808 -1.6663  1.8826
 7455TIP3    H243857   3.637   2.839  15.352  1.2952 -0.9456  1.5731
 7456TIP3   OH243858   4.192   5.971  13.704  0.0302 -0.0023  0.8042
 7456TIP3    H143859   4.215   5.902  13.766  0.4453 -0.1963  0.4431
 7456TIP3    H243860   4.222   5.938  13.619  1.3250  1.1207  0.7949
 7457TIP3   OH243861   4.916   3.319  12.157  0.2699  0.4249  0.1180
 7457TIP3    H143862   4.863   3.319  12.237 -0.7806  0.9303 -0.5674
 7457TIP3    H243863   4.940   3.411  12.144 -0.3256  0.4775 -0.6437
 7458TIP3   OH243864   2.514   0.705   3.181 -0.1579 -0.2086  0.0071
 7458TIP3    H143865   2.480   0.736   3.265 -0.3538 -0.6925  0.1088
 7458TIP3    H243866   2.575   0.635   3.204  0.4754  0.2690 -0.2078
 7459TIP3   OH243867   1.025   3.764  15.724  0.2231 -0.8526 -0.2957
 7459TIP3    H143868   1.074   3.745  15.644 -0.6776 -0.8636 -0.8597
 7459TIP3    H243869   0.946   3.711  15.716  0.6927 -1.7912  1.1935
 7460TIP3   OH243870   0.183   4.471  14.305  0.0620  0.7162 -0.3624
 7460TIP3    H143871   0.261   4.508  14.347  0.2872  0.8507 -0.8961
 7460TIP3    H243872   0.199   4.482  14.211  0.6004 -1.6691 -0.5723
 7461TIP3   OH243873   2.744   0.776   1.526 -0.4844  0.1738 -0.1541
 7461TIP3    H143874   2.809   0.845   1.540 -0.4578  0.1791 -0.2999
 7461TIP3    H243875   2.710   0.794   1.438 -0.4500 -0.0228 -0.2065
 7462TIP3   OH243876   6.730   0.097   1.490  0.0415  0.5485 -0.1556
 7462TIP3    H143877   6.810   0.130   1.532 -0.8284  0.2491  1.7782
 7462TIP3    H243878   6.664   0.164   1.509 -0.6987 -0.2595  0.1354
 7463TIP3   OH243879   5.979   4.201  11.688  0.5037 -0.4617 -0.3362
 7463TIP3    H143880   6.007   4.258  11.760  0.5105  0.5065 -1.0965
 7463TIP3    H243881   5.893   4.236  11.662  2.1398  1.5827 -3.2838
 7464TIP3   OH243882   5.802   2.922  17.220 -0.1653  0.3142 -0.0624
 7464TIP3    H143883   5.779   2.996  17.276 -1.2481  0.1065 -0.2277
 7464TIP3    H243884   5.729   2.914  17.158 -0.5241 -1.4635  0.5377
 7465TIP3   OH243885   0.135   5.778   6.066 -0.0820  0.4141 -0.5816
 7465TIP3    H143886   0.089   5.728   5.999  0.7099 -0.3325 -0.5890
 7465TIP3    H243887   0.152   5.714   6.136  1.4473  0.5255 -0.8364
 7466TIP3   OH243888   5.003   4.356  14.914  0.1117 -0.8683  0.0818
 7466TIP3    H143889   5.080   4.401  14.949 -0.2329  0.4085 -0.7615
 7466TIP3    H243890   5.025   4.263  14.920  0.9981 -0.5787  1.4782
 7467TIP3   OH243891   4.333   4.367  16.024 -0.5233  0.1983  0.6368
 7467TIP3    H143892   4.339   4.437  15.958  1.2655 -0.2374  0.3054
 7467TIP3    H243893   4.348   4.286  15.975  0.2715 -0.1727  1.4649
 7468TIP3   OH243894   1.331   5.095  15.095 -0.5225 -0.9748  0.3028
 7468TIP3    H143895   1.405   5.039  15.072 -0.3241 -0.5319 -0.1745
 7468TIP3    H243896   1.324   5.089  15.190  1.8445  1.0859  0.6516
 7469TIP3   OH243897   0.505   1.926  16.385 -0.1183  0.2653  0.4175
 7469TIP3    H143898   0.590   1.932  16.342  0.4349  1.3631  1.6392
 7469TIP3    H243899   0.525   1.908  16.477 -1.1746  1.1630  0.8355
 7470TIP3   OH243900   2.326   0.960   2.097 -0.1737  0.2560  0.0366
 7470TIP3    H143901   2.369   0.956   2.011  0.6802  0.1557  0.4682
 7470TIP3    H243902   2.311   1.054   2.112 -1.4056  0.2028 -0.7470
 7471TIP3   OH243903   3.542   1.056  10.797 -0.0347  0.4995  0.3367
 7471TIP3    H143904   3.522   1.046  10.704  0.8325  1.2586  0.0684
 7471TIP3    H243905   3.493   0.985  10.839  0.2947 -0.4203 -0.7869
 7472TIP3   OH243906   3.551   5.885   3.553 -0.5015  0.2651 -0.7387
 7472TIP3    H143907   3.544   5.864   3.646 -1.0263  0.7642 -0.6590
 7472TIP3    H243908   3.473   5.845   3.514  0.2230 -0.7921 -1.1275
 7473TIP3   OH243909   6.689   6.288   4.558 -0.1705  0.7143 -0.1411
 7473TIP3    H143910   6.778   6.323   4.552  0.2928 -0.4430 -0.1949
 7473TIP3    H243911   6.699   6.203   4.601 -1.3965  1.1056  0.9756
 7474TIP3   OH243912   6.090   0.652  10.964 -0.0908 -0.0723  0.4394
 7474TIP3    H143913   6.005   0.690  10.983 -0.0762  0.4679 -0.5167
 7474TIP3    H243914   6.101   0.583  11.029 -0.6855  0.7120  1.3906
 7475TIP3   OH243915   2.119   1.669  13.143  0.2258  0.1836 -0.0840
 7475TIP3    H143916   2.042   1.618  13.118  1.2012 -1.7911  0.7597
 7475TIP3    H243917   2.187   1.640  13.083  1.1382 -0.5075  1.2468
 7476TIP3   OH243918   4.411   0.573  14.544 -0.2101 -0.1361 -0.0891
 7476TIP3    H143919   4.332   0.597  14.593 -0.7645 -1.5777 -0.2267
 7476TIP3    H243920   4.463   0.653  14.542 -2.2337  1.2094 -1.0906
 7477TIP3   OH243921   0.452   5.549   2.558 -0.4768 -0.0864  0.6095
 7477TIP3    H143922   0.446   5.598   2.477 -0.7715  2.2619  2.0117
 7477TIP3    H243923   0.362   5.527   2.581 -0.4866  0.2163  0.8674
 7478TIP3   OH243924   1.258   4.369   5.188 -0.3793 -0.6349  0.0845
 7478TIP3    H143925   1.291   4.361   5.277  0.0719 -1.2603 -0.1344
 7478TIP3    H243926   1.163   4.376   5.198 -0.3030 -0.3950  0.6306
 7479TIP3   OH243927   0.422   5.912  15.979  0.0366 -0.1934  0.3022
 7479TIP3    H143928   0.442   5.868  15.897 -1.4226  1.1262 -0.8000
 7479TIP3    H243929   0.327   5.907  15.987  0.0026  1.2295  1.0050
 7480TIP3   OH243930   0.043   2.813  15.924 -0.3853  0.2603 -0.3401
 7480TIP3    H143931   0.066   2.731  15.969 -0.6104 -0.4546 -1.5140
 7480TIP3    H243932   0.097   2.879  15.967  2.4262 -1.0748 -1.6785
 7481TIP3   OH243933   1.189   2.588   6.141 -1.0225 -0.1041  0.0980
 7481TIP3    H143934   1.115   2.621   6.192 -0.9266  0.5794 -0.1926
 7481TIP3    H243935   1.266   2.621   6.187 -0.9524  1.1769 -0.9219
 7482TIP3   OH243936   5.630   2.472   0.101  0.4192  0.4609  0.1873
 7482TIP3    H143937   5.707   2.496   0.049  0.4111 -1.0855 -0.5849
 7482TIP3    H243938   5.612   2.381   0.075 -1.6531  0.8048  0.3707
 7483TIP3   OH243939   1.959   0.461   3.011  0.1562  0.3672 -0.6544
 7483TIP3    H143940   1.912   0.396   2.959 -0.2952  0.5180 -0.4322
 7483TIP3    H243941   1.894   0.497   3.071  0.7430 -0.0085  0.2107
 7484TIP3   OH243942   3.491   6.094  14.908  0.2736  0.3638 -0.5803
 7484TIP3    H143943   3.489   6.076  14.814 -0.3492  2.1512 -0.9245
 7484TIP3    H243944   3.528   6.015  14.946 -0.3708 -0.7751 -2.2347
 7485TIP3   OH243945   1.495   0.193  14.839  0.6168 -0.1958  0.2316
 7485TIP3    H143946   1.442   0.219  14.914 -0.6686 -0.7094 -0.4782
 7485TIP3    H243947   1.446   0.227  14.763  0.2434 -2.4028 -0.5509
 7486TIP3   OH243948   2.066   3.799   3.799 -0.6862 -0.3583  0.4208
 7486TIP3    H143949   2.001   3.730   3.812 -0.5641 -0.4173  0.7162
 7486TIP3    H243950   2.119   3.768   3.725 -0.7484 -0.4912  0.4318
 7487TIP3   OH243951   2.373   3.240   4.454 -0.6386 -0.2431  0.0231
 7487TIP3    H143952   2.279   3.260   4.447 -0.4476 -0.1049 -2.9517
 7487TIP3    H243953   2.389   3.178   4.383  1.0085 -2.4401  2.2376
 7488TIP3   OH243954   2.030   4.829   5.601 -0.0422 -0.5127  0.3278
 7488TIP3    H143955   2.004   4.913   5.639  3.6166  1.0999 -0.5491
 7488TIP3    H243956   2.032   4.845   5.507 -1.9045 -2.4037 -0.0734
 7489TIP3   OH243957   4.122   0.738   3.549  0.0568 -0.7595  0.4245
 7489TIP3    H143958   4.057   0.787   3.598  0.7876 -0.6850  1.3220
 7489TIP3    H243959   4.119   0.775   3.461 -0.1942  0.1124  0.8033
 7490TIP3   OH243960   2.931   2.577   2.332 -0.2166 -0.1490  0.0605
 7490TIP3    H143961   2.985   2.563   2.410 -0.8190  0.6865  0.6277
 7490TIP3    H243962   2.942   2.497   2.281  0.9958 -0.2836  0.5156
 7491TIP3   OH243963   3.105   0.149  17.205 -0.2074 -0.3784  0.2715
 7491TIP3    H143964   3.093   0.219  17.269 -0.0632 -0.3677  0.2862
 7491TIP3    H243965   3.027   0.094  17.215 -0.4413 -0.0808  0.0865
 7492TIP3   OH243966   3.097   2.314   4.302 -0.0762 -0.6718 -0.3207
 7492TIP3    H143967   3.124   2.404   4.284 -1.4670 -0.0678  0.5342
 7492TIP3    H243968   3.133   2.263   4.229 -1.1494  0.9125 -1.9996
 7493TIP3   OH243969   0.905   4.421   1.008 -0.0870  0.0985 -0.1988
 7493TIP3    H143970   0.922   4.429   0.914 -0.1712 -0.9797 -0.3067
 7493TIP3    H243971   0.986   4.449   1.050  0.4570 -0.8227 -0.6258
 7494TIP3   OH243972   6.705   5.799  11.488 -0.1444 -0.0947  0.3396
 7494TIP3    H143973   6.613   5.772  11.495 -0.4842  0.9012 -0.2707
 7494TIP3    H243974   6.703   5.878  11.435  1.2797 -1.2899 -1.5868
 7495TIP3   OH243975   4.536   0.593  17.003 -0.3660  0.1393  0.1157
 7495TIP3    H143976   4.573   0.562  16.921 -0.8715 -1.5016  0.5031
 7495TIP3    H243977   4.538   0.517  17.061  1.1315  1.5842  2.0394
 7496TIP3   OH243978   0.445   4.104  16.494 -0.1236 -0.1494  0.3904
 7496TIP3    H143979   0.490   4.177  16.452  2.6207 -0.4043  2.7443
 7496TIP3    H243980   0.448   4.033  16.429 -0.7031  1.0515 -0.9811
 7497TIP3   OH243981   2.413   3.126   2.841 -0.2333  0.2770  0.0264
 7497TIP3    H143982   2.381   3.040   2.867 -2.1284  0.9507  0.0200
 7497TIP3    H243983   2.507   3.124   2.860 -0.4774 -1.3564  1.1466
 7498TIP3   OH243984   5.221   2.883   0.344  0.5990  0.1513  0.3389
 7498TIP3    H143985   5.302   2.866   0.392 -0.9688 -2.7776  2.0742
 7498TIP3    H243986   5.244   2.871   0.252  2.3723  0.4111  0.7341
 7499TIP3   OH243987   3.365   0.050  17.213  0.4029 -0.9132 -0.4493
 7499TIP3    H143988   3.366  -0.046  17.208 -1.3610 -1.0732  1.8066
 7499TIP3    H243989   3.272   0.073  17.217  0.7473  1.0095 -2.4376
 7500TIP3   OH243990   3.470   5.259   5.201 -0.2290 -0.4872 -0.2405
 7500TIP3    H143991   3.470   5.182   5.257  0.8662 -1.1490 -1.1367
 7500TIP3    H243992   3.434   5.229   5.117 -2.3281  0.6107  0.2263
 7501TIP3   OH243993   1.508   4.048   0.701 -0.1269  0.1757  0.1138
 7501TIP3    H143994   1.575   4.101   0.657  1.2100 -1.1213  0.5489
 7501TIP3    H243995   1.533   4.051   0.793  0.3143 -1.7035  0.0639
 7502TIP3   OH243996   2.458   0.935   0.091  0.3830 -0.3246  0.2118
 7502TIP3    H143997   2.511   1.005   0.128 -0.5521 -0.3521  1.6227
 7502TIP3    H243998   2.369   0.970   0.089  0.2278 -0.7544 -0.9226
 7503TIP3   OH243999   3.948   5.321   5.073  0.4232 -0.1748  0.2874
 7503TIP3    H144000   3.887   5.328   5.000 -0.1315  2.0479  0.9345
 7503TIP3    H244001   4.033   5.308   5.032  0.2242  1.7991 -0.7965
 7504TIP3   OH244002   4.700   3.627   1.866  0.2364  0.2700 -0.3015
 7504TIP3    H144003   4.760   3.640   1.793  0.4131  1.5321  0.0522
 7504TIP3    H244004   4.616   3.659   1.835  0.6777  2.3682  0.5873
 7505TIP3   OH244005   5.254   5.449   1.443  0.2020 -0.1037  0.0331
 7505TIP3    H144006   5.322   5.387   1.471  0.9767  0.5026 -0.5008
 7505TIP3    H244007   5.200   5.399   1.383 -0.7766 -1.0686  1.6638
 7506TIP3   OH244008   1.453   1.456  14.877 -0.2180  0.3047  0.0793
 7506TIP3    H144009   1.477   1.460  14.969 -0.8848  0.4229  0.2463
 7506TIP3    H244010   1.523   1.505  14.832 -0.5194  1.2617  0.6405
 7507TIP3   OH244011   1.781   3.201  16.834  0.7366 -0.0629  0.2700
 7507TIP3    H144012   1.866   3.244  16.834  1.3137 -1.1680  1.1079
 7507TIP3    H244013   1.778   3.154  16.750  0.1459  1.4829 -0.6011
 7508TIP3   OH244014   1.124   5.378  12.735  0.1045  0.3818 -0.4296
 7508TIP3    H144015   1.168   5.463  12.727  1.2767 -0.0592  0.9985
 7508TIP3    H244016   1.143   5.350  12.825  2.4322 -2.8557 -1.8537
 7509TIP3   OH244017   0.761   3.152   4.553  0.2232  0.3548  0.4959
 7509TIP3    H144018   0.790   3.128   4.642  0.4034 -0.1542  0.3063
 7509TIP3    H244019   0.703   3.080   4.527 -2.1963  1.9408  1.3249
 7510TIP3   OH244020   2.026   2.649  16.291  0.8170  1.1482 -0.6300
 7510TIP3    H144021   2.084   2.595  16.237  1.0771 -2.2974  2.8901
 7510TIP3    H244022   1.940   2.608  16.281  0.6199  1.2622  0.5850
 7511TIP3   OH244023   6.294   4.255   0.085  0.1414  0.4703  0.2315
 7511TIP3    H144024   6.232   4.269   0.013 -1.9620 -1.5204  1.5466
 7511TIP3    H244025   6.319   4.343   0.113 -1.3706  1.3161 -0.9672
 7512TIP3   OH244026   3.334   3.706   1.373 -0.5213 -0.1649 -0.3838
 7512TIP3    H144027   3.345   3.756   1.454 -1.3509 -1.2429  0.3906
 7512TIP3    H244028   3.293   3.768   1.312  1.2128  1.0249 -0.3842
 7513TIP3   OH244029   5.439   2.571  10.951 -0.5618 -0.0259  0.1132
 7513TIP3    H144030   5.345   2.549  10.948 -0.9188  1.3631  0.9942
 7513TIP3    H244031   5.442   2.666  10.941  0.7640 -0.0575  0.1550
 7514TIP3   OH244032   4.385   3.970   3.044 -0.1851 -0.0637  0.5057
 7514TIP3    H144033   4.384   3.905   3.115 -0.3928  0.3300  0.8673
 7514TIP3    H244034   4.337   3.927   2.972 -0.3961 -0.2799  0.7715
 7515TIP3   OH244035   4.141   1.814  15.452  0.9038  0.5143  0.2146
 7515TIP3    H144036   4.066   1.866  15.482  0.2956  0.3467 -1.0101
 7515TIP3    H244037   4.217   1.855  15.495  0.6586  3.5394 -2.0138
 7516TIP3   OH244038   3.937   6.014  11.423  0.3482  0.1346 -0.7756
 7516TIP3    H144039   3.925   5.984  11.514 -0.8475 -1.2111 -1.3633
 7516TIP3    H244040   4.011   5.962  11.391 -1.8903 -2.5389 -1.8785
 7517TIP3   OH244041   5.066   2.055   4.023  0.9059  0.1330 -0.0393
 7517TIP3    H144042   4.983   2.093   3.994  1.6690 -0.1200 -2.7747
 7517TIP3    H244043   5.097   2.114   4.092 -0.2768  1.7214 -0.8208
 7518TIP3   OH244044   2.139   6.784  15.409 -0.9955  0.0015  0.4392
 7518TIP3    H144045   2.176   6.709  15.454 -1.9789  0.2063  1.6344
 7518TIP3    H244046   2.155   6.767  15.316 -0.4362 -1.2510  0.7534
 7519TIP3   OH244047   1.039   6.335   1.683  0.0851 -0.3257 -0.3835
 7519TIP3    H144048   1.067   6.426   1.693 -1.2204  0.0325  0.0577
 7519TIP3    H244049   1.055   6.296   1.769  0.6198 -0.5176 -0.5653
 7520TIP3   OH244050   4.286   2.685  16.008  0.1882 -0.0357 -0.4104
 7520TIP3    H144051   4.195   2.702  16.031 -0.0158 -1.1113 -0.4352
 7520TIP3    H244052   4.334   2.760  16.045 -0.5990  0.1202  0.3076
 7521TIP3   OH244053   2.307   2.031   0.791 -0.2963  0.5419  0.1208
 7521TIP3    H144054   2.240   1.962   0.790  0.1580  0.1137 -0.6858
 7521TIP3    H244055   2.385   1.990   0.756  0.3982  1.0562  1.0526
 7522TIP3   OH244056   4.341   0.569   3.636  0.4367  0.2741 -0.3746
 7522TIP3    H144057   4.282   0.644   3.628  0.2616  0.5781  3.0655
 7522TIP3    H244058   4.286   0.494   3.612  0.3773  1.0884 -2.9954
 7523TIP3   OH244059   6.539   0.233   2.531 -0.3991 -0.2135 -0.5615
 7523TIP3    H144060   6.621   0.227   2.581 -0.8316  0.9818  0.3233
 7523TIP3    H244061   6.551   0.309   2.474 -0.8237 -0.1427 -0.5572
 7524TIP3   OH244062   0.875   0.211   4.680 -0.2133  0.3132  0.7466
 7524TIP3    H144063   0.818   0.287   4.694 -0.4569 -0.0806  1.9728
 7524TIP3    H244064   0.853   0.181   4.592 -0.9582  0.9636  0.7016
 7525TIP3   OH244065   2.904   2.593   0.240 -0.7203  0.0541  0.8361
 7525TIP3    H144066   2.949   2.591   0.155 -1.3009  0.4744  0.5166
 7525TIP3    H244067   2.942   2.520   0.289 -0.3182 -0.1363  0.2472
 7526TIP3   OH244068   2.500   1.799   4.237  0.0634 -0.0956 -0.3983
 7526TIP3    H144069   2.461   1.875   4.280  1.1945  0.7231 -0.7676
 7526TIP3    H244070   2.463   1.799   4.149 -0.5649 -0.4679 -0.1385
 7527TIP3   OH244071   2.071   3.068  13.266  0.6745 -0.2789  0.3868
 7527TIP3    H144072   2.133   3.137  13.240 -0.0800  0.6687  1.0854
 7527TIP3    H244073   2.125   2.990  13.272  1.3196 -0.0325 -1.6726
 7528TIP3   OH244074   0.157   4.622   4.620 -0.1758 -0.2021 -0.1278
 7528TIP3    H144075   0.173   4.634   4.527  1.0447 -1.3670 -0.0816
 7528TIP3    H244076   0.074   4.667   4.636  0.3280  1.2281 -1.4759
 7529TIP3   OH244077   1.323   2.605  14.912  0.0983  0.2578  0.2174
 7529TIP3    H144078   1.316   2.518  14.871 -0.2705 -0.2205  1.2907
 7529TIP3    H244079   1.247   2.611  14.969 -0.9522  2.0885 -1.3027
 7530TIP3   OH244080   2.765   3.545  16.768  0.2306  0.3105  0.4840
 7530TIP3    H144081   2.700   3.475  16.759  1.3725 -0.6616 -0.2690
 7530TIP3    H244082   2.775   3.581  16.680  0.7806  0.3921  0.5764
 7531TIP3   OH244083   2.100   6.138   5.190 -0.1151  0.2677  0.5997
 7531TIP3    H144084   2.149   6.061   5.162  0.5100  1.4063 -1.6338
 7531TIP3    H244085   2.012   6.125   5.156  0.0887  0.6884 -0.1043
 7532TIP3   OH244086   2.529   4.795   3.678  0.4134  0.8558 -0.1462
 7532TIP3    H144087   2.567   4.882   3.674 -1.1330  1.5813  0.2559
 7532TIP3    H244088   2.514   4.780   3.772  3.2762 -1.0304  0.0571
 7533TIP3   OH244089   2.115   4.792  12.662  0.0682  0.3473 -0.1633
 7533TIP3    H144090   2.068   4.825  12.585  0.1208 -0.4608 -0.5529
 7533TIP3    H244091   2.050   4.739  12.708 -0.8728  3.2659  1.9965
 7534TIP3   OH244092   4.610   6.681   0.739 -0.0968 -0.5119  0.0340
 7534TIP3    H144093   4.569   6.766   0.728  1.5070  0.5444  1.9149
 7534TIP3    H244094   4.539   6.622   0.764 -0.8715  0.7157  0.7379
 7535TIP3   OH244095   2.366   2.540   5.933  0.0677 -0.5768  0.4349
 7535TIP3    H144096   2.322   2.474   5.987 -0.0206 -0.7984  0.0926
 7535TIP3    H244097   2.430   2.491   5.881  0.2413 -0.3470  0.4296
 7536TIP3   OH244098   0.528   3.963   5.919 -0.2008 -0.7306 -0.0608
 7536TIP3    H144099   0.491   4.046   5.950  4.8098  1.8419 -0.3234
 7536TIP3    H244100   0.530   3.907   5.996  0.0866  0.8913  1.1364
 7537TIP3   OH244101   5.349   0.489   5.535  0.2991 -0.0332 -0.7356
 7537TIP3    H144102   5.376   0.521   5.621  0.6228 -0.6042 -0.6246
 7537TIP3    H244103   5.254   0.482   5.541  0.4465 -1.5531  0.0979
 7538TIP3   OH244104   2.487   6.732   2.650 -0.3165 -0.2477 -0.3589
 7538TIP3    H144105   2.502   6.789   2.575 -0.7218  0.7911  0.3271
 7538TIP3    H244106   2.491   6.643   2.615  1.2301  0.1749 -1.2752
 7539TIP3   OH244107   5.946   5.512  11.592  0.2124 -0.5544  0.1064
 7539TIP3    H144108   5.853   5.491  11.603  0.1997 -1.5313 -1.6530
 7539TIP3    H244109   5.976   5.452  11.523  2.5216 -1.2635  1.6948
 7540TIP3   OH244110   6.123   3.313   1.466  0.0667 -0.1214  0.4714
 7540TIP3    H144111   6.099   3.343   1.378  0.5144 -1.4086 -0.1088
 7540TIP3    H244112   6.052   3.344   1.522 -1.6542 -1.6688 -0.7992
 7541TIP3   OH244113   6.250   1.403  15.348  0.5954 -0.6910  0.0373
 7541TIP3    H144114   6.158   1.392  15.371 -0.0366 -0.7251 -2.4288
 7541TIP3    H244115   6.275   1.487  15.386 -0.5625 -0.4786  0.3267
 7542TIP3   OH244116   0.529   3.744   5.718  0.1063  0.2916  0.0338
 7542TIP3    H144117   0.554   3.822   5.769 -4.2861  1.0525  1.1793
 7542TIP3    H244118   0.585   3.674   5.754  2.7542  2.4418  0.3000
 7543TIP3   OH244119   3.430   6.296   5.830 -0.0784 -0.2941 -0.0543
 7543TIP3    H144120   3.453   6.377   5.786 -1.4254 -0.3680 -0.9105
 7543TIP3    H244121   3.341   6.309   5.862 -0.0727 -1.1988  0.3763
 7544TIP3   OH244122   4.506   1.863   3.550  0.0272  0.3439 -0.1131
 7544TIP3    H144123   4.449   1.791   3.526  0.7266  0.1298 -1.1465
 7544TIP3    H244124   4.534   1.842   3.640 -1.2737  0.3165  0.2968
 7545TIP3   OH244125   6.760   1.757  10.765  0.4333  0.1744 -0.3384
 7545TIP3    H144126   6.851   1.761  10.734  0.9877  2.8229  1.4473
 7545TIP3    H244127   6.752   1.832  10.823 -2.4586 -0.9725  0.7997
 7546TIP3   OH244128   5.466   0.938   2.240  0.3969  0.0260 -0.2310
 7546TIP3    H144129   5.533   0.872   2.255  0.7058  0.8160  2.1614
 7546TIP3    H244130   5.489   0.978   2.156  2.5350 -0.1796  0.2361
 7547TIP3   OH244131   2.200   0.053  12.612 -0.2165 -0.3286 -0.6100
 7547TIP3    H144132   2.296   0.056  12.609 -0.2231 -0.7548 -1.4848
 7547TIP3    H244133   2.173   0.083  12.525 -0.8994  0.4870 -0.1197
 7548TIP3   OH244134   0.676   1.342  13.456 -0.3062 -0.6202 -0.7277
 7548TIP3    H144135   0.631   1.260  13.476  0.7793 -0.9267  0.4911
 7548TIP3    H244136   0.642   1.404  13.521 -0.9948 -0.1358 -1.5367
 7549TIP3   OH244137   5.867   0.359  15.065  0.4585  0.6961 -0.5382
 7549TIP3    H144138   5.958   0.333  15.053  0.5706  0.2175  1.1151
 7549TIP3    H244139   5.867   0.405  15.149 -0.9741 -0.0664 -0.1066
 7550TIP3   OH244140   2.020   3.919  14.197  0.3342 -0.0224 -0.7819
 7550TIP3    H144141   2.077   3.995  14.195  0.1575  0.2164  1.3681
 7550TIP3    H244142   2.073   3.851  14.241 -0.3332 -0.3924 -0.5416
 7551TIP3   OH244143   4.059   6.333  11.439 -0.2850  0.0948  0.4326
 7551TIP3    H144144   4.033   6.403  11.499  0.9399 -1.3248  2.6791
 7551TIP3    H244145   4.138   6.366  11.396 -0.4150  0.5896  0.5708
 7552TIP3   OH244146   2.349   5.706   5.082  0.3631  0.5906  0.4465
 7552TIP3    H144147   2.317   5.640   5.144 -2.0766  1.4446  0.1553
 7552TIP3    H244148   2.274   5.765   5.069  1.4135  1.4639 -1.9209
 7553TIP3   OH244149   6.569   1.013  15.881  0.0438 -0.3829  0.4156
 7553TIP3    H144150   6.599   1.023  15.791 -0.7368 -1.3904  0.0260
 7553TIP3    H244151   6.477   0.988  15.873  0.0912 -0.9483  1.4702
 7554TIP3   OH244152   1.559   4.362  13.309 -0.5534 -0.2246  0.2449
 7554TIP3    H144153   1.501   4.362  13.232  1.5138 -0.4704 -1.3408
 7554TIP3    H244154   1.499   4.351  13.383 -2.6490  0.6307 -1.2681
 7555TIP3   OH244155   6.322   4.990   4.525  0.4815 -0.5502  0.2088
 7555TIP3    H144156   6.369   5.048   4.585  1.7228 -0.9053 -0.3938
 7555TIP3    H244157   6.271   4.932   4.582  2.8485 -1.9238  1.0139
 7556TIP3   OH244158   3.123   2.618   6.536 -0.0528  0.1637 -0.4422
 7556TIP3    H144159   3.117   2.525   6.511  1.8880  0.3815 -1.7964
 7556TIP3    H244160   3.215   2.640   6.524 -0.4956  2.2701 -0.0815
 7557TIP3   OH244161   5.669   1.532  15.930  0.6342 -0.4501 -0.2517
 7557TIP3    H144162   5.636   1.617  15.959 -3.0354 -1.3752 -1.3609
 7557TIP3    H244163   5.738   1.553  15.867  0.2886  1.6865  0.0466
 7558TIP3   OH244164   6.669   1.887  16.553 -0.2801 -0.1482  0.1723
 7558TIP3    H144165   6.649   1.965  16.606 -0.9235 -0.2839  0.1386
 7558TIP3    H244166   6.632   1.907  16.467  2.0643  0.6904 -0.6749
 7559TIP3   OH244167   0.626   6.495   0.766  0.0395 -0.3815  0.7007
 7559TIP3    H144168   0.626   6.472   0.673 -0.6928 -1.0116  0.8499
 7559TIP3    H244169   0.557   6.562   0.775  2.7723  2.6295  0.1074
 7560TIP3   OH244170   3.245   2.728   3.000 -0.4054 -0.1837 -0.0654
 7560TIP3    H144171   3.264   2.774   3.082  0.5332 -1.2358  0.3243
 7560TIP3    H244172   3.271   2.637   3.017  0.5653 -0.2510 -1.7828
 7561TIP3   OH244173   2.712   4.805  13.369  0.7020  0.4320  0.5349
 7561TIP3    H144174   2.792   4.756  13.388 -0.4024 -1.6736 -0.0472
 7561TIP3    H244175   2.661   4.746  13.313 -1.1055  1.8815  0.6206
 7562TIP3   OH244176   3.424   3.337  13.037 -0.3240  0.6773 -0.9257
 7562TIP3    H144177   3.497   3.385  12.997  0.1767 -0.6471 -1.6438
 7562TIP3    H244178   3.397   3.275  12.969 -0.9951 -0.0154 -0.0316
 7563TIP3   OH244179   3.398   2.302   6.180  0.0749 -0.3516  0.2341
 7563TIP3    H144180   3.373   2.347   6.260  0.3609  0.8565 -0.3520
 7563TIP3    H244181   3.446   2.367   6.129 -0.9764 -0.8020 -1.3682
 7564TIP3   OH244182   1.557   1.319   4.058 -0.4114  0.4337  0.5411
 7564TIP3    H144183   1.592   1.278   3.979 -0.2375  1.6796 -0.0322
 7564TIP3    H244184   1.469   1.282   4.066 -0.0723 -0.4412  0.3261
 7565TIP3   OH244185   1.736   4.244   4.474  0.4471  0.2225 -0.1354
 7565TIP3    H144186   1.778   4.261   4.389  0.9482 -1.8893 -0.3260
 7565TIP3    H244187   1.691   4.161   4.462  1.5317 -0.7217  2.0512
 7566TIP3   OH244188   5.260   5.916   5.287 -0.1135 -0.4872 -0.2681
 7566TIP3    H144189   5.306   5.842   5.247  2.3654  1.3267 -0.8285
 7566TIP3    H244190   5.326   5.984   5.296 -2.0237  1.1793  1.5980
 7567TIP3   OH244191   2.934   0.980   1.592  0.1099  0.0591 -0.1723
 7567TIP3    H144192   2.937   0.937   1.677 -1.8359  0.1338 -0.0647
 7567TIP3    H244193   2.900   1.068   1.610  0.7365  0.4555 -0.8817
 7568TIP3   OH244194   4.282   6.776  12.665 -0.1846  0.0435  0.7981
 7568TIP3    H144195   4.241   6.862  12.657 -0.9306 -0.3857 -0.1318
 7568TIP3    H244196   4.273   6.752  12.757  1.3610  1.6121  1.3764
 7569TIP3   OH244197   3.136   4.720   3.830 -0.3734 -0.6360  0.3000
 7569TIP3    H144198   3.056   4.678   3.860  0.8574 -1.6666  2.1711
 7569TIP3    H244199   3.191   4.727   3.907  2.4863 -2.5045 -1.4741
 7570TIP3   OH244200   2.932   6.573   4.760  0.4159  0.1232 -0.2992
 7570TIP3    H144201   2.854   6.576   4.705 -0.5776  0.8647  1.1222
 7570TIP3    H244202   2.899   6.563   4.849  2.0456 -2.1867  0.1045
 7571TIP3   OH244203   1.714   5.616  12.845 -0.0438  0.1908  0.5145
 7571TIP3    H144204   1.806   5.637  12.829  0.1265 -1.0015 -0.1168
 7571TIP3    H244205   1.716   5.529  12.886 -0.8774  0.2257  0.6408
 7572TIP3   OH244206   3.672   0.856  12.739  0.3634 -0.3687  0.0442
 7572TIP3    H144207   3.727   0.803  12.682  0.1872 -1.3373  0.7714
 7572TIP3    H244208   3.621   0.910  12.679 -0.1176 -1.6582 -0.7278
 7573TIP3   OH244209   5.174   5.066  11.182  0.2264 -0.8565  0.0626
 7573TIP3    H144210   5.187   5.016  11.102 -2.5783 -1.1491 -0.2789
 7573TIP3    H244211   5.201   5.008  11.252  2.8686 -0.5344 -0.6557
 7574TIP3   OH244212   4.271   6.467  11.816  0.3163 -0.4117 -0.0884
 7574TIP3    H144213   4.240   6.393  11.868  1.3208 -1.2817 -0.6907
 7574TIP3    H244214   4.193   6.501  11.773 -0.0755 -1.5247 -0.2785
 7575TIP3   OH244215   6.441   5.299   1.683 -0.0051 -0.2299  0.5087
 7575TIP3    H144216   6.416   5.260   1.600  0.0992  0.6696  0.0492
 7575TIP3    H244217   6.434   5.228   1.747 -0.1206 -0.9072 -0.2617
 7576TIP3   OH244218   3.013   6.533   0.529  0.0988  0.2176  0.1012
 7576TIP3    H144219   3.036   6.504   0.440  0.5456  0.7229  0.0477
 7576TIP3    H244220   2.998   6.452   0.578 -0.2492 -0.0632 -0.4602
 7577TIP3   OH244221   5.967   1.580   2.952 -0.2911 -0.5932 -0.0318
 7577TIP3    H144222   5.964   1.656   2.894 -0.7808 -0.0848  0.6567
 7577TIP3    H244223   5.905   1.518   2.913 -1.3015  0.1037  0.4266
 7578TIP3   OH244224   5.513   3.768   3.717  0.5353 -0.1932 -0.4774
 7578TIP3    H144225   5.498   3.675   3.736 -0.3334 -0.1078 -0.6922
 7578TIP3    H244226   5.602   3.785   3.745  0.4340 -0.9085  0.2833
 7579TIP3   OH244227   2.535   4.739  15.673  0.1896 -0.1475 -0.0063
 7579TIP3    H144228   2.493   4.819  15.642  0.9280  0.2232 -0.0693
 7579TIP3    H244229   2.620   4.737  15.628  1.0073  0.0637  1.4991
 7580TIP3   OH244230   3.682   1.447   4.833 -0.1686  0.2954 -0.1855
 7580TIP3    H144231   3.636   1.531   4.826  1.5174  1.5000  2.4979
 7580TIP3    H244232   3.688   1.431   4.927 -0.3911 -2.8320 -0.6621
 7581TIP3   OH244233   3.548   2.365  14.220 -0.1681 -0.3962 -0.1378
 7581TIP3    H144234   3.534   2.332  14.131  0.1263  0.4633 -0.5012
 7581TIP3    H244235   3.626   2.320  14.251  0.9159  0.8285 -1.0634
 7582TIP3   OH244236   4.821   4.966   0.013 -0.1993  0.1004  0.0264
 7582TIP3    H144237   4.911   4.963   0.044 -0.7711  1.3943  1.9188
 7582TIP3    H244238   4.817   5.044  -0.042 -0.1059 -0.0783 -0.2304
 7583TIP3   OH244239   5.004   6.729  16.040 -0.2565  0.0960  0.1930
 7583TIP3    H144240   5.041   6.817  16.046 -0.2181  0.2191 -1.6532
 7583TIP3    H244241   5.074   6.676  16.002 -0.5345 -0.5772  0.6075
 7584TIP3   OH244242   0.454   3.469  16.855  0.0989  0.5830 -0.2858
 7584TIP3    H144243   0.510   3.425  16.791  0.9224 -0.7191  1.2959
 7584TIP3    H244244   0.488   3.559  16.858 -0.9990  1.1531 -2.8397
 7585TIP3   OH244245   1.009   4.600   3.167  0.3975  0.4475  0.5490
 7585TIP3    H144246   1.086   4.563   3.123  2.0218  2.3808  1.6814
 7585TIP3    H244247   0.970   4.526   3.214  1.5978 -0.5399  0.0235
 7586TIP3   OH244248   1.207   5.061  13.703  0.2101  0.1832  0.6557
 7586TIP3    H144249   1.125   5.051  13.654  0.7073  0.8843 -0.3461
 7586TIP3    H244250   1.247   4.974  13.700  1.5864  0.8427 -2.6799
 7587TIP3   OH244251   6.198   0.894  14.528 -0.1297 -0.2981  0.3436
 7587TIP3    H144252   6.124   0.834  14.522 -1.7839  1.5579  1.6003
 7587TIP3    H244253   6.161   0.980  14.512  2.0830  0.4964 -0.7006
 7588TIP3   OH244254   2.678   5.823   3.117  0.4813  0.4625  0.0563
 7588TIP3    H144255   2.668   5.758   3.047 -1.5786  0.0934  0.6753
 7588TIP3    H244256   2.679   5.907   3.072  1.5030  0.1029 -0.6090
 7589TIP3   OH244257   2.629   5.324  14.203  0.5412  0.6360 -0.1530
 7589TIP3    H144258   2.716   5.364  14.208  1.4803 -1.4587  1.0743
 7589TIP3    H244259   2.601   5.313  14.294  0.2500 -1.2650 -0.4385
 7590TIP3   OH244260   0.061   4.999   4.861  0.6042 -0.5016 -0.7297
 7590TIP3    H144261   0.096   5.053   4.790 -0.1596 -0.1545 -0.8453
 7590TIP3    H244262  -0.032   4.992   4.842  0.5791 -1.2970 -0.3387
 7591TIP3   OH244263   2.250   6.698  15.140 -0.5441 -0.3762  0.3195
 7591TIP3    H144264   2.247   6.603  15.134 -1.1365 -0.4014  0.8883
 7591TIP3    H244265   2.176   6.728  15.088  0.5398 -0.1504 -1.1318
 7592TIP3   OH244266   3.220   4.769  14.584 -0.3838  0.3063  0.2074
 7592TIP3    H144267   3.140   4.815  14.611  0.0990 -0.0737  2.3241
 7592TIP3    H244268   3.267   4.834  14.532 -1.1559  1.1779  0.5712
 7593TIP3   OH244269   3.125   3.684  11.117  0.1893 -0.3963  0.0015
 7593TIP3    H144270   3.075   3.657  11.194 -0.0442  0.2086  0.0669
 7593TIP3    H244271   3.120   3.609  11.057  0.8797 -1.1015  0.8171
 7594TIP3   OH244272   1.157   4.010  12.296 -0.3710 -0.3920 -0.2161
 7594TIP3    H144273   1.101   3.948  12.342 -0.3763 -0.7897 -0.7531
 7594TIP3    H244274   1.172   4.080  12.359 -0.5836 -0.8103  0.3034
 7595TIP3   OH244275   1.695   0.651   1.713  0.0521 -0.7572  0.2817
 7595TIP3    H144276   1.745   0.605   1.780 -1.3748 -1.8212  0.6500
 7595TIP3    H244277   1.704   0.596   1.635 -0.5519 -0.9773  0.3611
 7596TIP3   OH244278   5.531   3.124   2.866 -0.0602  0.3170 -0.3069
 7596TIP3    H144279   5.459   3.174   2.828 -0.1835 -0.1342 -0.6585
 7596TIP3    H244280   5.610   3.168   2.834 -0.1572 -0.3884 -1.5104
 7597TIP3   OH244281   4.834   3.361  11.017 -0.1933  0.2457  0.0318
 7597TIP3    H144282   4.780   3.418  11.072  0.6119  0.6222  0.4333
 7597TIP3    H244283   4.924   3.383  11.040  0.1555  0.1781 -1.1880
 7598TIP3   OH244284   6.510   3.651  15.057  0.5068  0.2426 -0.0620
 7598TIP3    H144285   6.517   3.746  15.069  0.1757  0.1532  0.8727
 7598TIP3    H244286   6.601   3.619  15.062  0.9210  0.8007 -3.0789
 7599TIP3   OH244287   5.650   1.041   1.241  0.9233 -0.2081 -0.4831
 7599TIP3    H144288   5.584   0.977   1.267  0.2804  0.5727 -0.1878
 7599TIP3    H244289   5.618   1.076   1.158  0.7555  0.4571 -0.1433
 7600TIP3   OH244290   5.693   2.738   1.868 -0.3565 -0.2186  0.2392
 7600TIP3    H144291   5.788   2.747   1.871 -0.3312  0.0111 -0.9130
 7600TIP3    H244292   5.662   2.786   1.945  0.5175 -1.3213  1.2968
 7601TIP3   OH244293   6.816   5.876  13.366  0.0920  0.2223  0.6532
 7601TIP3    H144294   6.761   5.820  13.422  0.1492 -0.3046  0.1802
 7601TIP3    H244295   6.858   5.816  13.305  0.3034  0.7615  0.2631
 7602TIP3   OH244296   5.804   4.526  16.918  0.5783  0.2110  0.0920
 7602TIP3    H144297   5.738   4.586  16.884  0.6569  0.1317 -0.2015
 7602TIP3    H244298   5.875   4.528  16.854  0.0725 -1.0903 -0.5416
 7603TIP3   OH244299   2.170   5.624   2.122  0.0108  0.1351  0.0564
 7603TIP3    H144300   2.210   5.538   2.111 -1.1399 -0.3577 -0.4491
 7603TIP3    H244301   2.228   5.684   2.076  0.0887 -0.5786 -0.7929
 7604TIP3   OH244302   3.337   3.986   4.212 -0.1159  0.5763 -0.2759
 7604TIP3    H144303   3.252   4.030   4.204 -0.5409  0.2169  2.1237
 7604TIP3    H244304   3.401   4.053   4.187 -0.8500  2.1846  1.9832
 7605TIP3   OH244305   0.667   1.074  14.959 -0.6894 -0.5658  0.2039
 7605TIP3    H144306   0.628   1.138  14.900 -1.4865 -0.8259  0.4483
 7605TIP3    H244307   0.594   1.041  15.011 -0.3691 -2.0676 -0.2844
 7606TIP3   OH244308   5.421   0.171  12.293 -1.4888 -0.1069  0.3785
 7606TIP3    H144309   5.425   0.128  12.379 -2.7487 -0.2673  0.3593
 7606TIP3    H244310   5.362   0.245  12.306  0.0861  1.1933  0.2186
 7607TIP3   OH244311   1.270   3.676   4.483 -0.2210 -0.1267  0.0932
 7607TIP3    H144312   1.241   3.601   4.534  0.3815  0.4465  1.3056
 7607TIP3    H244313   1.348   3.644   4.437 -0.4164 -0.4749  0.0021
 7608TIP3   OH244314   1.520   2.087  13.891  0.0468  0.2927  0.1110
 7608TIP3    H144315   1.536   2.021  13.824 -0.6154 -0.1139  0.3397
 7608TIP3    H244316   1.425   2.091  13.899  0.1191 -0.1190  1.4551
 7609TIP3   OH244317   5.362   4.300   0.573 -0.0101  0.8061  0.4148
 7609TIP3    H144318   5.387   4.389   0.600 -1.0170  0.6084  2.0899
 7609TIP3    H244319   5.444   4.251   0.570  0.2971  1.2410  1.6339
 7610TIP3   OH244320   3.946   3.244  16.379  0.3253  0.1545  0.1467
 7610TIP3    H144321   4.026   3.193  16.371  0.8136  0.8744  0.3316
 7610TIP3    H244322   3.930   3.249  16.474 -0.8468 -1.3599  0.0483
 7611TIP3   OH244323   6.190   4.501  12.864 -0.3674 -0.0289 -0.6767
 7611TIP3    H144324   6.264   4.487  12.923 -1.4977 -1.3747  0.4612
 7611TIP3    H244325   6.165   4.413  12.837 -1.0688  0.4761 -1.6622
 7612TIP3   OH244326   0.306   6.673   2.542  0.4248 -0.6814  0.3387
 7612TIP3    H144327   0.391   6.628   2.537  0.5118 -0.4707 -0.1652
 7612TIP3    H244328   0.329   6.765   2.548  0.2423 -0.6924  1.1735
 7613TIP3   OH244329   6.093   6.761   0.313  0.3628 -0.2063  0.2339
 7613TIP3    H144330   6.150   6.789   0.385  0.3652  0.2700  0.0505
 7613TIP3    H244331   6.026   6.707   0.356 -0.0298  0.6331  0.7043
 7614TIP3   OH244332   4.749   0.032  17.143 -0.3172 -0.3848  0.4257
 7614TIP3    H144333   4.672  -0.022  17.122 -1.6441  1.9849 -0.9878
 7614TIP3    H244334   4.723   0.081  17.220  0.4270 -0.8069  0.9520
 7615TIP3   OH244335   2.128   5.099  15.613  0.3677 -0.5648 -0.1679
 7615TIP3    H144336   2.162   5.181  15.649 -0.1878  0.0955 -1.0959
 7615TIP3    H244337   2.069   5.127  15.542  0.7818 -1.7871 -1.0196
 7616TIP3   OH244338   5.561   5.952   0.826 -0.5886  0.2137 -0.1892
 7616TIP3    H144339   5.521   5.880   0.875 -2.4409 -0.5359 -2.6838
 7616TIP3    H244340   5.520   6.031   0.862  0.4517 -0.0543  1.6296
 7617TIP3   OH244341   3.098   5.044   4.239 -0.7143 -0.4527  0.0426
 7617TIP3    H144342   3.040   5.091   4.299 -1.1259  0.1921 -0.8458
 7617TIP3    H244343   3.063   4.956   4.236 -0.9717 -0.3616  0.3947
 7618TIP3   OH244344   4.578   4.433   2.412  0.0815  0.4871  0.4006
 7618TIP3    H144345   4.522   4.507   2.435 -2.3537 -0.5701 -1.7435
 7618TIP3    H244346   4.582   4.381   2.492 -1.1497  1.1555  0.9197
 7619TIP3   OH244347   1.270   0.494   1.760  0.5833  0.2715  0.0799
 7619TIP3    H144348   1.323   0.514   1.684  0.8391  1.3270  0.5362
 7619TIP3    H244349   1.273   0.573   1.814 -2.2527  0.7029 -0.3533
 7620TIP3   OH244350   0.723   6.090   1.351 -0.4363  0.5568  0.2533
 7620TIP3    H144351   0.781   6.014   1.353 -0.6179  0.4073 -0.2864
 7620TIP3    H244352   0.724   6.119   1.260  0.1649  1.6069  0.5882
 7621TIP3   OH244353   5.138   6.249   0.806 -0.0173 -0.2603 -0.2151
 7621TIP3    H144354   5.052   6.231   0.769  0.1040 -0.8828 -0.1975
 7621TIP3    H244355   5.181   6.163   0.811  1.1683  0.2349 -1.6435
 7622TIP3   OH244356   1.009   4.930   2.311  0.5333 -1.1232  0.2699
 7622TIP3    H144357   1.007   4.960   2.402 -1.0737  1.3659 -0.5253
 7622TIP3    H244358   1.012   5.011   2.260  0.9426 -2.4785 -1.9195
 7623TIP3   OH244359   2.972   0.272   0.558 -0.3436  0.3241 -0.7672
 7623TIP3    H144360   3.021   0.233   0.630 -0.3636  0.0543 -0.9011
 7623TIP3    H244361   3.027   0.345   0.528 -0.2696  0.3468 -0.5747
 7624TIP3   OH244362   1.956   5.587  13.685 -0.0282  0.0631 -0.6554
 7624TIP3    H144363   1.930   5.680  13.681  0.1150  0.0530 -1.9558
 7624TIP3    H244364   1.907   5.552  13.760 -0.0268  1.2054 -0.1070
 7625TIP3   OH244365   1.667   1.183   1.343  0.6161 -0.6157  0.2233
 7625TIP3    H144366   1.688   1.113   1.405 -2.8332 -1.8520  0.1180
 7625TIP3    H244367   1.640   1.256   1.397 -2.5793 -1.7572  0.2943
 7626TIP3   OH244368   5.536   2.083  14.455  0.0824 -0.2148  0.5752
 7626TIP3    H144369   5.455   2.133  14.463  0.5301  0.3700  1.5645
 7626TIP3    H244370   5.568   2.076  14.545  1.7625  0.6237  0.0612
 7627TIP3   OH244371   2.983   3.046   6.641  0.2013 -0.2388  0.2621
 7627TIP3    H144372   2.891   3.024   6.627 -0.1250  1.1436  0.1020
 7627TIP3    H244373   3.031   2.974   6.602 -0.8070 -0.4832 -0.5550
 7628TIP3   OH244374   4.118   0.771  16.294 -0.6341  0.1629  0.2018
 7628TIP3    H144375   4.174   0.743  16.221 -1.6156  1.7446 -1.1860
 7628TIP3    H244376   4.178   0.780  16.368  0.9524  1.7103 -1.2212
 7629TIP3   OH244377   6.099   4.391   1.085  0.3038 -0.2403  0.1394
 7629TIP3    H144378   6.108   4.349   1.000  0.1563  0.0733 -0.0312
 7629TIP3    H244379   6.140   4.477   1.075  1.3437 -0.6510  0.7225
 7630TIP3   OH244380   2.274   1.455   5.373  0.5114 -0.2514  0.0029
 7630TIP3    H144381   2.206   1.517   5.345  1.1841 -0.0732 -1.2363
 7630TIP3    H244382   2.226   1.374   5.392 -0.2259  0.2967  0.5327
 7631TIP3   OH244383   3.608   5.733   2.393 -0.2032 -0.3228 -0.4566
 7631TIP3    H144384   3.664   5.799   2.434 -1.0226 -0.9728  1.8073
 7631TIP3    H244385   3.664   5.656   2.384 -0.3051 -0.5167  0.4798
 7632TIP3   OH244386   1.502   2.698  16.548  0.5218  0.0881 -0.3820
 7632TIP3    H144387   1.446   2.652  16.611 -0.3644 -0.4020 -1.4943
 7632TIP3    H244388   1.591   2.675  16.574  0.2049  0.8569  1.3973
 7633TIP3   OH244389   5.797   6.780   0.206  0.3995  0.5077  0.3952
 7633TIP3    H144390   5.740   6.718   0.252  0.3196 -1.0221 -1.6955
 7633TIP3    H244391   5.769   6.866   0.238 -1.0533 -0.3833  1.6212
 7634TIP3   OH244392   4.321   6.243  12.986  0.1929 -0.6521 -0.5583
 7634TIP3    H144393   4.241   6.267  12.938 -0.2252 -1.7343 -0.4114
 7634TIP3    H244394   4.294   6.237  13.077  0.5920 -0.3977 -0.4176
 7635TIP3   OH244395   0.835   6.427  16.469  0.6046 -0.0632  0.2397
 7635TIP3    H144396   0.795   6.342  16.453 -0.6657  0.8851 -1.7247
 7635TIP3    H244397   0.910   6.431  16.410  0.7006  0.1677  0.3745
 7636TIP3   OH244398   6.702   0.091  14.972 -0.1342 -0.5162  0.3433
 7636TIP3    H144399   6.645   0.074  15.047 -0.8706 -2.0040 -0.5286
 7636TIP3    H244400   6.777   0.033  14.984  0.9130  0.9428  1.1275
 7637TIP3   OH244401   3.188   0.382   6.706  0.3529  0.1735  0.0627
 7637TIP3    H144402   3.237   0.458   6.736  1.0023 -0.4643  0.6092
 7637TIP3    H244403   3.179   0.395   6.612  0.7559  0.7579  0.1048
 7638TIP3   OH244404   2.308   6.137  14.539 -0.6740 -0.1093  0.4591
 7638TIP3    H144405   2.379   6.201  14.548 -0.8593  0.3456 -1.0899
 7638TIP3    H244406   2.240   6.183  14.490 -1.1575 -1.2185  0.0624
 7639TIP3   OH244407   4.168   5.664  17.143 -0.9022  0.0130 -0.2182
 7639TIP3    H144408   4.199   5.700  17.226  0.3652 -2.4796  0.4608
 7639TIP3    H244409   4.218   5.583  17.133 -4.1137 -1.9099 -1.3051
 7640TIP3   OH244410   2.061   2.762  14.072  0.7103 -0.5013  0.3286
 7640TIP3    H144411   1.994   2.809  14.021  0.3812  0.8559  1.9590
 7640TIP3    H244412   2.018   2.744  14.156  1.4152 -2.2801  0.3306
 7641TIP3   OH244413   5.177   4.760   2.399 -0.0702  0.6632  0.2193
 7641TIP3    H144414   5.118   4.706   2.452 -0.7378  2.2207  1.1135
 7641TIP3    H244415   5.138   4.761   2.312 -1.2278  1.4524  0.7352
 7642TIP3   OH244416   0.758   4.615   6.643  0.0254 -0.0113  0.1512
 7642TIP3    H144417   0.663   4.605   6.630  0.0774  0.9940 -1.1547
 7642TIP3    H244418   0.773   4.709   6.633  1.0664 -0.0772  1.0918
 7643TIP3   OH244419   0.093   1.627   0.607  0.3954  0.4258  0.1721
 7643TIP3    H144420   0.072   1.720   0.617  2.0040  0.6776  1.4937
 7643TIP3    H244421   0.179   1.626   0.565  0.9604 -0.4401  1.3318
 7644TIP3   OH244422   5.156   3.651  13.280  0.0485 -0.0269 -0.0368
 7644TIP3    H144423   5.107   3.617  13.355 -0.1273 -1.2227 -0.6790
 7644TIP3    H244424   5.089   3.694  13.226 -0.0502 -0.3483 -0.1727
 7645TIP3   OH244425   4.539   3.210  10.787  0.3704 -0.2773  0.2236
 7645TIP3    H144426   4.536   3.173  10.699 -2.5474  0.2366  0.0319
 7645TIP3    H244427   4.630   3.202  10.814  1.1042 -1.4059 -2.4277
 7646TIP3   OH244428   5.427   4.619   4.371 -0.3119 -0.2195 -0.4802
 7646TIP3    H144429   5.381   4.693   4.333 -0.4927 -0.8826 -1.5807
 7646TIP3    H244430   5.360   4.572   4.421 -0.1794  0.3923  0.2766
 7647TIP3   OH244431   6.270   2.050  15.108  0.2810 -0.7693  0.1240
 7647TIP3    H144432   6.259   2.141  15.137  1.3417 -0.6960  0.3065
 7647TIP3    H244433   6.362   2.044  15.082 -0.2162 -1.2959 -1.6128
 7648TIP3   OH244434   4.433   1.969   3.123  0.1193  0.1669  0.1066
 7648TIP3    H144435   4.528   1.960   3.136  0.1116 -4.0264 -1.7085
 7648TIP3    H244436   4.399   1.881   3.142 -3.5829  1.9105  1.8736
 7649TIP3   OH244437   0.438   0.688  10.703  0.0055  0.0896 -0.3488
 7649TIP3    H144438   0.353   0.732  10.712 -0.2374 -0.2649 -0.8581
 7649TIP3    H244439   0.439   0.657  10.612  0.3375 -0.6164 -0.1062
 7650TIP3   OH244440   5.557   2.435  11.201  0.0993 -0.5285  0.1196
 7650TIP3    H144441   5.513   2.449  11.285  0.1233 -0.8794  0.1867
 7650TIP3    H244442   5.528   2.510  11.147  0.1424 -0.2657  0.4588
 7651TIP3   OH244443   2.941   0.460  16.847  0.5542  0.0815  0.0145
 7651TIP3    H144444   2.942   0.377  16.895  1.1302 -0.4162 -0.8541
 7651TIP3    H244445   3.018   0.508  16.880  0.2280  0.2733  0.5058
 7652TIP3   OH244446   1.872   1.586  14.882 -0.1638  0.3306 -0.2634
 7652TIP3    H144447   1.823   1.642  14.941 -1.2243 -0.5509 -0.2887
 7652TIP3    H244448   1.947   1.556  14.933  0.0076  1.1763 -0.0191
 7653TIP3   OH244449   2.548   3.950  11.067  0.3690 -0.0340 -0.2942
 7653TIP3    H144450   2.643   3.948  11.071  0.3284  0.8537  1.6973
 7653TIP3    H244451   2.526   4.044  11.068 -0.5007 -0.2159 -1.5016
 7654TIP3   OH244452   4.354   3.847   0.362  0.0528 -0.6118 -0.1480
 7654TIP3    H144453   4.449   3.850   0.370 -0.0858 -0.6240  2.0066
 7654TIP3    H244454   4.335   3.757   0.335  0.6878 -0.4208 -1.2224
 7655TIP3   OH244455   3.096   4.240  13.555  0.0388 -0.2997  1.1431
 7655TIP3    H144456   3.088   4.230  13.461 -0.6687  1.0300  1.0574
 7655TIP3    H244457   3.190   4.231  13.572  0.1953 -0.2724  0.2869
 7656TIP3   OH244458   6.690   2.294   4.736  1.1048 -0.3809  0.1879
 7656TIP3    H144459   6.761   2.357   4.749 -0.9052  2.2810 -1.2760
 7656TIP3    H244460   6.663   2.269   4.825  2.8776 -0.3316  0.7607
 7657TIP3   OH244461   6.089   6.149  11.314 -0.5819  0.3847  0.0286
 7657TIP3    H144462   6.006   6.106  11.295 -1.2274  1.3053  0.7152
 7657TIP3    H244463   6.072   6.242  11.299  0.6875  0.4654 -1.0560
 7658TIP3   OH244464   6.664   0.626   5.794 -0.0128 -1.0921 -0.4816
 7658TIP3    H144465   6.710   0.564   5.851  1.4295 -0.4002 -0.8632
 7658TIP3    H244466   6.600   0.573   5.747  0.9841 -2.2368 -0.5729
 7659TIP3   OH244467   4.004   5.594  11.883 -0.0415 -0.1387 -0.1000
 7659TIP3    H144468   4.053   5.569  11.805  1.8297  1.9673  0.3505
 7659TIP3    H244469   4.028   5.528  11.949 -0.4381 -1.0449 -0.8629
 7660TIP3   OH244470   1.000   0.267   1.433 -0.3476 -0.1640 -0.2215
 7660TIP3    H144471   1.077   0.214   1.452 -0.1029  0.6763  1.1543
 7660TIP3    H244472   1.028   0.326   1.362  0.2753  0.1242  0.2600
 7661TIP3   OH244473   0.775   6.412   5.260  0.2770  0.9970 -0.1017
 7661TIP3    H144474   0.752   6.323   5.231 -0.3405  0.6948  1.3039
 7661TIP3    H244475   0.816   6.451   5.183  0.1668 -0.3607 -0.8800
 7662TIP3   OH244476   5.067   6.115  16.911 -0.4659  0.4534  0.1344
 7662TIP3    H144477   5.119   6.187  16.876 -1.2874  1.6949  1.3901
 7662TIP3    H244478   5.120   6.079  16.981 -0.2685  0.1755 -0.1619
 7663TIP3   OH244479   5.538   0.713   3.717 -0.3068  0.1364 -0.3575
 7663TIP3    H144480   5.622   0.726   3.760 -0.5244  1.9005 -0.4483
 7663TIP3    H244481   5.558   0.717   3.623 -0.5054  0.7172 -0.3791
 7664TIP3   OH244482   6.672   5.709   6.132 -0.2737 -0.0181 -0.4292
 7664TIP3    H144483   6.705   5.791   6.170  1.0190 -0.5574 -0.3929
 7664TIP3    H244484   6.671   5.647   6.205 -2.9386  0.4250 -0.0345
 7665TIP3   OH244485   2.926   2.135  12.887  0.7542  0.3446  0.0049
 7665TIP3    H144486   2.876   2.210  12.918  0.9527  0.9324 -1.0741
 7665TIP3    H244487   3.007   2.138  12.938  0.2553  0.1527  0.8189
 7666TIP3   OH244488   4.872   0.097  11.187  0.1405 -0.1004  0.1632
 7666TIP3    H144489   4.896   0.147  11.109  1.2885 -1.7109 -0.5427
 7666TIP3    H244490   4.899   0.153  11.260 -0.7457  1.3226 -0.5773
 7667TIP3   OH244491   3.409   6.138   1.778  0.2226 -1.0331  0.1040
 7667TIP3    H144492   3.476   6.072   1.762 -0.2356 -1.4291 -0.1967
 7667TIP3    H244493   3.335   6.089   1.815 -0.0184 -0.6539  0.1284
 7668TIP3   OH244494   0.519   6.573  12.831  0.1405  0.2158  0.6110
 7668TIP3    H144495   0.597   6.519  12.843 -0.0205 -0.0142  0.6076
 7668TIP3    H244496   0.456   6.516  12.787 -1.6312 -1.0274  4.5870
 7669TIP3   OH244497   0.850   3.900  14.492 -0.0966 -0.2926  0.7866
 7669TIP3    H144498   0.938   3.926  14.518 -0.2279  0.5740  0.3822
 7669TIP3    H244499   0.812   3.979  14.452 -0.8051 -0.8561  0.3254
 7670TIP3   OH244500   2.346   4.953   5.657  0.5383  0.2502 -0.1670
 7670TIP3    H144501   2.295   5.032   5.674  1.3455  1.0069 -1.1747
 7670TIP3    H244502   2.416   4.955   5.723  1.2872  1.0465 -0.9695
 7671TIP3   OH244503   2.241   0.079   5.493  0.2127  0.1146  0.3158
 7671TIP3    H144504   2.314   0.062   5.553 -0.1415  0.9193  0.9774
 7671TIP3    H244505   2.166   0.095   5.549 -0.3519 -0.1240 -0.3598
 7672TIP3   OH244506   6.385   1.712  11.739 -0.3406 -0.2999 -0.2715
 7672TIP3    H144507   6.405   1.805  11.751  0.1708 -0.5965  1.2072
 7672TIP3    H244508   6.421   1.669  11.817 -0.9138 -1.6886 -0.7603
 7673TIP3   OH244509   2.914   4.632   1.988  0.3987  0.8434 -0.0140
 7673TIP3    H144510   2.979   4.665   1.927  0.5915 -0.5482 -0.5706
 7673TIP3    H244511   2.879   4.554   1.946  1.4851 -0.9025  2.2304
 7674TIP3   OH244512   2.494   2.896   2.149  0.0666  0.3102 -0.1722
 7674TIP3    H144513   2.534   2.870   2.066  0.2944  0.3474 -0.0760
 7674TIP3    H244514   2.551   2.965   2.182  0.0459  0.2082  0.0747
 7675TIP3   OH244515   4.759   4.632  15.717 -0.3540 -0.3648 -0.4202
 7675TIP3    H144516   4.759   4.699  15.786 -1.8591 -1.4590  0.6788
 7675TIP3    H244517   4.849   4.601  15.715  0.3997  1.7632 -1.0379
 7676TIP3   OH244518   5.863   2.127  12.127  0.5873  0.0549  0.1853
 7676TIP3    H144519   5.768   2.115  12.123  0.6342 -0.2272 -0.0940
 7676TIP3    H244520   5.893   2.060  12.188  0.6040  0.1588  0.2909
 7677TIP3   OH244521   3.720   2.134  14.342  0.0930  0.3867 -0.3505
 7677TIP3    H144522   3.646   2.096  14.295  0.6846 -1.8726  0.4985
 7677TIP3    H244523   3.719   2.092  14.427  2.0209  0.7582 -0.1287
 7678TIP3   OH244524   0.403   1.776  15.919 -0.4119 -0.2627  0.0395
 7678TIP3    H144525   0.379   1.689  15.951 -0.1885  0.0438  1.0622
 7678TIP3    H244526   0.401   1.832  15.997 -2.9752  1.1967 -1.0039
 7679TIP3   OH244527   0.743   5.493  16.367 -0.0699 -0.4658  0.2383
 7679TIP3    H144528   0.699   5.458  16.444 -0.7228 -2.0416 -0.8271
 7679TIP3    H244529   0.798   5.422  16.336 -1.2543 -0.5192 -1.8445
 7680TIP3   OH244530   4.661   4.759  11.203 -0.1220 -0.1511  0.3048
 7680TIP3    H144531   4.741   4.739  11.251 -0.4349 -1.3576  0.3302
 7680TIP3    H244532   4.677   4.725  11.115 -0.5822 -0.3289  0.2894
 7681TIP3   OH244533   5.667   0.473  16.503 -0.2047  0.4232 -0.5937
 7681TIP3    H144534   5.659   0.388  16.545  0.9562  1.0900  1.0180
 7681TIP3    H244535   5.586   0.519  16.527 -0.5082  0.0266 -0.8669
 7682TIP3   OH244536   0.510   4.539  13.414 -0.0886 -0.1468  0.3787
 7682TIP3    H144537   0.577   4.538  13.347  0.1233 -0.3422  0.5962
 7682TIP3    H244538   0.557   4.528  13.496 -0.2336  1.1717  0.6583
 7683TIP3   OH244539   4.231   0.199   1.598  0.2556 -0.1400 -0.2523
 7683TIP3    H144540   4.202   0.187   1.688 -1.3754  0.6496 -0.6585
 7683TIP3    H244541   4.302   0.263   1.604  0.7842 -0.7901  0.5655
 7684TIP3   OH244542   0.293   1.964   2.317 -0.1986 -0.4964 -0.4709
 7684TIP3    H144543   0.266   1.886   2.364 -1.2180  0.8884  1.2925
 7684TIP3    H244544   0.211   2.005   2.288  0.1923  1.1988  0.7481
 7685TIP3   OH244545   4.884   2.533  16.562 -0.2513  0.1264  0.0116
 7685TIP3    H144546   4.864   2.463  16.624  0.5845  0.4298  0.6264
 7685TIP3    H244547   4.979   2.528  16.550 -0.1866  1.1706  0.0741
 7686TIP3   OH244548   4.150   6.335  14.808  0.4494 -0.2593  0.0657
 7686TIP3    H144549   4.139   6.257  14.753 -0.6153 -0.0825  0.0305
 7686TIP3    H244550   4.196   6.302  14.886  2.7882 -0.3429 -1.2893
 7687TIP3   OH244551   5.104   6.451  13.786 -0.2350 -0.0740  0.6650
 7687TIP3    H144552   5.194   6.473  13.762 -0.3346 -0.4897 -0.0969
 7687TIP3    H244553   5.085   6.507  13.861  1.4849 -1.6747  2.3654
 7688TIP3   OH244554   6.103   2.458  11.260  0.2291 -0.3004 -0.3322
 7688TIP3    H144555   6.194   2.488  11.257 -0.0748  0.5104 -1.6122
 7688TIP3    H244556   6.060   2.504  11.188 -0.1559 -4.1436 -2.6662
 7689TIP3   OH244557   1.080   6.535  12.042  0.1853 -0.0454 -0.3681
 7689TIP3    H144558   1.017   6.467  12.065 -0.7538  0.6912 -0.7468
 7689TIP3    H244559   1.045   6.615  12.080  0.4057  0.5368 -1.3541
 7690TIP3   OH244560   6.210   5.534  12.922  0.6085 -0.2947 -0.2980
 7690TIP3    H144561   6.176   5.450  12.889 -1.1778  0.3221 -0.0801
 7690TIP3    H244562   6.305   5.527  12.911  0.6399 -2.9654  1.1732
 7691TIP3   OH244563   3.211   4.248  15.826 -0.1447  0.0257 -0.3091
 7691TIP3    H144564   3.203   4.304  15.749  0.6134  0.1987 -0.2714
 7691TIP3    H244565   3.303   4.219  15.825 -0.0902  0.1479  0.6042
 7692TIP3   OH244566   3.650   3.570  12.643  0.1543 -0.3550  0.5490
 7692TIP3    H144567   3.590   3.631  12.686  0.1095  0.1814 -0.2828
 7692TIP3    H244568   3.617   3.562  12.554  1.2139 -0.2081  0.1439
 7693TIP3   OH244569   3.247   5.514  12.600  0.0716 -0.3113 -0.0059
 7693TIP3    H144570   3.165   5.527  12.648  0.7931 -2.0209  1.7788
 7693TIP3    H244571   3.250   5.585  12.537 -1.5025  1.3276  1.7120
 7694TIP3   OH244572   2.397   5.424   6.040  0.3163 -0.2561  0.1571
 7694TIP3    H144573   2.421   5.350   5.983  0.4537 -1.5093  1.7820
 7694TIP3    H244574   2.423   5.502   5.991  2.6902 -1.3899 -0.4705
 7695TIP3   OH244575   1.848   5.665   3.158  0.4249 -0.8836 -0.0830
 7695TIP3    H144576   1.829   5.675   3.251  0.1822  3.5340 -0.5085
 7695TIP3    H244577   1.762   5.659   3.116  0.4923 -1.3806 -0.1495
 7696TIP3   OH244578   4.224   1.569   0.024  0.4788  0.1961  0.4917
 7696TIP3    H144579   4.186   1.643  -0.024 -2.1567 -1.5364 -0.2113
 7696TIP3    H244580   4.149   1.514   0.046  2.0932 -0.9419  3.3513
 7697TIP3   OH244581   2.704   1.591  14.030  0.7900 -0.1689  1.0511
 7697TIP3    H144582   2.752   1.662  13.987  1.1649 -1.1323 -0.1724
 7697TIP3    H244583   2.724   1.600  14.123 -1.2368  2.8846  1.2658
 7698TIP3   OH244584   3.581   0.609  16.085 -0.0816  0.0385 -0.4467
 7698TIP3    H144585   3.651   0.567  16.035 -0.8139 -1.6412 -0.1086
 7698TIP3    H244586   3.589   0.702  16.064  1.7171 -0.2261 -1.0605
 7699TIP3   OH244587   1.869   6.748   6.623 -0.3547 -0.5908  0.1958
 7699TIP3    H144588   1.791   6.783   6.580  1.4253  1.2057 -1.6186
 7699TIP3    H244589   1.910   6.823   6.665  1.4800 -1.1492 -0.5498
 7700TIP3   OH244590   1.003   6.141   5.718  0.1798  0.2539 -0.1487
 7700TIP3    H144591   0.959   6.104   5.795  0.7790 -0.9887 -0.3896
 7700TIP3    H244592   0.933   6.150   5.652  0.1921 -1.2961 -0.3865
 7701TIP3   OH244593   5.907   4.547   2.213 -0.2589  0.7044  0.3482
 7701TIP3    H144594   5.934   4.531   2.123 -0.6672  0.1148  0.3230
 7701TIP3    H244595   5.947   4.476   2.263 -0.4084  0.7678  0.5586
 7702TIP3   OH244596   3.493   2.672   4.263 -0.0613  0.7647 -0.8087
 7702TIP3    H144597   3.568   2.674   4.203 -0.5835  1.4989 -1.4401
 7702TIP3    H244598   3.528   2.704   4.347  0.9750 -1.4609 -0.3539
 7703TIP3   OH244599   0.231   0.985  12.303  0.1969  0.9666 -0.4005
 7703TIP3    H144600   0.164   0.964  12.237  1.2708  1.2751 -1.6100
 7703TIP3    H244601   0.247   0.902  12.348 -1.7334  1.1077  0.6173
 7704TIP3   OH244602   3.612   5.130   4.522  0.2841 -0.7117 -0.3451
 7704TIP3    H144603   3.548   5.201   4.527  1.3618  0.2520  0.2071
 7704TIP3    H244604   3.591   5.073   4.595 -0.2664 -0.6755 -0.4756
 7705TIP3   OH244605   2.718   1.393  11.702 -0.7276  0.0520 -0.4914
 7705TIP3    H144606   2.671   1.452  11.644 -0.6734 -0.2322 -0.8267
 7705TIP3    H244607   2.809   1.424  11.700 -0.7664  0.1757 -0.3840
 7706TIP3   OH244608   2.863   5.210   2.848  0.3212 -0.0091  0.9691
 7706TIP3    H144609   2.952   5.178   2.830 -0.3022 -2.4895  2.1069
 7706TIP3    H244610   2.806   5.144   2.808 -1.0557  2.6512 -1.6299
 7707TIP3   OH244611   2.264   5.117   4.529  0.0511 -0.2896 -0.8786
 7707TIP3    H144612   2.244   5.193   4.585  0.6750  0.4460 -1.6392
 7707TIP3    H244613   2.326   5.065   4.581 -1.9130 -1.3386  0.4842
 7708TIP3   OH244614   2.183   0.620  15.138  0.2402 -0.1184  0.0497
 7708TIP3    H144615   2.182   0.716  15.136 -0.4858 -0.1367 -0.3893
 7708TIP3    H244616   2.093   0.595  15.159  0.9782 -0.6369  2.8152
 7709TIP3   OH244617   4.759   5.673   4.201  0.2556  0.3609  0.3110
 7709TIP3    H144618   4.688   5.620   4.238  0.8005 -1.1224 -0.6986
 7709TIP3    H244619   4.838   5.622   4.220  0.7097  0.4324 -1.3467
 7710TIP3   OH244620   3.963   4.039  16.618 -0.4026 -0.2543  0.1016
 7710TIP3    H144621   3.926   4.080  16.696 -0.3679 -0.9871  0.5082
 7710TIP3    H244622   3.897   4.053  16.550 -0.6754 -0.0852  0.3986
 7711TIP3   OH244623   4.730   1.689  12.888  0.1216  0.0115  0.4453
 7711TIP3    H144624   4.701   1.779  12.904  1.6539  0.6829 -0.4355
 7711TIP3    H244625   4.750   1.655  12.975 -2.4948 -0.2151  1.0019
 7712TIP3   OH244626   2.722   5.399   1.080 -0.2841 -0.0073 -0.2370
 7712TIP3    H144627   2.648   5.420   1.136  0.2441  0.4117  0.3050
 7712TIP3    H244628   2.720   5.466   1.012 -0.5169 -0.1110 -0.3333
 7713TIP3   OH244629   5.431   1.711   0.802 -0.5411  0.2329  0.2890
 7713TIP3    H144630   5.496   1.744   0.864 -0.3443 -1.2874  0.9004
 7713TIP3    H244631   5.462   1.742   0.717  1.3310 -1.0055  0.5055
 7714TIP3   OH244632   0.042   5.965   5.810 -0.0963 -0.6021 -0.7193
 7714TIP3    H144633  -0.036   5.910   5.820 -0.2819 -0.2079  0.0404
 7714TIP3    H244634   0.008   6.051   5.786  0.1896 -0.7884 -1.8223
 7715TIP3   OH244635   4.972   3.651  13.469 -0.3621 -0.6830 -0.0104
 7715TIP3    H144636   4.990   3.562  13.501 -0.3927 -0.6779  0.0217
 7715TIP3    H244637   4.953   3.701  13.549  1.6667 -0.1586  0.1657
 7716TIP3   OH244638   6.345   6.087  12.969 -0.0938  0.2741  0.4062
 7716TIP3    H144639   6.286   6.131  12.908  2.1667  1.0605 -1.2904
 7716TIP3    H244640   6.341   5.995  12.945  0.2328  0.4818 -0.4432
 7717TIP3   OH244641   2.331   0.256  16.513 -0.1188  0.0620 -0.2393
 7717TIP3    H144642   2.310   0.348  16.530  0.3706 -0.0698  1.1864
 7717TIP3    H244643   2.262   0.207  16.558  1.2039 -0.3026  1.4611
 7718TIP3   OH244644   1.860   1.661  10.835 -0.1406 -0.1328 -0.1619
 7718TIP3    H144645   1.799   1.591  10.858 -1.1027  0.7792  0.0642
 7718TIP3    H244646   1.834   1.688  10.747  1.3146 -1.2055 -0.9626
 7719TIP3   OH244647   3.336   0.396   4.091 -0.3855  0.4143  0.2021
 7719TIP3    H144648   3.312   0.306   4.110  0.0478  0.6361  1.8553
 7719TIP3    H244649   3.258   0.434   4.050 -0.3917 -0.8417 -1.0023
 7720TIP3   OH244650   2.758   1.827   5.250  0.0976 -0.5168 -0.1457
 7720TIP3    H144651   2.784   1.850   5.339 -0.9681 -1.7982  0.5173
 7720TIP3    H244652   2.811   1.884   5.194  1.2631 -0.1631  1.2788
 7721TIP3   OH244653   6.387   0.830   2.346 -0.1938  0.2087  0.1541
 7721TIP3    H144654   6.305   0.805   2.388 -0.8025  0.1065 -1.0542
 7721TIP3    H244655   6.445   0.853   2.418  0.0032 -3.5296  1.2490
 7722TIP3   OH244656   4.061   1.180  11.364  0.2976  0.1362 -0.4451
 7722TIP3    H144657   4.028   1.154  11.278  0.0246  2.1496 -0.9697
 7722TIP3    H244658   4.139   1.233  11.346 -1.6355  3.4327  0.2973
 7723TIP3   OH244659   6.659   4.146  11.116 -0.4073 -0.1210 -0.2236
 7723TIP3    H144660   6.745   4.105  11.126 -0.7395 -0.8832 -0.3913
 7723TIP3    H244661   6.649   4.156  11.021 -0.2585  0.5014 -0.1730
 7724TIP3   OH244662   4.698   6.338  15.054  1.6521  0.3075 -1.0721
 7724TIP3    H144663   4.769   6.360  15.114  1.8300  1.8259 -1.8060
 7724TIP3    H244664   4.665   6.423  15.025 -0.2500 -0.3781 -0.9919
 7725TIP3   OH244665   5.165   5.475   2.242  0.3333 -0.5124 -0.0655
 7725TIP3    H144666   5.238   5.527   2.277 -1.1588  1.4005  0.2898
 7725TIP3    H244667   5.182   5.470   2.148  0.8088  0.1123 -0.0187
 7726TIP3   OH244668   1.971   1.376  11.614  0.2432  0.1197  0.4783
 7726TIP3    H144669   1.878   1.356  11.602  0.4895  0.2274 -1.8326
 7726TIP3    H244670   1.985   1.457  11.566  1.3208  0.7136  1.7434
 7727TIP3   OH244671   5.110   2.305  12.312  0.0617 -0.2348 -0.2288
 7727TIP3    H144672   5.161   2.383  12.332 -1.4399  1.0102 -1.1519
 7727TIP3    H244673   5.030   2.315  12.364 -1.8961  0.8420 -3.2989
 7728TIP3   OH244674   2.676   3.492  11.058  0.2431  0.8625 -0.2055
 7728TIP3    H144675   2.619   3.517  10.985 -0.1517 -0.7265 -0.4660
 7728TIP3    H244676   2.617   3.478  11.132  0.2703 -0.7483 -0.4658
 7729TIP3   OH244677   2.325   2.595  14.244  0.1042  0.5366 -0.1601
 7729TIP3    H144678   2.312   2.563  14.154  0.8608  0.8450 -0.3847
 7729TIP3    H244679   2.269   2.539  14.298 -2.1207  1.7956 -1.0920
 7730TIP3   OH244680   2.456   5.425   0.866  0.2663  0.4700  0.4702
 7730TIP3    H144681   2.470   5.520   0.873  2.1984  0.0598  3.1629
 7730TIP3    H244682   2.544   5.389   0.851 -0.5373 -0.8765 -1.1963
 7731TIP3   OH244683   4.969   6.716  10.929  0.0002 -0.0499  0.6815
 7731TIP3    H144684   4.983   6.623  10.909  0.9713  0.1249  0.5229
 7731TIP3    H244685   5.020   6.763  10.863 -1.1965  0.6109  0.2292
 7732TIP3   OH244686   2.185   3.460   2.885 -0.3455 -0.4356  0.3234
 7732TIP3    H144687   2.143   3.375   2.895  1.3807 -1.6395 -2.0393
 7732TIP3    H244688   2.113   3.521   2.867 -1.3043 -2.0805 -1.6131
 7733TIP3   OH244689   5.177   5.592  13.179  0.1827 -0.0398 -0.1173
 7733TIP3    H144690   5.193   5.686  13.186 -0.7109 -0.0165  1.9937
 7733TIP3    H244691   5.195   5.558  13.267  1.9754 -2.0977 -1.2302
 7734TIP3   OH244692   6.650   2.179   0.622  0.3791  0.3934  0.0568
 7734TIP3    H144693   6.615   2.259   0.583 -0.3240  0.6307  1.1349
 7734TIP3    H244694   6.577   2.117   0.616  0.1059  0.5749  1.3944
 7735TIP3   OH244695   2.536   4.548  11.971 -0.1119 -0.1427  0.0506
 7735TIP3    H144696   2.616   4.520  12.016  0.4765 -1.0013 -1.4515
 7735TIP3    H244697   2.486   4.467  11.959 -0.7679  0.2444  0.1503
 7736TIP3   OH244698   0.943   6.769   1.745  0.2406 -0.8422  0.1070
 7736TIP3    H144699   0.925   6.808   1.830 -0.7104  2.1194 -1.3827
 7736TIP3    H244700   0.875   6.805   1.687  1.7535 -1.6294 -2.2360
 7737TIP3   OH244701   2.031   1.112  13.992 -0.2413  0.2833  0.0987
 7737TIP3    H144702   2.042   1.198  13.951  0.0302 -0.4348 -1.3897
 7737TIP3    H244703   1.937   1.092  13.982 -0.3675  0.5514  0.7440
 7738TIP3   OH244704   5.063   6.193   0.401 -0.3396  0.3217  0.0854
 7738TIP3    H144705   5.122   6.269   0.392  0.4589 -0.1388  1.3104
 7738TIP3    H244706   5.122   6.119   0.418 -1.2395 -0.2483  0.7294
 7739TIP3   OH244707   4.744   0.296  13.703 -0.5540 -0.6400 -0.4388
 7739TIP3    H144708   4.834   0.285  13.673 -0.8029 -0.9889 -1.0545
 7739TIP3    H244709   4.732   0.391  13.709  0.0060 -0.6053  0.1030
 7740TIP3   OH244710   4.810   6.305   4.061 -0.3548  0.1681  0.1007
 7740TIP3    H144711   4.771   6.390   4.040 -0.4964  0.3748  1.1641
 7740TIP3    H244712   4.736   6.253   4.095 -0.2633 -0.3712 -0.5092
 7741TIP3   OH244713   2.647   0.964   0.478 -0.1489  0.0706  0.9648
 7741TIP3    H144714   2.710   0.913   0.530  1.3541  1.5982  0.6898
 7741TIP3    H244715   2.680   1.054   0.483 -0.1534  0.3017 -2.3554
 7742TIP3   OH244716   1.925   5.475   6.789  0.2406  0.1885  0.4341
 7742TIP3    H144717   2.013   5.512   6.797  0.9095 -1.1285 -0.6634
 7742TIP3    H244718   1.930   5.418   6.712 -1.0542 -1.3948  1.4928
 7743TIP3   OH244719   4.636   3.219  16.073 -0.8164  0.0593  0.3208
 7743TIP3    H144720   4.570   3.197  16.008 -1.8868 -2.1665  2.1071
 7743TIP3    H244721   4.626   3.314  16.087 -1.7891  0.2120 -1.3850
 7744TIP3   OH244722   6.667   3.962  14.612  0.6816 -0.3081  0.4884
 7744TIP3    H144723   6.707   3.925  14.533  0.5028 -0.1218  0.3099
 7744TIP3    H244724   6.573   3.946  14.601  0.7086 -0.7980  0.9342
 7745TIP3   OH244725   5.566   1.454   3.910 -0.3908  0.0341  0.2035
 7745TIP3    H144726   5.552   1.413   3.825  0.7038  0.2359 -0.0888
 7745TIP3    H244727   5.501   1.523   3.916 -0.8870 -0.4004 -0.1987
 7746TIP3   OH244728   6.350   6.773   2.279  0.2579  0.0740  0.4014
 7746TIP3    H144729   6.287   6.701   2.281 -0.0270  0.3340  1.9907
 7746TIP3    H244730   6.303   6.847   2.318  1.3249  0.4498  1.0039
 7747TIP3   OH244731   6.071   0.783   5.292  0.3316  0.3031 -0.4648
 7747TIP3    H144732   6.150   0.729   5.289 -0.5617 -1.0721  0.3672
 7747TIP3    H244733   6.066   0.813   5.383 -0.8144 -0.7073 -0.1826
 7748TIP3   OH244734   0.798   1.064  11.523 -0.3849  0.3382 -0.5448
 7748TIP3    H144735   0.744   1.120  11.578 -1.1673  0.6133 -1.5613
 7748TIP3    H244736   0.739   1.037  11.452  0.1949 -1.1296 -0.4965
 7749TIP3   OH244737   3.021   0.729  10.845  0.2774 -0.4187 -0.1631
 7749TIP3    H144738   3.009   0.818  10.877 -0.3410  0.0543 -1.6721
 7749TIP3    H244739   3.099   0.697  10.890  1.5771  1.5305 -0.9933
 7750TIP3   OH244740   2.995   1.487   2.294  0.7684  0.6173 -0.6836
 7750TIP3    H144741   3.065   1.455   2.351  1.6044  1.4414 -1.2543
 7750TIP3    H244742   2.920   1.430   2.315  1.5320 -0.1227  0.0755
 7751TIP3   OH244743   3.384   3.738  13.735 -0.0136 -0.7855 -0.2512
 7751TIP3    H144744   3.366   3.667  13.797  0.5824 -0.7013  0.0295
 7751TIP3    H244745   3.324   3.808  13.761  0.8501 -0.4185  0.8193
 7752TIP3   OH244746   0.156   0.778   3.689 -0.3287  0.3966  0.3452
 7752TIP3    H144747   0.201   0.755   3.771  0.3820  1.3237  0.2152
 7752TIP3    H244748   0.227   0.797   3.628 -0.7991 -2.1430 -1.0517
 7753TIP3   OH244749   4.519   1.961  12.118 -0.4559  0.4265 -0.1110
 7753TIP3    H144750   4.558   2.009  12.045 -0.2142  0.0406 -0.2354
 7753TIP3    H244751   4.425   1.978  12.110 -0.5177 -0.3120 -1.0192
 7754TIP3   OH244752   3.396   2.386   1.854 -0.1083  0.1786  0.0408
 7754TIP3    H144753   3.478   2.435   1.855  1.1218 -1.7671 -1.8551
 7754TIP3    H244754   3.417   2.302   1.896 -1.2745 -0.1212  0.0524
 7755TIP3   OH244755   5.745   5.105   1.668 -0.1076 -0.5420 -0.0310
 7755TIP3    H144756   5.752   5.194   1.633 -0.1089 -0.6429 -0.2898
 7755TIP3    H244757   5.673   5.109   1.730  0.1017 -0.2856  0.1934
 7756TIP3   OH244758   6.763   5.414  13.275  0.4046 -0.3909 -0.5261
 7756TIP3    H144759   6.817   5.406  13.353 -0.9058  0.6060  0.5197
 7756TIP3    H244760   6.702   5.340  13.281 -0.7215  0.5754  0.2522
 7757TIP3   OH244761   2.090   5.518  15.789 -0.6066  0.2377 -0.7354
 7757TIP3    H144762   2.121   5.430  15.811 -1.2192  0.3169  0.5028
 7757TIP3    H244763   2.165   5.575  15.805 -0.5681  0.0908 -0.3882
 7758TIP3   OH244764   0.791   3.505  12.208 -0.0046  0.3369 -0.5916
 7758TIP3    H144765   0.849   3.578  12.189  0.4723 -0.1104 -0.8757
 7758TIP3    H244766   0.716   3.544  12.252  0.4571  0.9340 -0.3310
 7759TIP3   OH244767   0.039   4.706   1.639  0.5573  0.1177 -0.5108
 7759TIP3    H144768   0.003   4.635   1.692 -0.0916  0.2274 -0.8026
 7759TIP3    H244769   0.025   4.785   1.692  0.2496  0.1760 -0.6760
 7760TIP3   OH244770   3.046   1.976  15.749  0.1278  0.0510 -0.3417
 7760TIP3    H144771   3.064   2.061  15.789  1.5320 -0.1324 -0.5611
 7760TIP3    H244772   2.968   1.944  15.795  0.8852  0.4718  1.2941
 7761TIP3   OH244773   2.115   2.392   4.471 -0.1745  0.2637  0.4190
 7761TIP3    H144774   2.122   2.317   4.530  0.7243  0.4453  0.5483
 7761TIP3    H244775   2.028   2.384   4.432 -0.8756  0.2884  1.9564
 7762TIP3   OH244776   0.345   4.533   4.084 -0.3905 -0.1286 -0.3066
 7762TIP3    H144777   0.356   4.578   4.001 -2.3075  0.2506 -0.3837
 7762TIP3    H244778   0.353   4.440   4.063  2.7572  0.1048 -0.2841
 7763TIP3   OH244779   4.215   5.491  14.764  0.4112  1.0124 -0.4125
 7763TIP3    H144780   4.294   5.462  14.810 -0.8229 -1.7627  0.0688
 7763TIP3    H244781   4.157   5.524  14.833 -0.1037  0.0048 -0.3468
 7764TIP3   OH244782   1.479   0.591  11.857  0.1708 -0.5452  0.8262
 7764TIP3    H144783   1.464   0.571  11.949  0.8051 -1.4399  0.7365
 7764TIP3    H244784   1.417   0.536  11.809 -1.0813  0.8874  0.7634
 7765TIP3   OH244785   1.473   2.018   1.363 -0.2565  0.2853 -0.3909
 7765TIP3    H144786   1.510   1.939   1.323  0.9314  0.1427  0.9681
 7765TIP3    H244787   1.522   2.029   1.444 -1.5828  1.4620  0.2661
 7766TIP3   OH244788   2.895   6.071   6.206 -0.2841  0.0566 -0.3785
 7766TIP3    H144789   2.897   5.987   6.160 -0.2790  1.0999 -2.3013
 7766TIP3    H244790   2.983   6.081   6.243  0.2464  0.0252 -1.6208
 7767TIP3   OH244791   5.387   4.269  12.191 -0.7071 -0.3467 -0.3617
 7767TIP3    H144792   5.317   4.213  12.158 -0.8057 -0.6840  0.4260
 7767TIP3    H244793   5.468   4.222  12.169 -0.7175  0.0565 -1.2972
 7768TIP3   OH244794   0.011   4.613   5.621 -0.1905  0.0326  0.3006
 7768TIP3    H144795   0.047   4.702   5.615  0.7026 -0.2368  1.6048
 7768TIP3    H244796   0.087   4.556   5.605 -0.5913 -0.5093  0.3461
 7769TIP3   OH244797   4.468   3.457   1.774  0.0745  1.2043  0.0002
 7769TIP3    H144798   4.449   3.363   1.778  0.3845  1.1349 -0.1831
 7769TIP3    H244799   4.382   3.498   1.762  0.3717  0.6462 -5.0279
 7770TIP3   OH244800   4.186   5.259   2.881 -0.2378  0.6025  0.4206
 7770TIP3    H144801   4.148   5.174   2.857 -0.8148  0.3277  2.2165
 7770TIP3    H244802   4.114   5.321   2.869 -0.5811  0.4385  1.5148
 7771TIP3   OH244803   1.885   2.392   5.396  0.2136  0.0225  0.2936
 7771TIP3    H144804   1.837   2.344   5.328  1.2709 -1.0963  0.3318
 7771TIP3    H244805   1.972   2.407   5.358  0.3183  0.7436  0.8061
 7772TIP3   OH244806   3.155   4.934  10.964 -0.8457  0.1073 -0.0692
 7772TIP3    H144807   3.109   4.893  10.891 -0.5413  0.9094 -0.7221
 7772TIP3    H244808   3.206   4.863  11.004 -0.9459 -0.3124 -0.6874
 7773TIP3   OH244809   4.554   1.056  14.593  0.0140 -0.6825 -0.2818
 7773TIP3    H144810   4.482   1.119  14.594  0.6546  0.0775 -1.0014
 7773TIP3    H244811   4.589   1.058  14.682 -0.2291 -0.3247 -0.1946
 7774TIP3   OH244812   3.999   0.732   5.967  0.4187 -0.6840  0.2939
 7774TIP3    H144813   4.046   0.706   6.046 -0.3161  1.1019  1.3310
 7774TIP3    H244814   4.059   0.790   5.921 -0.2772  0.6451  1.0287
 7775TIP3   OH244815   1.919   2.932   5.490 -0.0881 -0.0477  0.7920
 7775TIP3    H144816   1.965   3.017   5.492 -0.3165  0.0774  0.6491
 7775TIP3    H244817   1.982   2.871   5.528  0.6048 -0.0678 -0.3787
 7776TIP3   OH244818   4.808   5.262  12.425 -0.8374  0.6139  0.1410
 7776TIP3    H144819   4.818   5.175  12.462  0.7009  0.9842  0.6460
 7776TIP3    H244820   4.847   5.256  12.338  2.6576  1.6799  1.5416
 7777TIP3   OH244821   0.055   5.024  13.938 -0.1201 -0.2524  0.2193
 7777TIP3    H144822   0.143   5.036  13.903  0.6805  2.1510  2.8628
 7777TIP3    H244823   0.047   4.930  13.952  1.9134 -0.5119 -0.2923
 7778TIP3   OH244824   0.263   0.633   4.444 -0.5393 -0.0337  0.1296
 7778TIP3    H144825   0.178   0.675   4.456 -1.5905 -2.0546 -0.0575
 7778TIP3    H244826   0.246   0.562   4.383  0.7318 -2.1358  2.1469
 7779TIP3   OH244827   6.251   0.057   1.853  0.4824  0.0393  0.0246
 7779TIP3    H144828   6.214   0.078   1.939  0.0529  0.7836 -0.3381
 7779TIP3    H244829   6.235   0.135   1.800  2.0981  0.1729 -0.2909
 7780TIP3   OH244830   1.868   0.483  17.044  0.7716 -0.2995 -0.5289
 7780TIP3    H144831   1.833   0.403  17.005  0.1527 -0.6673  0.7652
 7780TIP3    H244832   1.954   0.494  17.003 -0.1703 -0.2416 -2.5919
 7781TIP3   OH244833   3.807   4.158  16.812 -0.4850  0.3445  0.3729
 7781TIP3    H144834   3.791   4.197  16.898 -1.7614 -0.3632  0.4551
 7781TIP3    H244835   3.749   4.205  16.753 -2.5608 -1.8798  0.5875
 7782TIP3   OH244836   3.566   4.139   4.159 -0.2341 -0.6045 -0.2537
 7782TIP3    H144837   3.581   4.232   4.174 -0.5463 -0.5203 -0.4791
 7782TIP3    H244838   3.621   4.095   4.224 -1.7820 -0.2378  1.3352
 7783TIP3   OH244839   4.406   5.512  12.653 -0.0621  0.2433 -0.1979
 7783TIP3    H144840   4.361   5.501  12.737 -1.2584 -0.0673 -0.8727
 7783TIP3    H244841   4.464   5.436  12.647 -1.5702 -0.8901 -0.6420
 7784TIP3   OH244842   3.989   2.149  14.629 -0.1080  0.0317  0.6072
 7784TIP3    H144843   3.983   2.055  14.644  0.3334 -0.0685  0.1702
 7784TIP3    H244844   3.905   2.184  14.660 -0.9668 -0.7162 -0.8197
 7785TIP3   OH244845   2.172   6.631  13.040 -0.4238 -0.1559  0.0425
 7785TIP3    H144846   2.183   6.577  12.962 -1.7648 -0.5210  0.0915
 7785TIP3    H244847   2.184   6.571  13.114  1.2115  0.2619  0.1414
 7786TIP3   OH244848   0.678   1.650  10.731  0.8469  0.6232  0.4774
 7786TIP3    H144849   0.702   1.727  10.783  0.4129  0.8780  0.3002
 7786TIP3    H244850   0.733   1.657  10.652  2.7046 -0.6370  1.6257
 7787TIP3   OH244851   6.057   2.331   4.734  0.5289  0.0296  1.0466
 7787TIP3    H144852   6.004   2.258   4.767 -0.5681  0.7217  0.8357
 7787TIP3    H244853   6.058   2.394   4.806  0.7850  0.1666  0.9214
 7788TIP3   OH244854   0.112   5.815  15.958  0.2030  0.3303  0.5347
 7788TIP3    H144855   0.049   5.808  15.886  2.5177 -0.8711 -1.4384
 7788TIP3    H244856   0.131   5.724  15.982  1.3000  0.6767  0.9877
 7789TIP3   OH244857   0.610   2.768   4.879 -0.2471 -0.1159  0.2374
 7789TIP3    H144858   0.577   2.832   4.943  0.2960 -0.7316  1.1466
 7789TIP3    H244859   0.608   2.685   4.926  1.8583 -0.2793  0.0647
 7790TIP3   OH244860   5.209   5.950   0.432  0.0202 -0.1525  0.1744
 7790TIP3    H144861   5.179   5.871   0.477  1.5711 -0.3644  0.8769
 7790TIP3    H244862   5.251   5.917   0.352  3.2371 -0.3194  1.8385
 7791TIP3   OH244863   5.834   6.509  11.876 -0.0618 -0.1996  0.0340
 7791TIP3    H144864   5.746   6.539  11.898 -0.4281 -0.1371 -1.4901
 7791TIP3    H244865   5.846   6.429  11.927 -0.8606 -0.0078  0.5243
 7792TIP3   OH244866   3.790   4.680   0.026  0.1119 -0.2066 -0.3577
 7792TIP3    H144867   3.835   4.720  -0.047  0.6194  0.4031  0.2880
 7792TIP3    H244868   3.745   4.604  -0.012 -1.0761  1.0950 -1.6357
 7793TIP3   OH244869   2.280   3.279  14.253  0.2385  0.1175 -0.4922
 7793TIP3    H144870   2.217   3.281  14.325  1.1234  1.3618  0.2708
 7793TIP3    H244871   2.241   3.222  14.187 -0.9837 -0.3199  0.6141
 7794TIP3   OH244872   1.531   5.749   2.236  0.1996 -0.3382  0.7316
 7794TIP3    H144873   1.527   5.672   2.179  1.2926 -0.2678  0.5454
 7794TIP3    H244874   1.502   5.821   2.180 -0.7081 -0.5917  0.8704
 7795TIP3   OH244875   4.593   2.612   0.634 -0.4616 -0.1105  0.4487
 7795TIP3    H144876   4.541   2.623   0.554  0.3750 -2.1665 -0.4115
 7795TIP3    H244877   4.551   2.539   0.680 -1.1260  1.2632  2.0725
 7796TIP3   OH244878   0.483   0.206   1.666  0.0104 -0.0564  0.6218
 7796TIP3    H144879   0.481   0.245   1.753 -1.7205 -1.4924  1.2815
 7796TIP3    H244880   0.502   0.278   1.607 -2.5162  1.6997  1.8479
 7797TIP3   OH244881   6.164   5.648   2.918 -0.0000 -0.3213  0.1413
 7797TIP3    H144882   6.230   5.635   2.986  0.6507  0.7165 -0.2899
 7797TIP3    H244883   6.214   5.653   2.836 -0.7114 -0.7229 -0.3276
 7798TIP3   OH244884   5.366   0.484   0.105 -0.1857  0.4037  0.3569
 7798TIP3    H144885   5.324   0.490   0.191  0.6677  2.4805  0.6477
 7798TIP3    H244886   5.416   0.403   0.108 -0.8691  0.0120  1.4934
 7799TIP3   OH244887   6.646   4.433  13.664  0.1106  0.4504  0.1426
 7799TIP3    H144888   6.577   4.476  13.614  1.9134  0.7806 -2.1302
 7799TIP3    H244889   6.612   4.346  13.681 -1.2127  0.8804 -0.2117
 7800TIP3   OH244890   0.002   0.436   3.324 -0.4496 -0.4580  0.1439
 7800TIP3    H144891   0.061   0.492   3.374 -0.8833  0.5385 -0.4528
 7800TIP3    H244892   0.058   0.390   3.262 -0.0906 -0.7189  0.6580
 7801TIP3   OH244893   1.917   1.093  16.371  0.1907 -0.1779  0.3305
 7801TIP3    H144894   1.828   1.109  16.401 -0.4164 -1.0474 -0.9327
 7801TIP3    H244895   1.968   1.079  16.451 -1.5352 -3.3268  0.9880
 7802TIP3   OH244896   5.084   2.142   6.452  0.2233 -0.3467 -0.6220
 7802TIP3    H144897   5.120   2.180   6.532 -0.8781  0.8814 -0.6922
 7802TIP3    H244898   5.121   2.054   6.449  1.1440 -0.0246  0.6594
 7803TIP3   OH244899   6.215   5.172  10.970  0.4976  0.5277  0.3624
 7803TIP3    H144900   6.303   5.136  10.968  0.1778 -0.2625  0.4969
 7803TIP3    H244901   6.176   5.144  10.887  0.0006 -0.0778  0.7938
 7804TIP3   OH244902   6.011   4.882   6.118  0.1435  0.0529 -0.3815
 7804TIP3    H144903   5.963   4.812   6.073 -0.2341 -0.5635  0.9615
 7804TIP3    H244904   6.020   4.951   6.052 -1.1077 -0.5102 -1.1600
 7805TIP3   OH244905   1.150   0.142  17.270 -0.0646  0.1363  0.7788
 7805TIP3    H144906   1.228   0.104  17.229 -1.4457 -0.6540 -1.1475
 7805TIP3    H244907   1.078   0.118  17.212 -1.7353  1.0080  2.4538
 7806TIP3   OH244908   1.725   3.831  12.634 -0.1717 -0.3354 -0.3758
 7806TIP3    H144909   1.636   3.826  12.599  0.1403 -2.7209 -0.9281
 7806TIP3    H244910   1.767   3.750  12.603  2.1764  0.7458 -0.1063
 7807TIP3   OH244911   3.501   3.889  11.282 -0.2176  0.7982  0.7390
 7807TIP3    H144912   3.558   3.963  11.303  0.7055 -0.1180  1.5480
 7807TIP3    H244913   3.413   3.925  11.285  0.3509  2.5012 -1.6027
 7808TIP3   OH244914   4.801   4.910  15.010  0.0451 -0.4477 -0.7256
 7808TIP3    H144915   4.868   4.975  15.033  1.0032 -0.9542 -2.0622
 7808TIP3    H244916   4.816   4.892  14.917 -1.6920 -0.8654 -0.9383
 7809TIP3   OH244917   1.571   5.895  10.439  0.6975  0.2227 -0.7546
 7809TIP3    H144918   1.519   5.817  10.419 -1.4914  1.8145 -1.5206
 7809TIP3    H244919   1.630   5.867  10.509  0.5406 -2.3387 -1.5896
 7810TIP3   OH244920   0.979   6.631   3.591  0.6560  0.7970 -0.5368
 7810TIP3    H144921   0.914   6.577   3.636  1.7288  0.6433  0.8637
 7810TIP3    H244922   0.980   6.597   3.501 -0.6884  0.3517 -0.3963
 7811TIP3   OH244923   4.758   0.306   3.084 -0.5051 -0.1652 -0.5163
 7811TIP3    H144924   4.827   0.347   3.031 -0.8751 -0.1600 -0.9930
 7811TIP3    H244925   4.805   0.272   3.160 -0.3169  1.8633  0.3080
 7812TIP3   OH244926   2.214   4.094  14.233  0.1694 -0.5874  0.0161
 7812TIP3    H144927   2.282   4.122  14.172  0.7450 -0.0129  0.8957
 7812TIP3    H244928   2.262   4.051  14.304 -0.3595 -0.0216  0.7307
 7813TIP3   OH244929   6.655   3.688   1.047 -0.2533  0.0937 -0.0017
 7813TIP3    H144930   6.744   3.724   1.054  0.5274 -2.0097  1.0254
 7813TIP3    H244931   6.666   3.607   0.998 -1.6604 -0.0509 -0.0856
 7814TIP3   OH244932   1.518   1.121   3.622  0.1623  0.6300 -0.4374
 7814TIP3    H144933   1.596   1.083   3.662  1.0872  1.3821 -1.5135
 7814TIP3    H244934   1.449   1.106   3.687  1.5391  1.4186  1.2654
 7815TIP3   OH244935   2.394   3.556   2.086 -0.3868 -0.4322  0.7537
 7815TIP3    H144936   2.478   3.520   2.116 -0.8538 -1.9145  0.2944
 7815TIP3    H244937   2.371   3.621   2.152  0.4835 -0.9556  1.5834
 7816TIP3   OH244938   5.449   3.184   3.649  0.1676 -0.2766  0.1072
 7816TIP3    H144939   5.479   3.154   3.563 -0.8213 -0.7585 -0.0799
 7816TIP3    H244940   5.394   3.260   3.629  1.4868  0.7887  0.4675
 7817TIP3   OH244941   4.025   4.432   3.336 -0.9937 -0.1839 -0.1771
 7817TIP3    H144942   3.939   4.391   3.340  0.1129 -2.5332  0.4867
 7817TIP3    H244943   4.065   4.414   3.422 -0.2438  1.8606 -0.0446
 7818TIP3   OH244944   3.393   1.537  11.339  0.0539 -0.4111  0.2093
 7818TIP3    H144945   3.401   1.462  11.398 -2.1431  0.2544  1.4072
 7818TIP3    H244946   3.378   1.612  11.396 -2.2361  0.2175 -1.1264
 7819TIP3   OH244947   0.630   4.661  11.935  0.5387  0.6120 -0.2584
 7819TIP3    H144948   0.717   4.646  11.972  1.1610 -1.9619 -2.5677
 7819TIP3    H244949   0.645   4.669  11.841 -1.7708 -0.3397 -0.7363
 7820TIP3   OH244950   4.028   5.895  14.513 -0.1322  0.7327 -0.6806
 7820TIP3    H144951   4.033   5.986  14.485 -0.4505  0.6275 -1.0872
 7820TIP3    H244952   4.035   5.844  14.431  1.6025  0.3465 -0.3168
 7821TIP3   OH244953   6.061   1.730   3.726  1.0822  0.2324 -0.3190
 7821TIP3    H144954   6.048   1.739   3.632 -0.9683 -0.6193 -0.1319
 7821TIP3    H244955   6.085   1.818   3.756 -0.3035  0.9572 -1.3048
 7822TIP3   OH244956   5.576   5.959   1.140 -0.1676 -0.1124  0.5347
 7822TIP3    H144957   5.557   6.008   1.059  1.2194 -1.1936 -0.4738
 7822TIP3    H244958   5.503   5.898   1.149 -0.0137 -0.4226 -0.2697
 7823TIP3   OH244959   2.130   2.425  13.051  0.0159  0.0842 -0.4877
 7823TIP3    H144960   2.123   2.329  13.057 -0.0552  0.1083 -0.1493
 7823TIP3    H244961   2.168   2.441  12.965 -0.4565 -0.2287 -0.7596
 7824TIP3   OH244962   3.705   5.228   2.133 -0.4916  0.2619 -0.1759
 7824TIP3    H144963   3.645   5.295   2.101 -0.1944  0.3655 -0.5266
 7824TIP3    H244964   3.675   5.147   2.093 -1.6003 -0.0341  1.2305
 7825TIP3   OH244965   2.506   5.242   6.594  0.3058  0.3339  0.2754
 7825TIP3    H144966   2.506   5.333   6.564  1.6236  1.0790  2.4331
 7825TIP3    H244967   2.568   5.198   6.536 -0.2359  0.8369 -0.6976
 7826TIP3   OH244968   3.442   1.963   5.556 -0.4365  0.1246 -0.3341
 7826TIP3    H144969   3.424   1.877   5.517 -0.5759  0.2136 -0.4670
 7826TIP3    H244970   3.482   2.013   5.485 -0.9769  0.3876 -0.4533
 7827TIP3   OH244971   3.739   5.141   0.205  0.5159 -0.2116  0.1199
 7827TIP3    H144972   3.696   5.059   0.180 -0.4664 -0.2053  1.6869
 7827TIP3    H244973   3.725   5.147   0.299 -0.5037  2.3656 -0.1559
 7828TIP3   OH244974   3.486   2.057  14.209 -0.0368  0.0576 -0.2186
 7828TIP3    H144975   3.517   2.071  14.120  0.5056 -2.0748 -0.3935
 7828TIP3    H244976   3.428   1.981  14.203 -0.9745  0.6545  1.0450
 7829TIP3   OH244977   5.459   5.269   4.990 -0.2272  0.5624 -0.0396
 7829TIP3    H144978   5.406   5.259   4.911 -0.4388 -0.6178  0.2504
 7829TIP3    H244979   5.524   5.335   4.967  1.5075 -1.7972 -2.1516
 7830TIP3   OH244980   5.602   2.321  12.715 -0.1679 -0.0850 -0.0412
 7830TIP3    H144981   5.567   2.334  12.626  1.5670 -1.2181 -0.9266
 7830TIP3    H244982   5.634   2.231  12.715  0.3993  0.1059  1.5622
 7831TIP3   OH244983   3.291   5.305   1.491 -0.3538 -0.9634 -0.7039
 7831TIP3    H144984   3.323   5.348   1.412  0.3087 -1.1290 -0.5331
 7831TIP3    H244985   3.238   5.372   1.535  1.3235 -0.0126 -0.0313
 7832TIP3   OH244986   2.953   5.888  14.089 -0.0954  0.2154 -0.4967
 7832TIP3    H144987   2.945   5.898  14.184 -1.3114  1.4286 -0.7235
 7832TIP3    H244988   2.963   5.793  14.077 -0.0304  0.0334  0.8203
 7833TIP3   OH244989   5.559   4.214  15.276 -0.3625 -0.0555  0.5735
 7833TIP3    H144990   5.590   4.288  15.224  0.1527  0.5023  1.6621
 7833TIP3    H244991   5.469   4.199  15.246 -1.1255  2.1985  1.6036
 7834TIP3   OH244992   0.454   3.415  14.435 -0.0753  0.2065 -0.0070
 7834TIP3    H144993   0.372   3.404  14.483 -0.3259 -0.7227 -0.6229
 7834TIP3    H244994   0.438   3.372  14.351  0.3572  1.8217 -0.9230
 7835TIP3   OH244995   6.711   3.747   5.665  0.4634 -0.0188 -0.0689
 7835TIP3    H144996   6.746   3.688   5.732  0.6686  1.3074  1.0213
 7835TIP3    H244997   6.756   3.829   5.680  0.6877  0.2285 -2.0336
 7836TIP3   OH244998   2.623   5.650   6.099 -0.1023  0.2423  0.1815
 7836TIP3    H144999   2.629   5.574   6.042  0.3280  1.3482 -1.2717
 7836TIP3    H245000   2.684   5.631   6.171  1.5563  0.0941 -1.2339
 7837TIP3   OH245001   2.622   2.360  15.562 -0.4664 -0.2193 -0.0229
 7837TIP3    H145002   2.675   2.302  15.616 -0.7078 -1.0563 -0.6673
 7837TIP3    H245003   2.664   2.358  15.476  0.4121  1.7725  0.3372
 7838TIP3   OH245004   2.844   0.086  16.411 -0.5874 -0.0650 -0.0595
 7838TIP3    H145005   2.837   0.173  16.452 -1.8237 -0.6598  1.0049
 7838TIP3    H245006   2.828   0.103  16.318 -1.5870  0.7477  0.2448
 7839TIP3   OH245007   2.733   6.504   2.098 -0.6395  0.6183 -0.2958
 7839TIP3    H145008   2.799   6.519   2.166 -1.0735 -0.5574  0.4114
 7839TIP3    H245009   2.736   6.582   2.044  1.0422  0.7595 -0.0300
 7840TIP3   OH245010   4.620   5.814  15.192 -0.0809  0.2396  0.2228
 7840TIP3    H145011   4.639   5.839  15.282 -0.0624 -0.0247  0.2907
 7840TIP3    H245012   4.631   5.896  15.142  1.9631 -0.0323  0.1580
 7841TIP3   OH245013   2.292   0.804  16.900 -0.3965  0.9555  0.0229
 7841TIP3    H145014   2.358   0.795  16.969 -1.9531 -0.4149  1.3732
 7841TIP3    H245015   2.309   0.730  16.841 -1.3007  0.0576  0.8786
 7842TIP3   OH245016   5.517   4.508   4.146 -0.3364 -0.9275 -0.3929
 7842TIP3    H145017   5.582   4.575   4.127  0.1910 -1.0528  0.9634
 7842TIP3    H245018   5.486   4.527   4.234 -1.0117 -1.7977 -0.4233
 7843TIP3   OH245019   4.987   2.762  14.534 -0.2073  0.4407 -0.0944
 7843TIP3    H145020   4.976   2.696  14.465  1.6223 -2.0235  1.8821
 7843TIP3    H245021   5.072   2.803  14.514 -1.1528  1.9618 -1.0871
 7844TIP3   OH245022   5.182   6.180   5.168 -0.7564 -0.0493  0.0935
 7844TIP3    H145023   5.226   6.103   5.204  0.0161 -0.3038 -1.3536
 7844TIP3    H245024   5.250   6.248   5.165 -0.8539  0.0195 -0.6959
 7845TIP3   OH245025   1.952   2.025  11.891  0.1016  0.0117  0.7537
 7845TIP3    H145026   1.982   2.093  11.831 -1.8587 -0.5496 -0.9499
 7845TIP3    H245027   1.912   2.072  11.964 -0.2623  0.6990  0.1138
 7846TIP3   OH245028   6.496   3.874   4.465 -0.1773 -0.2113  0.1413
 7846TIP3    H145029   6.427   3.811   4.446  0.9720 -1.1502 -0.9460
 7846TIP3    H245030   6.578   3.827   4.451  0.7300  0.5734  2.3931
 7847TIP3   OH245031   6.314   0.866   1.405  0.7927 -0.3768  0.0568
 7847TIP3    H145032   6.229   0.825   1.420  0.4739 -0.1175 -0.9654
 7847TIP3    H245033   6.295   0.939   1.346  1.5950  0.2441  0.5470
 7848TIP3   OH245034   3.750   5.979   0.252 -0.1616 -0.7260  0.3024
 7848TIP3    H145035   3.774   5.907   0.310 -0.0545 -1.5546 -0.7612
 7848TIP3    H245036   3.661   5.958   0.224 -0.4940  0.0538  0.7205
 7849TIP3   OH245037   4.722   0.521  15.124  0.1763  0.4007  0.4975
 7849TIP3    H145038   4.727   0.479  15.210 -0.4896  2.2295  1.4568
 7849TIP3    H245039   4.809   0.510  15.087  0.7225  0.3468  1.7662
 7850TIP3   OH245040   6.123   2.644  15.095 -0.1266 -0.2575  0.0087
 7850TIP3    H145041   6.204   2.641  15.146 -1.1414 -1.9570  1.5563
 7850TIP3    H245042   6.071   2.713  15.138  0.2095  0.3639 -0.5703
 7851TIP3   OH245043   2.609   2.739  14.829  0.1826  0.5320  0.0737
 7851TIP3    H145044   2.644   2.785  14.906  0.5217  1.3351 -0.5457
 7851TIP3    H245045   2.678   2.749  14.763  1.1941 -2.7033  0.5731
 7852TIP3   OH245046   3.247   6.701   1.186 -0.4316 -0.5832 -0.0050
 7852TIP3    H145047   3.313   6.633   1.200  0.4698  0.0700 -0.9851
 7852TIP3    H245048   3.298   6.781   1.172 -1.4362 -0.1015 -0.9389
 7853TIP3   OH245049   3.637   0.101   4.550  0.3985 -0.4018 -0.4394
 7853TIP3    H145050   3.680   0.182   4.522 -0.0703 -0.3569 -1.0342
 7853TIP3    H245051   3.553   0.101   4.505  0.8767 -1.7912 -1.3724
 7854TIP3   OH245052   0.944   5.961  17.165  0.2811  0.1491  0.0673
 7854TIP3    H145053   0.967   5.984  17.075  1.9729 -2.6683 -0.2770
 7854TIP3    H245054   0.970   6.037  17.217  1.3071  0.9223 -1.5410
 7855TIP3   OH245055   6.074   0.919  11.280  1.1813 -0.0600 -0.9543
 7855TIP3    H145056   6.032   0.929  11.194 -0.0465 -1.8537 -0.5769
 7855TIP3    H245057   6.022   0.973  11.339  0.7135 -0.5412 -0.9206
 7856TIP3   OH245058   0.233   3.537   6.278 -0.0982  0.1272 -0.0552
 7856TIP3    H145059   0.223   3.444   6.301  0.0590 -0.5023 -2.4132
 7856TIP3    H245060   0.143   3.570   6.275 -0.3164 -0.5403 -1.4584
 7857TIP3   OH245061   5.009   4.944   1.053 -0.0589  0.0499 -0.3687
 7857TIP3    H145062   5.069   4.920   1.124  0.3542  0.8828 -0.4261
 7857TIP3    H245063   4.923   4.951   1.095  0.4180  1.9335  0.3504
 7858TIP3   OH245064   2.646   5.913   0.910 -0.0371 -0.1647 -0.4333
 7858TIP3    H145065   2.615   5.980   0.849 -1.4709 -0.6231 -0.2242
 7858TIP3    H245066   2.624   5.830   0.868 -0.0938 -0.4890  0.2271
 7859TIP3   OH245067   1.258   3.591  13.298 -0.3873  0.2673 -0.3371
 7859TIP3    H145068   1.331   3.648  13.322 -0.2228  0.3692 -1.0666
 7859TIP3    H245069   1.180   3.638  13.327 -0.3096  1.2780 -1.7097
 7860TIP3   OH245070   3.214   3.407   0.886 -0.1255  0.5470  0.9100
 7860TIP3    H145071   3.285   3.348   0.911 -0.5685 -0.9011 -1.0634
 7860TIP3    H245072   3.135   3.357   0.902 -0.5680  1.1238  0.5346
 7861TIP3   OH245073   1.362   5.013   5.964  0.3746  0.3748  0.6450
 7861TIP3    H145074   1.388   4.938   6.017 -2.6776 -1.2572 -0.0750
 7861TIP3    H245075   1.281   5.044   6.004 -0.5657  0.7492 -1.4978
 7862TIP3   OH245076   5.159   4.777  17.194  0.2658 -0.1416  0.3480
 7862TIP3    H145077   5.162   4.853  17.252  1.6174 -0.2189  0.4104
 7862TIP3    H245078   5.223   4.717  17.231 -0.6769 -1.2462  0.2006
 7863TIP3   OH245079   5.394   1.744   3.651  0.1401 -0.3063  0.0290
 7863TIP3    H145080   5.304   1.716   3.635  0.0783 -0.4600  0.6703
 7863TIP3    H245081   5.408   1.814   3.586 -0.1465 -0.8685 -0.6490
 7864TIP3   OH245082   0.069   2.107  10.776 -0.0992 -0.0879  0.0580
 7864TIP3    H145083   0.164   2.107  10.762 -0.3507 -1.2772 -1.6801
 7864TIP3    H245084   0.051   2.194  10.814  1.4634  0.7541 -1.0752
 7865TIP3   OH245085   5.437   4.865  12.848  0.5700  0.4112  0.5186
 7865TIP3    H145086   5.426   4.776  12.814  1.8250  0.7943 -0.9658
 7865TIP3    H245087   5.507   4.903  12.794 -0.0071  2.3272  1.0608
 7866TIP3   OH245088   4.161   3.362   4.397 -0.0201  0.0606 -0.7726
 7866TIP3    H145089   4.255   3.381   4.390 -0.0267 -0.0125 -1.0590
 7866TIP3    H245090   4.143   3.367   4.491 -0.1335  1.9743 -0.8874
 7867TIP3   OH245091   3.064   6.805  15.762 -0.0785 -0.1193 -0.0676
 7867TIP3    H145092   3.140   6.862  15.766  1.3308 -1.9021 -0.6693
 7867TIP3    H245093   3.088   6.729  15.815 -2.2966  0.2391  1.5274
 7868TIP3   OH245094   2.998   6.271   0.622 -0.3977 -0.7038 -0.5155
 7868TIP3    H145095   3.059   6.198   0.634  1.2226  0.6341 -0.4168
 7868TIP3    H245096   2.957   6.281   0.708  0.0473 -0.9079 -0.2727
 7869TIP3   OH245097   4.860   2.212   3.357  0.6738  0.6949 -0.8923
 7869TIP3    H145098   4.881   2.125   3.393  1.3205  0.7989 -0.9987
 7869TIP3    H245099   4.888   2.207   3.266 -0.7917  0.4937 -1.3306
 7870TIP3   OH245100   0.033   4.789  14.167 -0.1530 -0.4386  0.1496
 7870TIP3    H145101   0.094   4.717  14.184  0.1369 -0.4650 -1.0010
 7870TIP3    H245102   0.014   4.825  14.254  2.4719  0.3627  0.4247
 7871TIP3   OH245103   3.635   0.764   5.545 -0.2034  0.2398  0.3438
 7871TIP3    H145104   3.654   0.752   5.638 -0.2655  1.2154  0.4949
 7871TIP3    H245105   3.640   0.859   5.533 -0.0930  0.1058 -0.6711
 7872TIP3   OH245106   5.799   4.812   2.775 -0.6441 -0.0562 -0.0807
 7872TIP3    H145107   5.739   4.743   2.747  0.4750 -1.6295  1.3573
 7872TIP3    H245108   5.747   4.869   2.831 -1.0010 -0.9965  0.5467
 7873TIP3   OH245109   1.666   3.185  13.336  0.0993 -0.1898  0.0791
 7873TIP3    H145110   1.715   3.266  13.320 -0.1710 -0.1541 -0.5922
 7873TIP3    H245111   1.594   3.188  13.274  0.5547 -1.3400 -0.5190
 7874TIP3   OH245112   3.656   6.468   1.381 -0.2218  0.0362 -0.6180
 7874TIP3    H145113   3.741   6.426   1.366 -0.7810 -0.8865 -1.2331
 7874TIP3    H245114   3.635   6.447   1.472 -0.1042 -0.2778 -0.6645
 7875TIP3   OH245115   5.157   4.022  16.190  0.6726 -0.4409 -0.1809
 7875TIP3    H145116   5.252   4.007  16.184  0.4444 -2.1889  0.2348
 7875TIP3    H245117   5.119   3.935  16.175 -0.8751  0.3005 -0.5803
 7876TIP3   OH245118   1.472   4.137   3.708 -0.0372 -0.6119  0.1542
 7876TIP3    H145119   1.413   4.103   3.775 -1.3184  0.1555 -0.5508
 7876TIP3    H245120   1.530   4.064   3.688 -0.8110 -1.4248  0.8066
 7877TIP3   OH245121   2.338   5.531   4.810  0.2007  0.0826  0.0982
 7877TIP3    H145122   2.397   5.607   4.807  2.1847 -1.3930  0.7201
 7877TIP3    H245123   2.315   5.522   4.902  0.6067 -0.5407  0.1418
 7878TIP3   OH245124   4.697   3.148   0.003 -0.4658 -0.0829 -0.4909
 7878TIP3    H145125   4.756   3.146  -0.073  1.5046 -0.8598  1.0168
 7878TIP3    H245126   4.718   3.231   0.046 -1.0676  0.0154 -0.3854
 7879TIP3   OH245127   2.704   0.621  14.115  0.4228 -0.2845  0.1137
 7879TIP3    H145128   2.756   0.668  14.180  1.8530 -2.1961  0.3722
 7879TIP3    H245129   2.724   0.665  14.033 -0.7933  1.6436  0.7908
 7880TIP3   OH245130   1.851   0.145   2.337  0.4539  0.6266 -0.5424
 7880TIP3    H145131   1.898   0.216   2.292  1.1860 -0.8361 -2.1321
 7880TIP3    H245132   1.902   0.067   2.319 -0.3862 -0.3376  1.1623
 7881TIP3   OH245133   3.664   4.633   4.379 -0.8353  0.6004  0.5048
 7881TIP3    H145134   3.571   4.653   4.377 -1.4238 -2.0119 -1.2068
 7881TIP3    H245135   3.696   4.657   4.292 -0.0149  0.9224  0.8828
 7882TIP3   OH245136   1.801   4.364   4.986  0.3285 -0.5780  0.5149
 7882TIP3    H145137   1.808   4.383   4.892 -0.4995 -1.8553  0.1734
 7882TIP3    H245138   1.792   4.450   5.028 -1.4319 -0.0960 -0.7803
 7883TIP3   OH245139   0.941   5.991   4.805  0.5451  0.3605  0.5597
 7883TIP3    H145140   0.865   5.933   4.797  0.8859 -0.3098  2.1076
 7883TIP3    H245141   1.015   5.932   4.819  1.4344  0.9838 -1.2594
 7884TIP3   OH245142   1.690   2.802  14.302 -0.2206  0.0950 -0.8669
 7884TIP3    H145143   1.723   2.891  14.298  2.0706 -0.7581 -2.1163
 7884TIP3    H245144   1.768   2.748  14.313 -1.8115 -1.5983  2.6255
 7885TIP3   OH245145   2.429   6.794  12.875 -0.6240 -0.1625 -0.1581
 7885TIP3    H145146   2.342   6.826  12.898 -0.8930 -1.9226  1.3150
 7885TIP3    H245147   2.430   6.703  12.903  1.2822 -0.5171 -1.2779
 7886TIP3   OH245148   6.082   5.007   3.841  0.0861  0.1534 -0.1059
 7886TIP3    H145149   6.011   4.964   3.793  0.4622 -1.4484  0.7169
 7886TIP3    H245150   6.105   5.083   3.788 -0.5318 -0.7355 -1.6713
 7887TIP3   OH245151   3.457   3.021   2.960  0.0891 -0.2217  0.0552
 7887TIP3    H145152   3.430   3.064   2.878  0.9894 -0.7658 -0.5341
 7887TIP3    H245153   3.483   2.933   2.933  2.4075  0.2627  0.5920
 7888TIP3   OH245154   4.493   5.167  11.709  0.2432  0.0961  0.8358
 7888TIP3    H145155   4.494   5.261  11.692  1.9683  0.3133  2.0074
 7888TIP3    H245156   4.433   5.131  11.644  0.2254  1.9020 -0.1626
 7889TIP3   OH245157   3.420   4.676  12.106 -0.4295 -0.1215  0.1686
 7889TIP3    H145158   3.354   4.657  12.039 -2.1501  1.9960  1.2064
 7889TIP3    H245159   3.439   4.769  12.095 -0.4313  0.1525  2.3369
 7890TIP3   OH245160   6.571   1.952  16.315  0.1289 -0.1937  0.2542
 7890TIP3    H145161   6.652   1.980  16.272 -0.4701 -0.8483 -1.3131
 7890TIP3    H245162   6.501   1.983  16.259 -0.5821 -3.5991 -0.8620
 7891TIP3   OH245163   3.354   3.319   4.769  0.0952  0.4186  0.6860
 7891TIP3    H145164   3.297   3.328   4.692  0.8353 -0.3035  0.0342
 7891TIP3    H245165   3.335   3.396   4.822 -1.4510  0.2077  0.4600
 7892TIP3   OH245166   1.988   1.847   4.509  0.1680 -0.0344  0.3476
 7892TIP3    H145167   1.980   1.763   4.463  3.0177 -0.1727  0.0027
 7892TIP3    H245168   2.083   1.860   4.518 -0.2636  1.6029  3.2436
 7893TIP3   OH245169   1.402   0.901   6.276 -0.9135  0.9198  0.0519
 7893TIP3    H145170   1.321   0.927   6.320 -0.3299  1.2485  0.9207
 7893TIP3    H245171   1.438   0.831   6.330  0.7679  2.5875  1.1417
 7894TIP3   OH245172   5.770   0.493  11.560 -0.3078  0.8445 -0.3533
 7894TIP3    H145173   5.725   0.410  11.576 -0.4504  1.1290  0.8033
 7894TIP3    H245174   5.829   0.503  11.635  0.3856  1.3334 -0.9587
 7895TIP3   OH245175   2.626   4.809   4.662  0.4878  0.2197 -1.0762
 7895TIP3    H145176   2.635   4.789   4.755 -0.6265  1.7179 -0.6166
 7895TIP3    H245177   2.562   4.746   4.630 -1.5181  1.7005 -0.0911
 7896TIP3   OH245178   6.463   0.533   4.291 -0.9171  0.2249  0.1217
 7896TIP3    H145179   6.464   0.453   4.240  0.2320 -0.0577  0.5512
 7896TIP3    H245180   6.381   0.577   4.268 -2.2691 -1.7876  1.0120
 7897TIP3   OH245181   0.402   4.996  13.313  0.0908 -0.2720  0.6434
 7897TIP3    H145182   0.404   4.949  13.230  1.4352 -2.4893  1.8980
 7897TIP3    H245183   0.479   5.053  13.311  0.0324 -0.2076  0.2937
 7898TIP3   OH245184   3.662   3.401   0.240  0.0860  0.5368  0.6016
 7898TIP3    H145185   3.648   3.328   0.300  0.7087 -1.1795 -1.2661
 7898TIP3    H245186   3.746   3.382   0.198 -1.1173  0.7750 -2.0172
 7899TIP3   OH245187   2.027   1.797   5.083 -0.1078 -0.3581 -0.1223
 7899TIP3    H145188   2.001   1.706   5.069  1.0462 -0.6760 -0.2007
 7899TIP3    H245189   2.051   1.829   4.996  0.0902 -0.1554  0.0062
 7900TIP3   OH245190   5.951   2.864   4.983  0.0157  0.5925  0.1393
 7900TIP3    H145191   5.856   2.877   4.979 -0.2798 -0.9871  1.6271
 7900TIP3    H245192   5.963   2.770   4.974  1.5639  0.9112 -1.5171
 7901TIP3   OH245193   6.551   2.548   0.885  0.2361  0.3140  0.4775
 7901TIP3    H145194   6.476   2.491   0.875  0.8626  0.0392 -3.3901
 7901TIP3    H245195   6.515   2.632   0.915 -1.4068 -0.2745  0.1527
 7902TIP3   OH245196   3.169   1.130   1.399 -0.3280 -0.3283 -0.2398
 7902TIP3    H145197   3.160   1.215   1.441 -0.1848 -1.0721  1.3440
 7902TIP3    H245198   3.216   1.147   1.318  1.2283  0.8683  0.8852
 7903TIP3   OH245199   1.236   0.930  13.281 -0.4334  0.3208  0.0035
 7903TIP3    H145200   1.150   0.937  13.322 -0.9594  2.0421 -1.3305
 7903TIP3    H245201   1.282   1.009  13.310  0.3638 -0.1105 -0.0736
 7904TIP3   OH245202   5.341   4.866  12.450 -0.0580 -0.3504 -0.3809
 7904TIP3    H145203   5.290   4.893  12.526  1.1417 -2.7043  1.2953
 7904TIP3    H245204   5.411   4.930  12.444 -0.7632  0.4572 -0.1782
 7905TIP3   OH245205   1.372   1.541  11.415  0.0521  0.3358 -0.2586
 7905TIP3    H145206   1.366   1.458  11.367  1.6948  0.4335 -0.6667
 7905TIP3    H245207   1.410   1.602  11.352  1.5426  0.6574  0.9125
 7906TIP3   OH245208   0.947   5.604   1.707 -0.3878  0.8480  0.5766
 7906TIP3    H145209   0.873   5.577   1.652 -0.8957  0.6362  1.3565
 7906TIP3    H245210   1.010   5.642   1.645 -0.9784  0.6756 -0.1427
 7907TIP3   OH245211   4.889   6.323  16.011  0.0353  0.2882  0.1948
 7907TIP3    H145212   4.960   6.386  15.997 -2.3195  3.1338  0.5895
 7907TIP3    H245213   4.851   6.348  16.095 -0.8277 -1.8602  0.4899
 7908TIP3   OH245214   2.552   4.953   5.867 -0.0923  0.0107  0.0474
 7908TIP3    H145215   2.628   4.896   5.882  0.6534  0.6927 -1.0492
 7908TIP3    H245216   2.528   4.983   5.954  0.6264 -0.5639  0.4580
 7909TIP3   OH245217   1.520   0.271  11.945  0.0115 -0.0880 -0.3889
 7909TIP3    H145218   1.507   0.340  12.010  0.1902 -0.3208 -0.1078
 7909TIP3    H245219   1.615   0.269  11.931  0.1007 -0.9763  0.3559
 7910TIP3   OH245220   0.837   0.385  16.291  0.4259  0.2204  0.2772
 7910TIP3    H145221   0.862   0.296  16.266  0.9182  0.0890  1.2044
 7910TIP3    H245222   0.867   0.394  16.381 -1.8110  0.4907  1.0273
 7911TIP3   OH245223   5.660   1.781   4.522 -0.1450  0.5558  0.0409
 7911TIP3    H145224   5.668   1.870   4.555  0.1966  0.4648  0.2011
 7911TIP3    H245225   5.640   1.728   4.599 -0.0441  0.4485 -0.0066
 7912TIP3   OH245226   3.567   6.156   5.125  0.2448  0.2949 -0.3161
 7912TIP3    H145227   3.477   6.132   5.101  0.7388 -1.2215 -0.7143
 7912TIP3    H245228   3.567   6.155   5.221 -0.0231 -0.2519 -0.3194
 7913TIP3   OH245229   5.843   2.996   4.069  0.5002  0.5354 -0.0964
 7913TIP3    H145230   5.819   3.032   4.154  0.0905  0.1685 -0.0550
 7913TIP3    H245231   5.929   2.956   4.084  0.2613  0.1367  0.2477
 7914TIP3   OH245232   4.457   4.144  15.133 -0.1197  0.4583 -0.0631
 7914TIP3    H145233   4.532   4.085  15.136 -0.2254  0.4021  2.1680
 7914TIP3    H245234   4.382   4.090  15.154 -0.3650  1.1519  0.8841
 7915TIP3   OH245235   2.222   0.671   6.213 -0.1324  0.2395 -0.4720
 7915TIP3    H145236   2.239   0.764   6.232  1.6355 -0.0695 -0.4240
 7915TIP3    H245237   2.251   0.626   6.292 -2.0394 -0.2910 -0.0463
 7916TIP3   OH245238   6.805   6.673   4.558  0.5737  0.2042 -0.0309
 7916TIP3    H145239   6.770   6.723   4.484  1.1702  2.3226  1.0909
 7916TIP3    H245240   6.785   6.726   4.634  1.7541 -1.0091  1.1432
 7917TIP3   OH245241   1.081   5.687   1.491 -0.3751  0.3857  0.0067
 7917TIP3    H145242   1.094   5.606   1.442 -1.5948 -0.4505  1.0441
 7917TIP3    H245243   1.169   5.714   1.517  0.3621  1.0977 -2.9814
 7918TIP3   OH245244   4.384   6.114  16.123  0.4273 -0.1911 -0.3557
 7918TIP3    H145245   4.324   6.172  16.076  1.6532 -0.0127 -1.7421
 7918TIP3    H245246   4.335   6.085  16.199 -1.2130  0.4014 -1.1727
 7919TIP3   OH245247   4.740   5.563  10.863 -0.1537  0.5311  0.2426
 7919TIP3    H145248   4.691   5.496  10.815  0.9653 -0.8240  0.9751
 7919TIP3    H245249   4.784   5.614  10.795  0.9052 -0.9703 -0.2094
 7920TIP3   OH245250   0.586   4.876   4.103 -0.0495 -0.8284 -0.2071
 7920TIP3    H145251   0.609   4.958   4.060 -1.0767 -0.5028 -0.1382
 7920TIP3    H245252   0.614   4.888   4.194  2.0761 -1.4978 -0.7416
 7921TIP3   OH245253   4.475   6.394  15.536  0.6186  0.0252 -0.1644
 7921TIP3    H145254   4.486   6.489  15.540  1.2840 -0.0283 -0.7428
 7921TIP3    H245255   4.450   6.377  15.445  0.9828 -0.4043 -0.1846
 7922TIP3   OH245256   1.184   6.062   4.075 -0.2653 -0.1026 -0.6036
 7922TIP3    H145257   1.097   6.101   4.066 -0.2316 -0.2494 -1.6745
 7922TIP3    H245258   1.242   6.136   4.095 -0.5441  0.0892 -0.5128
 7923TIP3   OH245259   5.575   5.148   0.343 -0.2304  0.8906  0.3546
 7923TIP3    H145260   5.563   5.243   0.337  0.5086  0.9447 -0.4819
 7923TIP3    H245261   5.512   5.119   0.409 -0.1535  2.0202  0.9237
 7924TIP3   OH245262   3.658   5.280  16.083  0.2593  0.5484 -0.2213
 7924TIP3    H145263   3.612   5.354  16.045  0.6091  0.4392 -0.8809
 7924TIP3    H245264   3.738   5.318  16.120  0.9831  0.3701 -1.5343
 7925TIP3   OH245265   5.607   4.010   6.169 -0.6414 -0.2745 -0.0953
 7925TIP3    H145266   5.561   3.959   6.102  1.7830 -1.5867 -0.8108
 7925TIP3    H245267   5.622   4.095   6.128  0.2566 -0.8570 -0.9971
 7926TIP3   OH245268   2.022   4.301  14.277  0.0310 -0.6376 -0.0428
 7926TIP3    H145269   2.055   4.378  14.232  2.7284  0.5731  3.7094
 7926TIP3    H245270   2.089   4.234  14.264 -0.0975 -0.8848  0.5446
 7927TIP3   OH245271   1.305   0.057   0.612 -0.2862 -0.4748  0.5139
 7927TIP3    H145272   1.356  -0.022   0.630  2.0000  0.3122 -2.2069
 7927TIP3    H245273   1.287   0.053   0.518 -0.8651  1.8172  0.4889
 7928TIP3   OH245274   0.180   4.463  12.517 -0.0191  0.3635  0.1499
 7928TIP3    H145275   0.206   4.500  12.602  0.8721 -1.7551  0.8365
 7928TIP3    H245276   0.085   4.472  12.515 -0.2453 -1.2306  2.2034
 7929TIP3   OH245277   0.991   3.929   2.429 -0.0702  0.1873 -0.6117
 7929TIP3    H145278   1.053   3.883   2.372  0.2177  1.2762 -1.1888
 7929TIP3    H245279   1.026   4.018   2.435  0.0486  0.0190  1.4978
 7930TIP3   OH245280   6.058   1.124   1.435  0.4503 -0.4719  0.9607
 7930TIP3    H145281   5.988   1.174   1.476 -0.0791  0.9485 -1.5662
 7930TIP3    H245282   6.018   1.041   1.412  0.1795 -0.4727  1.4272
 7931TIP3   OH245283   2.464   4.619  13.796 -0.7214 -0.5004  0.0588
 7931TIP3    H145284   2.451   4.706  13.759 -1.6000 -0.7727 -0.2812
 7931TIP3    H245285   2.489   4.564  13.722  1.8827 -0.1210  0.5961
 7932TIP3   OH245286   1.972   0.159   1.232  0.2795 -0.8948 -0.5788
 7932TIP3    H145287   1.967   0.068   1.263 -0.0069 -0.6044  0.2600
 7932TIP3    H245288   1.915   0.162   1.156 -1.8978 -0.7827  1.0139
 7933TIP3   OH245289   2.320   4.136   5.444  0.2655  0.0662 -0.1872
 7933TIP3    H145290   2.367   4.155   5.525 -0.3315 -0.0110  0.1833
 7933TIP3    H245291   2.348   4.204   5.383  0.7844  0.0713  0.0620
 7934TIP3   OH245292   2.152   5.936   2.702  0.2752  0.4019 -0.2217
 7934TIP3    H145293   2.147   5.844   2.676 -1.2261  0.5389 -0.4551
 7934TIP3    H245294   2.198   5.979   2.630 -0.5540  0.1213 -0.9334
 7935TIP3   OH245295   6.676   4.217   0.879 -0.2680  0.0736 -0.0665
 7935TIP3    H145296   6.612   4.244   0.944  0.7151  0.2836  0.8258
 7935TIP3    H245297   6.660   4.275   0.804  0.5148  1.8309  1.0863
 7936TIP3   OH245298   2.871   4.952   2.188 -0.2733 -0.0332  0.3279
 7936TIP3    H145299   2.825   5.036   2.200 -0.1260 -0.0567  1.0640
 7936TIP3    H245300   2.827   4.912   2.113 -0.6712  0.4856  0.2766
 7937TIP3   OH245301   4.202   4.035   4.480 -0.3745 -0.8041  0.6350
 7937TIP3    H145302   4.126   4.080   4.444  1.9350  1.6261 -1.4586
 7937TIP3    H245303   4.277   4.079   4.439  2.1610 -2.9250  2.8277
 7938TIP3   OH245304   1.663   2.040   2.010 -0.0838 -0.0029 -0.3009
 7938TIP3    H145305   1.659   2.103   1.938 -0.0089  0.1231 -0.1956
 7938TIP3    H245306   1.671   2.095   2.088 -0.1447 -0.1403 -0.1998
 7939TIP3   OH245307   0.925   2.200   0.717  0.3538  0.2230  0.2569
 7939TIP3    H145308   0.988   2.152   0.664 -0.2408  0.4100 -0.6349
 7939TIP3    H245309   0.956   2.291   0.714 -1.1968  0.7002 -2.0518
 7940TIP3   OH245310   3.160   0.701  11.489  0.2998 -0.4281  0.0800
 7940TIP3    H145311   3.117   0.779  11.525  1.4747  0.0739  0.4008
 7940TIP3    H245312   3.170   0.720  11.396 -0.2964 -0.6088 -0.0236
 7941TIP3   OH245313   6.161   2.753   5.531 -0.0924  0.1494 -0.5367
 7941TIP3    H145314   6.199   2.799   5.456 -1.4976 -0.1730 -1.4871
 7941TIP3    H245315   6.171   2.813   5.604 -1.3926  1.7754 -1.6378
 7942TIP3   OH245316   2.478   2.895  11.258 -0.0386 -0.0941 -0.3366
 7942TIP3    H145317   2.476   2.951  11.180  0.5201  0.4772  0.0594
 7942TIP3    H245318   2.483   2.806  11.222  0.7435  0.1900 -0.9588
 7943TIP3   OH245319   5.290   4.724  16.732 -0.0039 -0.2237  0.1137
 7943TIP3    H145320   5.229   4.728  16.658  0.4906 -1.0394 -0.3443
 7943TIP3    H245321   5.344   4.647  16.715  2.0529  1.2528 -0.1830
 7944TIP3   OH245322   5.117   6.498  14.813 -0.4815  0.2183 -0.6183
 7944TIP3    H145323   5.037   6.535  14.851 -0.0344 -0.3902  0.9596
 7944TIP3    H245324   5.110   6.404  14.829 -0.4279 -0.1019 -2.3673
 7945TIP3   OH245325   2.399   3.508  16.657  0.3537  0.0612 -0.4165
 7945TIP3    H145326   2.435   3.597  16.650  0.5609 -0.1463 -2.0260
 7945TIP3    H245327   2.332   3.504  16.589  0.4401 -1.0724 -0.4379
 7946TIP3   OH245328   2.566   4.479  15.837  0.0523  0.3274 -0.0458
 7946TIP3    H145329   2.627   4.519  15.899  1.1868 -0.7583 -0.4283
 7946TIP3    H245330   2.509   4.550  15.809  0.7358  1.2253  0.8248
 7947TIP3   OH245331   4.004   1.558  16.647 -0.2540  0.2985  0.2811
 7947TIP3    H145332   3.995   1.560  16.742  0.4739  1.7074  0.3264
 7947TIP3    H245333   4.098   1.566  16.631 -0.2539 -1.1486 -0.5375
 7948TIP3   OH245334   3.458   0.400   2.626  0.2218  0.2177 -0.1120
 7948TIP3    H145335   3.421   0.383   2.712  0.8693  0.0325  0.1356
 7948TIP3    H245336   3.385   0.387   2.565 -0.8286  2.5978  0.5808
 7949TIP3   OH245337   6.371   6.220   1.167  0.3429  0.0774 -0.1868
 7949TIP3    H145338   6.359   6.167   1.246 -0.6107 -0.0349 -0.3933
 7949TIP3    H245339   6.282   6.234   1.134  0.7521 -0.2035 -1.4496
 7950TIP3   OH245340   1.687   2.052  11.328  0.1383  0.4522  0.1723
 7950TIP3    H145341   1.705   2.015  11.414 -0.7170 -2.1173 -0.7196
 7950TIP3    H245342   1.600   2.021  11.305 -0.0994  1.9955 -1.1724
 7951TIP3   OH245343   4.127   2.546  11.661  0.5005  0.1586  0.4885
 7951TIP3    H145344   4.095   2.504  11.740  1.7773 -2.7100 -0.4662
 7951TIP3    H245345   4.050   2.587  11.622 -1.0928 -2.5615  0.6874
 7952TIP3   OH245346   5.822   3.241   1.259  0.3859  0.3287 -0.3087
 7952TIP3    H145347   5.841   3.247   1.353 -0.7098  1.0186 -0.1128
 7952TIP3    H245348   5.839   3.150   1.236 -0.3115 -0.0843  0.7849
 7953TIP3   OH245349   3.015   3.231   0.970 -0.0755  0.1827 -0.1628
 7953TIP3    H145350   3.019   3.136   0.953  0.9563 -0.1005  1.4862
 7953TIP3    H245351   2.965   3.238   1.052  2.1322  0.8263  1.1781
 7954TIP3   OH245352   3.664   3.488   5.054  0.3656 -0.1544 -0.0795
 7954TIP3    H145353   3.622   3.573   5.068  0.4417 -0.1343  0.0303
 7954TIP3    H245354   3.743   3.508   5.003  1.4105  0.0901  1.5961
 7955TIP3   OH245355   5.363   1.537   5.454 -0.0190  0.1778 -0.1465
 7955TIP3    H145356   5.280   1.558   5.497  1.1690  0.6243  1.9894
 7955TIP3    H245357   5.346   1.455   5.409 -1.9069  0.7662 -0.5776
 7956TIP3   OH245358   2.590   5.922  10.654  0.1868 -0.0646  0.4848
 7956TIP3    H145359   2.586   5.903  10.747 -3.1119 -1.5913  0.1005
 7956TIP3    H245360   2.665   5.872  10.622  3.0544  2.6369  2.7110
 7957TIP3   OH245361   2.545   3.363  12.743  0.2828 -0.0937 -0.7192
 7957TIP3    H145362   2.454   3.335  12.735 -0.5580  1.7896  1.5427
 7957TIP3    H245363   2.594   3.283  12.760 -1.2134 -0.9000 -0.1673
 7958TIP3   OH245364   1.929   0.890   0.824 -1.1470  0.3271 -0.0663
 7958TIP3    H145365   1.899   0.961   0.768 -0.1927  1.0973  0.3927
 7958TIP3    H245366   1.859   0.825   0.820 -1.6115  0.8905 -1.2110
 7959TIP3   OH245367   5.923   5.833  13.984 -0.0690  0.4394  0.1018
 7959TIP3    H145368   6.009   5.832  14.026 -0.4782  0.4971  0.9497
 7959TIP3    H245369   5.909   5.924  13.960  0.2115  0.3894 -0.2435
 7960TIP3   OH245370   1.686   1.184   4.562 -0.1049  0.3308 -0.0708
 7960TIP3    H145371   1.619   1.161   4.497  0.9182  1.0298 -1.3900
 7960TIP3    H245372   1.660   1.271   4.593  0.8773  1.1556 -1.5170
 7961TIP3   OH245373   2.283   0.380  15.745 -0.4480 -0.2101 -0.4081
 7961TIP3    H145374   2.278   0.322  15.670 -0.1661 -0.8964  0.0922
 7961TIP3    H245375   2.253   0.465  15.713  0.1860 -0.3691 -1.4221
 7962TIP3   OH245376   4.073   2.475  14.449  0.1641 -0.8012  0.3995
 7962TIP3    H145377   4.168   2.478  14.453  0.1740  3.7250 -1.1784
 7962TIP3    H245378   4.054   2.404  14.388  2.5255 -0.9726 -0.1788
 7963TIP3   OH245379   2.087   3.009   6.570  0.6266 -0.4487 -0.2718
 7963TIP3    H145380   2.054   2.950   6.501 -0.5511  0.9925 -0.9665
 7963TIP3    H245381   2.170   3.041   6.536  0.3554 -0.2366 -0.7404
 7964TIP3   OH245382   5.908   1.199   5.003  0.2599 -0.6273  0.2388
 7964TIP3    H145383   5.988   1.208   5.056 -0.4020  0.7940  1.0306
 7964TIP3    H245384   5.940   1.183   4.915  1.3980 -1.7995  0.8392
 7965TIP3   OH245385   4.132   2.327  14.141  0.3031  0.3943  0.4996
 7965TIP3    H145386   4.186   2.403  14.121 -1.5226  1.2169 -1.5167
 7965TIP3    H245387   4.123   2.328  14.236  1.4881  1.8564  0.6176
 7966TIP3   OH245388   4.474   4.631  12.724  0.2728  0.3668 -0.1869
 7966TIP3    H145389   4.454   4.584  12.643  0.1913 -0.9217  0.5597
 7966TIP3    H245390   4.441   4.719  12.710  0.0969  0.0993 -1.4884
 7967TIP3   OH245391   1.622   6.169  14.466 -0.1629 -0.3579  0.6799
 7967TIP3    H145392   1.592   6.118  14.541  1.2159 -0.3190  1.2704
 7967TIP3    H245393   1.693   6.116  14.428  2.0296  1.5840  1.9378
 7968TIP3   OH245394   1.177   3.746  14.322  0.0288  0.0149  0.4244
 7968TIP3    H145395   1.169   3.674  14.260 -0.8303  1.7834 -1.5423
 7968TIP3    H245396   1.099   3.799  14.309  0.4761  1.1341  2.0944
 7969TIP3   OH245397   5.446   2.589  16.788 -0.4176 -0.2009  0.1395
 7969TIP3    H145398   5.368   2.553  16.746 -0.1608 -0.3800 -0.1826
 7969TIP3    H245399   5.411   2.652  16.851 -0.7648  0.6116 -0.8543
 7970TIP3   OH245400   4.930   4.733  11.596 -0.0040 -0.2115  0.2094
 7970TIP3    H145401   4.943   4.757  11.505 -1.2581 -1.4287 -0.3202
 7970TIP3    H245402   5.013   4.695  11.624  0.0938 -0.6890 -0.7222
 7971TIP3   OH245403   5.225   6.168  14.723  0.1474  0.1640  0.0706
 7971TIP3    H145404   5.160   6.099  14.736  0.9487 -0.3317  1.5789
 7971TIP3    H245405   5.193   6.217  14.648 -0.2337 -2.0783 -1.2767
 7972TIP3   OH245406   5.388   4.323   2.098  0.5457 -0.1261  0.5048
 7972TIP3    H145407   5.303   4.282   2.113  0.4026  0.8315  2.5938
 7972TIP3    H245408   5.438   4.303   2.177  1.4009  1.3845  0.3736
 7973TIP3   OH245409   0.891   3.135  12.428 -0.4163  0.2522 -0.3297
 7973TIP3    H145410   0.940   3.194  12.371 -0.7890  2.1177  1.2317
 7973TIP3    H245411   0.822   3.189  12.465 -0.0764 -0.8577  2.0188
 7974TIP3   OH245412   6.631   3.539   2.406 -1.2278 -0.4736  0.2083
 7974TIP3    H145413   6.685   3.579   2.337 -0.9145  2.2436  1.9329
 7974TIP3    H245414   6.541   3.550   2.376 -1.0902  0.6127  0.1757
 7975TIP3   OH245415   4.445   5.805  16.624  0.1514 -0.0153  0.0657
 7975TIP3    H145416   4.392   5.760  16.690  0.2718  0.5430  0.5373
 7975TIP3    H245417   4.512   5.740  16.601  0.2603 -0.1251  0.6691
 7976TIP3   OH245418   5.855   6.374   5.577  0.3319 -0.1994  0.0341
 7976TIP3    H145419   5.773   6.423   5.580  0.8370  0.6477  0.1416
 7976TIP3    H245420   5.831   6.290   5.538 -0.4575  0.2967 -0.5570
 7977TIP3   OH245421   4.586   3.981  16.775 -0.3086  0.3544  0.1898
 7977TIP3    H145422   4.575   4.055  16.715  1.1701  0.6255  0.2543
 7977TIP3    H245423   4.551   4.013  16.859 -0.8066  0.5524 -0.0912
 7978TIP3   OH245424   2.830   5.011   0.733 -0.4093  0.0973 -0.6667
 7978TIP3    H145425   2.799   5.030   0.644 -2.6298 -1.5286 -0.2725
 7978TIP3    H245426   2.871   4.925   0.726  2.5261  1.4604 -0.8040
 7979TIP3   OH245427   0.349   1.111  16.604 -0.3798 -0.0751  0.2084
 7979TIP3    H145428   0.330   1.112  16.510 -0.0881  0.1747  0.1492
 7979TIP3    H245429   0.317   1.196  16.636 -2.1283 -0.8957  0.6702
 7980TIP3   OH245430   3.729   3.748   1.239  0.3656 -0.2262 -0.2073
 7980TIP3    H145431   3.809   3.709   1.274  0.4813 -1.4209 -1.7290
 7980TIP3    H245432   3.715   3.826   1.292  2.4710 -0.0730  0.1767
 7981TIP3   OH245433   0.987   4.650   2.322 -0.5920  0.4742 -0.2495
 7981TIP3    H145434   1.027   4.737   2.328 -2.5644  1.4017 -0.1548
 7981TIP3    H245435   1.003   4.611   2.408 -2.2258  1.9005  0.7411
 7982TIP3   OH245436   4.779   0.918  16.645 -0.0098  0.0706  0.7900
 7982TIP3    H145437   4.811   0.999  16.606  0.4393 -0.0230  0.9616
 7982TIP3    H245438   4.852   0.856  16.634 -0.2588 -0.2404  0.8749
 7983TIP3   OH245439   3.819   0.241  11.561  0.4929 -0.0749  0.5359
 7983TIP3    H145440   3.914   0.238  11.575  0.3693 -1.4234  1.2196
 7983TIP3    H245441   3.796   0.151  11.538 -0.3743  0.6218 -1.3958
 7984TIP3   OH245442   5.625   0.985  12.358  0.4199  0.0233 -0.7500
 7984TIP3    H145443   5.650   0.893  12.364  1.3254  0.3175  0.0490
 7984TIP3    H245444   5.593   0.995  12.268 -0.4810 -1.2610 -0.5827
 7985TIP3   OH245445   4.592   6.107  13.265 -0.1441 -0.2891  0.4127
 7985TIP3    H145446   4.613   6.027  13.217  0.7217 -1.1075  2.0838
 7985TIP3    H245447   4.662   6.114  13.331 -0.6012  1.4614  0.7343
 7986TIP3   OH245448   4.168   5.855  13.056 -0.4184 -0.1227  0.2562
 7986TIP3    H145449   4.080   5.870  13.022 -0.3234 -0.2868 -0.0601
 7986TIP3    H245450   4.156   5.845  13.151 -0.9798 -2.0694 -0.0012
 7987TIP3   OH245451   0.895   5.419  15.824  0.3050 -0.2834  0.0817
 7987TIP3    H145452   0.803   5.441  15.835 -0.0665 -1.3592 -0.7987
 7987TIP3    H245453   0.932   5.426  15.912 -0.4967  0.6539  0.3530
 7988TIP3   OH245454   0.482   2.513   4.948  0.1299 -0.2992  0.3684
 7988TIP3    H145455   0.445   2.437   4.901  2.0357  0.6946 -2.9289
 7988TIP3    H245456   0.406   2.556   4.987 -1.2201 -2.7728  0.5782
 7989TIP3   OH245457   4.127   4.214   5.942 -0.0248 -0.3364  0.6102
 7989TIP3    H145458   4.216   4.179   5.939 -0.7333 -2.1641  0.5640
 7989TIP3    H245459   4.105   4.217   6.035 -0.1701 -0.4875  0.5783
 7990TIP3   OH245460   0.156   4.347   5.085  0.0285  0.2397  0.4094
 7990TIP3    H145461   0.143   4.362   4.991  0.2472 -0.1678  0.3089
 7990TIP3    H245462   0.086   4.397   5.128  1.9945  3.2885  0.2114
 7991TIP3   OH245463   3.689   1.304  12.800 -0.1628 -0.4677  0.0872
 7991TIP3    H145464   3.610   1.331  12.755  0.2464  3.2710  1.4942
 7991TIP3    H245465   3.660   1.277  12.887 -0.0020  0.1066  0.3216
 7992TIP3   OH245466   2.960   5.503  14.698 -0.8000 -0.1118  0.1673
 7992TIP3    H145467   2.910   5.547  14.630 -1.6562  0.0824  0.9118
 7992TIP3    H245468   2.937   5.411  14.690 -0.4582 -0.1711 -0.1686
 7993TIP3   OH245469   6.407   1.574  14.255 -0.0890  0.0687  0.1843
 7993TIP3    H145470   6.370   1.656  14.223  1.9555  0.6157 -0.8592
 7993TIP3    H245471   6.501   1.587  14.251  0.2551 -1.9772  0.9833
 7994TIP3   OH245472   6.807   5.489  16.863 -0.2657  0.5347 -0.0389
 7994TIP3    H145473   6.752   5.456  16.934  1.4595 -2.5482 -0.0570
 7994TIP3    H245474   6.895   5.459  16.886  0.6335  1.2731 -2.4460
 7995TIP3   OH245475   6.028   5.268   4.544 -0.1592  0.2569 -0.3733
 7995TIP3    H145476   6.101   5.275   4.484 -0.4889  1.3873 -0.6414
 7995TIP3    H245477   6.008   5.358   4.569 -0.9883 -0.0949  0.2582
 7996TIP3   OH245478   3.346   4.749   1.150  0.2218 -0.2456  0.5289
 7996TIP3    H145479   3.268   4.804   1.150  1.5468  1.9680 -4.1757
 7996TIP3    H245480   3.316   4.663   1.179 -3.1346  1.4586  2.3476
 7997TIP3   OH245481   2.977   6.503   1.331  0.4382  0.3010 -0.0148
 7997TIP3    H145482   3.065   6.468   1.316  0.1624 -0.4720  0.1534
 7997TIP3    H245483   2.982   6.545   1.417  0.0872 -1.5887  0.9509
 7998TIP3   OH245484   0.216   5.945  13.645  0.2737 -0.7783 -0.2301
 7998TIP3    H145485   0.124   5.943  13.668  0.9038 -0.8003  2.4190
 7998TIP3    H245486   0.228   5.870  13.586 -1.5361 -0.2732 -1.2761
 7999TIP3   OH245487   5.469   0.099   3.984 -0.0617  0.7081 -0.2621
 7999TIP3    H145488   5.464   0.135   4.073  0.7575  1.8041 -0.6445
 7999TIP3    H245489   5.562   0.103   3.963  0.0171 -1.3626 -0.4484
 8000TIP3   OH245490   0.487   6.762  12.653 -0.0508  0.6670 -0.2708
 8000TIP3    H145491   0.395   6.754  12.677  0.1961  0.7747  0.7057
 8000TIP3    H245492   0.534   6.718  12.724  0.7365  1.8612 -0.0406
 8001TIP3   OH245493   1.228   2.777  13.409 -0.0639  0.0276  0.4187
 8001TIP3    H145494   1.255   2.776  13.501  0.3620  1.6869  0.3236
 8001TIP3    H245495   1.144   2.730  13.409 -0.3866  0.5729  1.7624
 8002TIP3   OH245496   2.703   6.620   1.720 -0.3527 -0.4593 -0.5142
 8002TIP3    H145497   2.790   6.656   1.739 -0.0096 -1.4145 -0.2921
 8002TIP3    H245498   2.695   6.627   1.625 -1.4572  2.8911 -0.2385
 8003TIP3   OH245499   3.247   2.823  13.155 -0.2026  0.6289  0.0438
 8003TIP3    H145500   3.243   2.875  13.074 -0.2389  1.5148  0.6158
 8003TIP3    H245501   3.319   2.861  13.205  0.1864 -0.2785  0.1917
 8004TIP3   OH245502   3.349   0.411   4.587 -0.0936 -0.0554  0.3211
 8004TIP3    H145503   3.297   0.441   4.662  0.1731 -1.2770  1.0120
 8004TIP3    H245504   3.313   0.459   4.512 -0.6910  0.8142  1.1443
 8005TIP3   OH245505   0.558   2.441   0.264 -0.1133 -0.3165  0.0638
 8005TIP3    H145506   0.491   2.497   0.302  2.0597  1.3448  1.5841
 8005TIP3    H245507   0.527   2.423   0.175 -1.9956  1.3368  0.3594
 8006TIP3   OH245508   1.370   3.514   0.026 -0.2224 -0.4241 -0.0185
 8006TIP3    H145509   1.374   3.418   0.026 -1.6517 -0.5037 -1.9972
 8006TIP3    H245510   1.332   3.537  -0.059  1.4146  1.9730 -0.1610
 8007TIP3   OH245511   0.564   4.060   0.919 -0.2022  0.5718  0.0373
 8007TIP3    H145512   0.589   4.080   0.829 -0.6106  1.9335  0.2077
 8007TIP3    H245513   0.581   4.142   0.967 -1.5074  0.3662  0.8692
 8008TIP3   OH245514   3.064   5.583   4.783 -0.1669 -0.1836  0.7097
 8008TIP3    H145515   3.043   5.593   4.690 -0.4432 -0.9242  0.6839
 8008TIP3    H245516   3.159   5.589   4.787 -0.2437  1.2283  0.5629
 8009TIP3   OH245517   0.548   1.910   1.852  0.2099 -0.2302  0.2105
 8009TIP3    H145518   0.462   1.899   1.813  0.5558 -0.6461 -0.4480
 8009TIP3    H245519   0.532   1.910   1.947 -0.5472  0.0576  0.0819
 8010TIP3   OH245520   1.887   1.443  14.538  1.1303 -0.5764 -0.0628
 8010TIP3    H145521   1.842   1.522  14.567  0.3629 -1.7757  2.1168
 8010TIP3    H245522   1.980   1.466  14.538  0.9267  0.2519  0.7826
 8011TIP3   OH245523   1.327   1.745   0.437  0.4145 -0.8690 -0.2805
 8011TIP3    H145524   1.333   1.753   0.533 -1.4231  1.6562 -0.3439
 8011TIP3    H245525   1.252   1.686   0.424  0.9745 -1.6161 -0.1778
 8012TIP3   OH245526   1.952   3.789  15.649 -0.1758  0.1917  0.3100
 8012TIP3    H145527   1.961   3.734  15.727 -1.1762  0.2316  0.4680
 8012TIP3    H245528   1.868   3.834  15.662 -0.8571 -0.6034 -1.2934
 8013TIP3   OH245529   1.843   0.273   5.264 -0.0260 -0.5076 -0.3702
 8013TIP3    H145530   1.772   0.307   5.319  0.6706 -0.7998  0.7268
 8013TIP3    H245531   1.923   0.304   5.307  0.5193 -0.0865 -1.6633
 8014TIP3   OH245532   1.734   4.061  10.968 -0.1149  1.0843 -0.0691
 8014TIP3    H145533   1.649   4.069  10.925 -0.3285 -2.2912 -0.4444
 8014TIP3    H245534   1.797   4.080  10.899 -0.5339  0.2542 -0.6940
 8015TIP3   OH245535   4.399   1.105   6.766 -0.0247  0.1585 -0.1936
 8015TIP3    H145536   4.347   1.184   6.783 -1.6991 -0.8333 -0.5606
 8015TIP3    H245537   4.358   1.037   6.819  0.6712 -0.7353 -0.7744
 8016TIP3   OH245538   0.516   3.085  11.605 -0.3899  0.0967  0.4844
 8016TIP3    H145539   0.487   3.077  11.514 -0.1017 -1.0995  0.4895
 8016TIP3    H245540   0.584   3.017  11.614  0.5930  1.1525  1.1868
 8017TIP3   OH245541   5.296   3.559  12.546 -0.2825 -0.0332  0.0710
 8017TIP3    H145542   5.288   3.524  12.634  1.2146 -1.1794 -0.2303
 8017TIP3    H245543   5.283   3.483  12.489  0.5023  0.3615 -0.6483
 8018TIP3   OH245544   4.142   4.423  11.166 -0.2023 -0.0842 -0.0357
 8018TIP3    H145545   4.068   4.413  11.106  0.2344 -1.6858 -0.3150
 8018TIP3    H245546   4.152   4.337  11.207 -0.9003  1.1486  2.8440
 8019TIP3   OH245547   6.147   2.588   4.160 -0.2977  0.1372 -0.0974
 8019TIP3    H145548   6.129   2.499   4.188  2.4242 -0.1204  1.0265
 8019TIP3    H245549   6.063   2.633   4.163 -0.8416 -1.0393  4.3247
 8020TIP3   OH245550   6.478   0.976  15.160 -0.0073 -0.2807  0.1562
 8020TIP3    H145551   6.476   0.931  15.245 -0.2387 -0.0545  0.2700
 8020TIP3    H245552   6.405   1.037  15.163  0.3302  0.1348  0.0170
 8021TIP3   OH245553   4.796   4.779   1.403  0.2193  0.0724  0.3785
 8021TIP3    H145554   4.864   4.829   1.448  0.9416  1.1520 -1.8568
 8021TIP3    H245555   4.844   4.708   1.359 -0.1412  0.5094 -0.7443
 8022TIP3   OH245556   2.971   5.419  10.649  0.4737  0.6666  0.2242
 8022TIP3    H145557   2.897   5.436  10.592  3.0825 -0.1006 -3.5607
 8022TIP3    H245558   2.940   5.350  10.708 -1.2844 -0.9717 -2.4913
 8023TIP3   OH245559   5.250   6.219   4.352 -0.1412 -0.0925 -0.2979
 8023TIP3    H145560   5.165   6.242   4.316 -0.7632  1.6664  2.1596
 8023TIP3    H245561   5.279   6.299   4.397  2.3035 -1.0041 -0.1782
 8024TIP3   OH245562   4.550   5.714  11.174  0.0082 -0.1979  0.9875
 8024TIP3    H145563   4.522   5.772  11.245 -2.1138  0.1321 -0.0785
 8024TIP3    H245564   4.543   5.626  11.211  0.6359  0.0690  1.7509
 8025TIP3   OH245565   2.398   3.618   1.299  0.2755 -0.3892  0.2266
 8025TIP3    H145566   2.397   3.615   1.395 -0.2142  1.1997  0.2824
 8025TIP3    H245567   2.312   3.651   1.275  0.6542 -0.0976 -0.7474
 8026TIP3   OH245568   1.827   1.489   0.490 -0.3715 -0.1190  0.2759
 8026TIP3    H145569   1.821   1.413   0.433 -1.3483 -0.3121  0.6191
 8026TIP3    H245570   1.828   1.452   0.579  1.5450  0.1512  0.3838
 8027TIP3   OH245571   1.023   2.359   0.205  0.1799 -0.2700 -0.2149
 8027TIP3    H145572   1.091   2.353   0.273 -2.5844 -1.2427  2.5905
 8027TIP3    H245573   1.003   2.268   0.183 -0.6383 -0.0140 -0.5524
 8028TIP3   OH245574   4.204   1.775  11.012  0.1676 -0.6417  0.3826
 8028TIP3    H145575   4.169   1.755  11.099 -1.4156 -1.8160 -0.5166
 8028TIP3    H245576   4.135   1.750  10.951  1.4641 -0.3143 -1.2665
 8029TIP3   OH245577   1.869   3.715   2.428 -0.3902 -0.3485  0.1451
 8029TIP3    H145578   1.936   3.714   2.360 -1.5926 -2.5352 -1.0575
 8029TIP3    H245579   1.800   3.772   2.393 -0.1062  0.2071  0.4717
 8030TIP3   OH245580   0.418   2.163  16.007 -0.1597  0.2469 -0.2845
 8030TIP3    H145581   0.491   2.197  15.955  0.3813 -1.4061 -0.6247
 8030TIP3    H245582   0.442   2.183  16.097  0.5022  0.1377 -0.4318
 8031TIP3   OH245583   3.325   4.641  15.424  0.3479 -0.1392 -0.0921
 8031TIP3    H145584   3.371   4.607  15.347 -0.2476  0.7953 -0.8757
 8031TIP3    H245585   3.280   4.720  15.392 -1.2849 -0.6851  0.7980
 8032TIP3   OH245586   0.100   0.449  14.189 -0.8004 -0.6363  0.1696
 8032TIP3    H145587   0.062   0.468  14.103 -1.1137 -0.8821  0.2562
 8032TIP3    H245588   0.194   0.437  14.171 -0.7317  0.1288 -0.0175
 8033TIP3   OH245589   2.323   3.958   4.692 -0.2369 -0.0903  0.7412
 8033TIP3    H145590   2.323   3.893   4.622  1.3368  2.0341 -1.2943
 8033TIP3    H245591   2.238   4.000   4.687 -1.3633 -2.0661  2.2242
 8034TIP3   OH245592   5.942   5.216  12.529 -0.0390 -0.0446  0.3557
 8034TIP3    H145593   5.920   5.155  12.599 -0.3928 -1.1364 -0.6955
 8034TIP3    H245594   5.873   5.205  12.464  0.5537  0.6054 -0.3982
 8035TIP3   OH245595   3.928   4.416  17.221 -0.1948 -0.1838  0.5120
 8035TIP3    H145596   3.903   4.330  17.254 -0.4245 -0.4716 -0.3758
 8035TIP3    H245597   3.847   4.452  17.184  0.0643  0.1020  0.2209
 8036TIP3   OH245598   3.104   2.305  15.758  0.3412 -0.2863 -0.2195
 8036TIP3    H145599   3.177   2.264  15.711  0.8779  0.6798 -0.2407
 8036TIP3    H245600   3.073   2.373  15.698 -1.9265 -2.0440 -1.0922
 8037TIP3   OH245601   3.494   2.828   5.971  0.0197 -0.3446 -0.3660
 8037TIP3    H145602   3.510   2.840   5.878  2.9489  0.4453  0.2006
 8037TIP3    H245603   3.494   2.916   6.007 -1.8721 -0.5851  0.3106
 8038TIP3   OH245604   0.927   5.048  14.726 -0.0951 -0.6285  0.2882
 8038TIP3    H145605   0.884   5.022  14.808 -0.7565  0.3195  0.2504
 8038TIP3    H245606   1.018   5.062  14.750 -0.6666  1.5284  1.2845
 8039TIP3   OH245607   3.761   1.670  16.623 -0.0916 -0.2458  0.0148
 8039TIP3    H145608   3.790   1.761  16.631 -1.2870  0.1524 -0.1243
 8039TIP3    H245609   3.840   1.618  16.636  0.4025  0.7897  1.1942
 8040TIP3   OH245610   2.884   5.624   0.321 -0.0514  0.1674  0.4385
 8040TIP3    H145611   2.840   5.603   0.403  0.1130  1.3945  0.8486
 8040TIP3    H245612   2.967   5.579   0.326  0.3741  1.0393  1.3919
 8041TIP3   OH245613   3.344   0.395   3.555 -0.9469 -0.3684  0.6425
 8041TIP3    H145614   3.303   0.324   3.506  0.2307  0.6309 -1.8998
 8041TIP3    H245615   3.307   0.475   3.518  1.6489  0.4733 -0.2662
 8042TIP3   OH245616   6.092   4.297   5.156 -0.1100 -0.3439  0.3100
 8042TIP3    H145617   5.997   4.310   5.160 -0.3330 -1.3040 -1.5407
 8042TIP3    H245618   6.113   4.258   5.241 -2.1019 -4.2955 -0.8406
 8043TIP3   OH245619   5.346   3.516   4.444 -0.1752 -0.1026 -0.9938
 8043TIP3    H145620   5.281   3.499   4.376 -0.9320  0.0797 -0.3313
 8043TIP3    H245621   5.294   3.535   4.522  0.6153  5.0581 -1.5972
 8044TIP3   OH245622   2.497   5.773   6.676  0.4521 -0.2479  0.2194
 8044TIP3    H145623   2.407   5.751   6.700  0.5963 -1.6765 -0.4727
 8044TIP3    H245624   2.514   5.856   6.719 -1.3212  0.2126  0.0698
 8045TIP3   OH245625   0.671   4.751  16.234 -0.0617  0.0999  0.0599
 8045TIP3    H145626   0.666   4.806  16.156  0.1030 -0.6895 -0.5116
 8045TIP3    H245627   0.584   4.756  16.273 -1.0829 -1.9575 -1.8606
 8046TIP3   OH245628   2.689   6.335   1.500  0.2828 -0.1984  1.0526
 8046TIP3    H145629   2.769   6.290   1.472 -2.0441 -3.1799 -1.2588
 8046TIP3    H245630   2.684   6.320   1.594  1.0975 -2.2462  0.7915
 8047TIP3   OH245631   3.284   0.726   0.460 -0.4404 -0.9051 -0.3375
 8047TIP3    H145632   3.258   0.779   0.384 -1.3057 -1.6372 -0.5559
 8047TIP3    H245633   3.270   0.784   0.535 -1.2255 -0.7674 -0.5893
 8048TIP3   OH245634   5.111   5.533   5.855 -0.6818  0.1838 -0.2808
 8048TIP3    H145635   5.100   5.623   5.887 -2.2413  0.3005 -1.1084
 8048TIP3    H245636   5.086   5.478   5.930 -0.5153  0.4325 -0.0385
 8049TIP3   OH245637   1.077   6.418   2.566 -0.0053  0.5539  1.0577
 8049TIP3    H145638   1.029   6.484   2.518 -0.9593  0.0513  1.2970
 8049TIP3    H245639   1.132   6.375   2.501 -0.9757  0.1585  0.4908
 8050TIP3   OH245640   4.611   4.574  11.985  0.3344 -0.1924 -0.1360
 8050TIP3    H145641   4.704   4.558  11.966 -0.1493 -3.5086 -0.0044
 8050TIP3    H245642   4.565   4.540  11.908 -0.8719  0.0852  0.4579
 8051TIP3   OH245643   1.695   5.329   2.294  0.4645  0.0251  0.0428
 8051TIP3    H145644   1.666   5.408   2.247  0.3486 -0.0490 -0.0089
 8051TIP3    H245645   1.696   5.261   2.227  0.4034 -0.0567  0.1264
 8052TIP3   OH245646   1.422   3.573   2.295  0.3049 -0.3412 -0.3467
 8052TIP3    H145647   1.466   3.527   2.224  1.8653  1.7318 -0.7486
 8052TIP3    H245648   1.487   3.578   2.365 -0.7447 -1.0811  0.7174
 8053TIP3   OH245649   5.056   3.184  10.810  0.3636  0.1917 -0.1319
 8053TIP3    H145650   5.144   3.219  10.796 -0.1815  1.3287 -0.8505
 8053TIP3    H245651   5.055   3.157  10.902  1.3431  0.5353 -0.0101
 8054TIP3   OH245652   6.490   5.094   0.237  0.1519 -0.3016 -0.3539
 8054TIP3    H145653   6.442   5.145   0.172 -0.7499  0.5747  0.9762
 8054TIP3    H245654   6.529   5.023   0.187 -1.3330 -0.2018 -1.7047
 8055TIP3   OH245655   5.209   2.957  14.540 -0.3574  0.4220 -0.0662
 8055TIP3    H145656   5.141   2.994  14.597 -0.3955  2.5653 -1.4402
 8055TIP3    H245657   5.197   3.002  14.457  0.7712 -1.4627 -1.2787
 8056TIP3   OH245658   3.647   1.119   6.252  0.2830 -0.2084  0.2724
 8056TIP3    H145659   3.554   1.116   6.229  0.4575 -1.4207 -0.3373
 8056TIP3    H245660   3.649   1.104   6.347 -0.2148  1.0686  0.4861
 8057TIP3   OH245661   5.045   5.585   4.843  0.4695 -0.6101 -0.0656
 8057TIP3    H145662   5.082   5.522   4.780  1.9914 -0.6736  0.8737
 8057TIP3    H245663   5.116   5.647   4.859 -0.3811  0.2129  0.5254
 8058TIP3   OH245664   2.825   5.988   5.632  0.2033  0.2435  0.2098
 8058TIP3    H145665   2.746   6.003   5.581  1.4679  0.3887 -1.7973
 8058TIP3    H245666   2.824   6.056   5.699 -0.3231  1.5943 -1.1311
 8059TIP3   OH245667   1.788   4.746   4.802 -0.6303 -0.6187 -0.9428
 8059TIP3    H145668   1.830   4.680   4.747  2.1298 -0.7113  1.2034
 8059TIP3    H245669   1.766   4.700   4.883 -1.2294  0.4098 -0.5087
 8060TIP3   OH245670   0.593   5.847   1.977 -0.2830  0.1443  0.0881
 8060TIP3    H145671   0.614   5.767   2.025 -0.5727 -0.8258 -1.3543
 8060TIP3    H245672   0.498   5.857   1.985 -0.2659  0.2634  0.1485
 8061TIP3   OH245673   1.560   5.618  17.105  0.4819 -0.0164  1.0040
 8061TIP3    H145674   1.486   5.620  17.165 -0.4955 -0.0792 -0.1707
 8061TIP3    H245675   1.635   5.591  17.159 -0.2247  0.6488  2.3266
 8062TIP3   OH245676   2.459   5.870   2.797 -0.9332  0.2710 -0.2494
 8062TIP3    H145677   2.451   5.791   2.850  0.2669  0.2309 -0.1292
 8062TIP3    H245678   2.539   5.912   2.828 -1.2559  1.2402 -0.7122
 8063TIP3   OH245679   0.965   2.303  12.585  0.9437 -0.2725  0.1729
 8063TIP3    H145680   1.049   2.295  12.539  1.5510 -1.2636  1.4296
 8063TIP3    H245681   0.979   2.376  12.646  0.1839  0.9560 -1.1223
 8064TIP3   OH245682   3.088   2.748  16.483 -0.3484 -0.1668 -0.2579
 8064TIP3    H145683   3.013   2.689  16.485 -0.8492  0.4912  1.0812
 8064TIP3    H245684   3.121   2.743  16.393 -1.9056 -0.5781 -0.8118
 8065TIP3   OH245685   3.141   6.305  12.200  0.4741 -0.7029 -0.5782
 8065TIP3    H145686   3.210   6.371  12.201 -0.1757 -0.0179 -0.1315
 8065TIP3    H245687   3.062   6.353  12.176  0.3048 -1.6473 -1.9700
 8066TIP3   OH245688   4.895   1.956  12.345 -0.5610 -0.2846 -0.5079
 8066TIP3    H145689   4.861   1.904  12.418 -0.4883 -2.2238 -1.8346
 8066TIP3    H245690   4.936   1.893  12.287  0.3175  1.3689 -1.7303
 8067TIP3   OH245691   3.262   1.698  16.825 -0.1375 -0.7136 -0.2880
 8067TIP3    H145692   3.326   1.629  16.813 -2.2470 -2.9393  0.7195
 8067TIP3    H245693   3.247   1.701  16.920 -1.2042  0.0383 -0.4660
 8068TIP3   OH245694   5.221   0.149   5.756 -0.2148  0.2063 -0.1655
 8068TIP3    H145695   5.182   0.069   5.721 -0.8413 -0.0615  1.1265
 8068TIP3    H245696   5.278   0.181   5.685  0.9583 -2.0049 -0.2515
 8069TIP3   OH245697   5.263   6.092  12.693 -0.1824  0.4321  0.3955
 8069TIP3    H145698   5.296   6.182  12.693 -1.3747  0.8861  1.9371
 8069TIP3    H245699   5.256   6.069  12.786  1.8682 -1.9256  0.0239
 8070TIP3   OH245700   5.057   1.355   3.495 -0.0702  0.1855  0.6940
 8070TIP3    H145701   4.998   1.294   3.538 -1.3866 -0.7587 -2.2856
 8070TIP3    H245702   5.131   1.301   3.467  0.1297  0.5074  0.5931
 8071TIP3   OH245703   2.509   2.437   3.766  0.3293 -0.1080  0.2450
 8071TIP3    H145704   2.497   2.418   3.859  0.6231  0.7886  0.4691
 8071TIP3    H245705   2.581   2.501   3.763  0.7584 -0.6087 -0.6393
 8072TIP3   OH245706   5.269   2.532   0.423 -0.0820 -0.3596 -0.2557
 8072TIP3    H145707   5.285   2.613   0.374  0.4468 -0.6363 -0.5482
 8072TIP3    H245708   5.350   2.515   0.471 -1.0321  0.5764  1.7201
 8073TIP3   OH245709   5.721   4.051   1.083 -0.4086  0.3065  0.5006
 8073TIP3    H145710   5.704   4.084   0.995 -0.4417 -0.2599  0.2919
 8073TIP3    H245711   5.815   4.033   1.085 -0.2697  1.0373  0.8318
 8074TIP3   OH245712   6.557   0.715  15.047 -0.2494 -0.3339  1.0109
 8074TIP3    H145713   6.496   0.789  15.037  0.1863 -0.2221 -1.0744
 8074TIP3    H245714   6.505   0.638  15.023  0.8554 -0.0530 -2.5208
 8075TIP3   OH245715   1.922   4.912   2.526 -0.5552  0.0788  0.0170
 8075TIP3    H145716   2.011   4.879   2.536 -0.8358 -1.5555 -2.4537
 8075TIP3    H245717   1.925   5.000   2.564  2.9615  1.3298 -2.8332
 8076TIP3   OH245718   2.967   4.167   1.172 -0.5315  0.0328 -0.3428
 8076TIP3    H145719   3.046   4.146   1.222  0.1640  2.0326 -0.5435
 8076TIP3    H245720   2.896   4.158   1.236 -0.0075 -0.5213  0.1770
 8077TIP3   OH245721   2.719   6.521   0.964 -0.0765 -0.3633 -0.1966
 8077TIP3    H145722   2.786   6.514   0.896 -0.6114 -1.6936 -0.6112
 8077TIP3    H245723   2.651   6.575   0.924  0.1644 -0.1054 -0.2621
 8078TIP3   OH245724   4.667   2.503  14.006 -0.1025  0.6334  0.3978
 8078TIP3    H145725   4.696   2.594  13.995 -1.2286  0.7778 -1.6140
 8078TIP3    H245726   4.708   2.456  13.934  1.8147 -0.8209  2.3803
 8079TIP3   OH245727   2.978   3.056   4.209  0.2827  0.4766 -0.8026
 8079TIP3    H145728   2.952   3.034   4.299  0.8576  1.8323 -0.2844
 8079TIP3    H245729   3.005   3.148   4.214  1.9420  0.0711 -2.0206
 8080TIP3   OH245730   2.145   4.640   6.877  0.5004  0.5280  0.8070
 8080TIP3    H145731   2.212   4.707   6.859 -0.9654  1.9881  0.6173
 8080TIP3    H245732   2.063   4.680   6.846 -0.3550 -1.5238  0.3408
 8081TIP3   OH245733   0.316   6.428   4.995  0.0819 -0.1476 -0.0967
 8081TIP3    H145734   0.251   6.449   4.928 -0.4155  0.0365  0.4379
 8081TIP3    H245735   0.268   6.377   5.061  0.0808  1.3416  1.0867
 8082TIP3   OH245736   4.154   6.310   1.181 -0.3578  0.7252  0.3679
 8082TIP3    H145737   4.227   6.365   1.154 -0.4855  1.9196  2.3526
 8082TIP3    H245738   4.079   6.369   1.184 -1.2768 -0.3420 -0.9884
 8083TIP3   OH245739   2.181   3.381   0.651  0.3421  0.8345 -0.2198
 8083TIP3    H145740   2.225   3.310   0.606 -1.4686  0.1321 -0.9424
 8083TIP3    H245741   2.101   3.342   0.686  0.1408  2.1208  0.8107
 8084TIP3   OH245742   1.617   5.656   2.985 -0.2523 -0.0787 -0.0072
 8084TIP3    H145743   1.620   5.710   2.905  2.0879 -2.3683 -1.5496
 8084TIP3    H245744   1.595   5.568   2.953  1.3641 -1.1609  1.8039
 8085TIP3   OH245745   0.167   3.759  15.341  0.1207 -0.1544  0.1665
 8085TIP3    H145746   0.198   3.686  15.395 -0.0009 -0.5592 -0.3014
 8085TIP3    H245747   0.238   3.775  15.279  0.7906  1.1419  1.2315
 8086TIP3   OH245748   1.972   4.075   2.161  0.7220 -0.0022  0.2542
 8086TIP3    H145749   1.994   3.982   2.172 -0.5055 -0.6468 -2.3991
 8086TIP3    H245750   2.042   4.110   2.106  1.1101  0.6216  1.1371
 8087TIP3   OH245751   5.390   2.429  17.201  0.3827  0.1823 -0.1940
 8087TIP3    H145752   5.419   2.501  17.257 -1.1597  1.7021 -1.3214
 8087TIP3    H245753   5.303   2.407  17.234 -0.6377  1.2531 -2.1481
 8088TIP3   OH245754   0.591   5.903   4.047  0.1123  0.1512  0.9771
 8088TIP3    H145755   0.687   5.900   4.047  0.1563  0.3497  3.7271
 8088TIP3    H245756   0.568   5.938   3.961  2.5517  1.3367  0.7778
 8089TIP3   OH245757   1.235   3.573   0.267  0.1330  0.1670 -0.1740
 8089TIP3    H145758   1.291   3.562   0.343  0.5287  2.0443 -0.1585
 8089TIP3    H245759   1.291   3.551   0.192  0.8909  1.9283 -0.1512
 8090TIP3   OH245760   5.123   1.569   5.608 -0.8000 -0.9623  0.1207
 8090TIP3    H145761   5.196   1.588   5.666  0.2376  0.3115 -1.5511
 8090TIP3    H245762   5.047   1.605   5.652  0.0358  0.3957  0.4875
 8091TIP3   OH245763   3.855   3.421   5.810  0.9269  0.5397 -0.1369
 8091TIP3    H145764   3.914   3.447   5.740  0.4970 -0.0648 -0.7368
 8091TIP3    H245765   3.873   3.328   5.824 -2.3102 -0.6396 -2.8370
 8092TIP3   OH245766   5.672   2.479   1.386 -0.2368  0.3099  0.5213
 8092TIP3    H145767   5.613   2.412   1.421 -1.1971  1.6295  1.5073
 8092TIP3    H245768   5.719   2.435   1.316 -2.9951 -0.5767 -0.8583
 8093TIP3   OH245769   6.771   3.538  15.112  0.4931 -0.0458  0.5054
 8093TIP3    H145770   6.808   3.614  15.157  0.5600  0.0738  0.2436
 8093TIP3    H245771   6.801   3.545  15.022 -0.6683  0.3969  0.1363
 8094TIP3   OH245772   4.539   0.012   2.532  0.4695  0.4201 -0.6509
 8094TIP3    H145773   4.600   0.011   2.459  2.9407 -1.5846  1.3464
 8094TIP3    H245774   4.574   0.077   2.592  1.1400 -1.3206  0.8762
 8095TIP3   OH245775   3.985   4.426   1.245 -0.4751 -0.2858 -0.1979
 8095TIP3    H145776   3.969   4.342   1.201  0.2447 -0.7584  0.4228
 8095TIP3    H245777   3.977   4.406   1.338 -0.8012  0.4521 -0.0615
 8096TIP3   OH245778   1.036   3.605   4.933 -0.5094 -0.5183 -0.3489
 8096TIP3    H145779   1.045   3.699   4.915 -1.6580 -0.1471  0.9632
 8096TIP3    H245780   0.961   3.578   4.880 -1.3543 -0.2885  0.7198
 8097TIP3   OH245781   1.975   5.234   5.912  0.1213 -0.4537  0.2857
 8097TIP3    H145782   1.962   5.327   5.930  1.2059  0.0785 -1.5462
 8097TIP3    H245783   2.068   5.219   5.933 -0.3640 -1.4459  1.8192
 8098TIP3   OH245784   6.121   5.249  15.436  0.4355 -0.6646  0.1133
 8098TIP3    H145785   6.188   5.194  15.478  0.5787 -2.7925 -2.7732
 8098TIP3    H245786   6.166   5.290  15.362 -0.9668 -0.6814 -0.7721
 8099TIP3   OH245787   4.668   5.327   3.629  0.4473 -0.6157 -0.0485
 8099TIP3    H145788   4.723   5.277   3.568  0.9000 -0.9560  0.6392
 8099TIP3    H245789   4.690   5.419   3.610  1.0611 -0.7439  0.0418
 8100TIP3   OH245790   1.518   5.551   4.748 -0.0048  0.0144  0.0657
 8100TIP3    H145791   1.571   5.472   4.736 -0.2423 -0.1763  0.2759
 8100TIP3    H245792   1.513   5.590   4.660  1.9797  0.9909  0.3560
 8101TIP3   OH245793   5.279   6.038   0.678  0.1439  0.0622 -0.4540
 8101TIP3    H145794   5.352   6.100   0.671  0.4654 -0.1920  0.5300
 8101TIP3    H245795   5.256   6.017   0.587  0.6515  0.8990 -0.7744
 8102TIP3   OH245796   1.545   0.906   0.763 -0.4576  0.4276 -0.4991
 8102TIP3    H145797   1.524   0.948   0.679 -0.4811 -0.2738 -0.8436
 8102TIP3    H245798   1.606   0.836   0.740 -0.0251  0.5892  0.1445
 8103TIP3   OH245799   5.223   4.677  15.524  0.7672  0.2261 -0.5522
 8103TIP3    H145800   5.240   4.770  15.534 -0.1878  0.5211 -1.5988
 8103TIP3    H245801   5.277   4.650  15.449 -0.7868  0.4650 -1.7786
 8104TIP3   OH245802   5.528   1.846  16.341  0.1171  0.1325 -0.1266
 8104TIP3    H145803   5.606   1.839  16.396 -0.5017 -0.7588  0.6677
 8104TIP3    H245804   5.527   1.764  16.291 -0.7481 -0.2353  0.4777
 8105TIP3   OH245805   4.447   1.974   0.201  0.1318  0.1066 -0.1331
 8105TIP3    H145806   4.362   1.929   0.193 -0.0812  0.2200  1.2303
 8105TIP3    H245807   4.424   2.063   0.228  0.6656  0.2292 -0.0875
 8106TIP3   OH245808   4.668   0.973   1.901 -0.2088  0.5147 -0.2267
 8106TIP3    H145809   4.610   0.912   1.947  2.1994  0.6143  3.0771
 8106TIP3    H245810   4.720   0.918   1.843  2.4448 -0.8333  3.2454
 8107TIP3   OH245811   6.247   4.340   2.268  0.3092  0.4509 -0.4935
 8107TIP3    H145812   6.246   4.263   2.325  1.7217  0.9137  0.1694
 8107TIP3    H245813   6.256   4.414   2.329 -0.4405  1.1096 -1.1675
 8108TIP3   OH245814   3.924   4.200  14.693  0.6079 -0.1293  0.0714
 8108TIP3    H145815   3.931   4.127  14.755 -1.4350 -0.0713  0.4091
 8108TIP3    H245816   4.013   4.213  14.662  1.1552 -2.2327  0.6345
 8109TIP3   OH245817   5.780   4.867  12.446 -0.2721  0.0308  0.0250
 8109TIP3    H145818   5.741   4.839  12.363  0.6446  1.3615 -0.8809
 8109TIP3    H245819   5.765   4.962  12.449  2.7146  0.5767 -0.2986
 8110TIP3   OH245820   0.404   1.536   3.590 -0.1243  0.2649 -0.1725
 8110TIP3    H145821   0.439   1.572   3.509  3.6626  1.2090  1.7484
 8110TIP3    H245822   0.438   1.447   3.594  1.2486  0.8007  1.1342
 8111TIP3   OH245823   2.426   1.964   2.444 -0.0229 -0.3379 -0.3065
 8111TIP3    H145824   2.355   1.903   2.460 -1.1509  1.1825  0.5701
 8111TIP3    H245825   2.407   2.001   2.358 -1.7575  1.9687  1.0042
 8112TIP3   OH245826   1.465   6.616   5.304  0.0511 -0.1289  0.5155
 8112TIP3    H145827   1.399   6.560   5.264  0.0343  1.0671 -1.1971
 8112TIP3    H245828   1.415   6.688   5.342  0.2889  0.3854 -0.1257
 8113TIP3   OH245829   6.029   2.715  13.583 -0.6605  0.6081  0.7796
 8113TIP3    H145830   6.056   2.767  13.507  0.0738  0.7966  1.1684
 8113TIP3    H245831   6.002   2.780  13.648 -2.9976  0.4133  0.0709
 8114TIP3   OH245832   6.263   0.695  11.721  0.2697  0.0267  0.1010
 8114TIP3    H145833   6.176   0.655  11.728  0.1887 -0.0806 -1.3576
 8114TIP3    H245834   6.321   0.634  11.767 -0.3515 -0.1154  0.7094
 8115TIP3   OH245835   4.908   3.971  15.674 -0.0806 -0.0444  0.0540
 8115TIP3    H145836   4.885   4.046  15.728  1.2916  0.9679 -0.7264
 8115TIP3    H245837   4.824   3.934  15.648 -0.7735  0.9304  0.8404
 8116TIP3   OH245838   4.130   3.435   1.428 -0.3777  0.4679  0.1321
 8116TIP3    H145839   4.147   3.387   1.509  1.7894  0.4936 -0.2895
 8116TIP3    H245840   4.067   3.380   1.381 -0.1880 -0.4998  0.9953
 8117TIP3   OH245841   0.081   1.254   4.333 -0.6757  0.1558  0.5464
 8117TIP3    H145842   0.129   1.333   4.360 -2.3795  1.1577  0.6821
 8117TIP3    H245843   0.000   1.257   4.384 -0.3282 -2.1960  1.2688
 8118TIP3   OH245844   2.343   5.786  14.832  0.2756 -0.2111  0.2955
 8118TIP3    H145845   2.318   5.699  14.863  2.1684 -1.2603 -0.9325
 8118TIP3    H245846   2.261   5.832  14.818 -0.7042 -1.2124  2.6126
 8119TIP3   OH245847   2.412   6.292  13.161  0.4717  0.3009 -0.3236
 8119TIP3    H145848   2.343   6.258  13.105  2.1767 -1.2841 -1.4918
 8119TIP3    H245849   2.453   6.215  13.200  2.8490  1.0815 -1.1627
 8120TIP3   OH245850   0.198   2.706   2.911 -0.2625  0.2724  0.2401
 8120TIP3    H145851   0.219   2.737   2.823 -1.1156  0.9157  0.2505
 8120TIP3    H245852   0.282   2.703   2.956  0.6203 -3.0106 -1.4786
 8121TIP3   OH245853   5.184   0.562  17.201 -0.7056 -0.6011 -0.0385
 8121TIP3    H145854   5.229   0.608  17.130 -2.5459 -0.6427 -1.2468
 8121TIP3    H245855   5.250   0.556  17.270  0.3291  1.6815 -0.7704
 8122TIP3   OH245856   2.662   2.638   2.341 -0.5246 -0.1682  0.3498
 8122TIP3    H145857   2.745   2.595   2.321  0.1887 -0.0841  3.0089
 8122TIP3    H245858   2.630   2.594   2.419 -1.9865  1.1360  0.5104
 8123TIP3   OH245859   0.743   5.702   4.404 -0.1262  0.2635  0.2365
 8123TIP3    H145860   0.687   5.674   4.477  1.8981 -2.6851  0.7444
 8123TIP3    H245861   0.764   5.793   4.424  1.0843 -0.7127  3.8988
 8124TIP3   OH245862   3.614   0.010  16.735 -0.0338 -0.4785  0.3217
 8124TIP3    H145863   3.679   0.074  16.707 -0.0289 -0.1062  1.1624
 8124TIP3    H245864   3.576   0.048  16.814 -1.5678 -0.4905 -0.3909
 8125TIP3   OH245865   4.648   5.065  16.993 -0.0696  0.0147  0.0109
 8125TIP3    H145866   4.659   4.994  16.930 -1.8157 -0.4269  0.1935
 8125TIP3    H245867   4.706   5.134  16.961 -0.3135 -0.5167 -1.6239
 8126TIP3   OH245868   2.206   3.773   5.809  0.3970  0.0812 -0.0994
 8126TIP3    H145869   2.295   3.737   5.809  0.4141  0.1173  0.8167
 8126TIP3    H245870   2.154   3.708   5.760  1.0172  0.3072 -1.0723
 8127TIP3   OH245871   0.631   2.226   0.442  0.0593 -0.0950  0.9101
 8127TIP3    H145872   0.579   2.281   0.384  2.1306  0.7485 -0.2092
 8127TIP3    H245873   0.642   2.278   0.522  1.4938  0.9247  0.0859
 8128TIP3   OH245874   3.722   6.745   5.031  0.1390  0.0826  0.2073
 8128TIP3    H145875   3.671   6.822   5.004 -2.8941 -1.8523  0.1963
 8128TIP3    H245876   3.786   6.733   4.961 -0.4184  1.6506 -0.6006
 8129TIP3   OH245877   2.860   5.852   4.005 -0.2185 -0.0724  0.2840
 8129TIP3    H145878   2.900   5.906   3.937 -0.6916  0.0815  0.1307
 8129TIP3    H245879   2.829   5.774   3.958  1.4946 -1.0223  0.6772
 8130TIP3   OH245880   3.990   1.748  10.634  0.2021 -0.2198  0.4352
 8130TIP3    H145881   4.007   1.669  10.582  0.4488  0.1702 -0.0723
 8130TIP3    H245882   4.073   1.796  10.634  0.0595  0.0322  0.7632
 8131TIP3   OH245883   2.851   1.615   2.682 -0.3337  0.1482  0.2431
 8131TIP3    H145884   2.814   1.616   2.594  0.7578  0.3456 -0.2204
 8131TIP3    H245885   2.779   1.644   2.739 -0.6627  1.2308 -0.7145
 8132TIP3   OH245886   2.515   0.480  12.629 -0.4155 -0.2144  1.3357
 8132TIP3    H145887   2.503   0.448  12.719  1.5276 -1.3236  1.2304
 8132TIP3    H245888   2.543   0.402  12.580  1.0224  0.9184  0.3275
 8133TIP3   OH245889   5.131   0.060  15.157  0.2654  0.2211 -0.0533
 8133TIP3    H145890   5.171  -0.021  15.188 -2.1576 -0.8888  0.2687
 8133TIP3    H245891   5.136   0.054  15.062 -3.9601 -2.5318 -0.2351
 8134TIP3   OH245892   6.252   4.980  12.432  0.3875 -0.1844  0.4699
 8134TIP3    H145893   6.169   4.938  12.409  1.8972 -2.7590 -0.6395
 8134TIP3    H245894   6.296   4.993  12.348  2.0671 -1.0584  1.1719
 8135TIP3   OH245895   5.723   0.866  11.749  0.1680 -0.0668  1.3506
 8135TIP3    H145896   5.653   0.904  11.696  0.7398 -0.4573  0.3146
 8135TIP3    H245897   5.678   0.808  11.810 -0.4358 -0.1380  0.8436
 8136TIP3   OH245898   0.602   0.030   1.229  0.2079  0.7616 -0.0972
 8136TIP3    H145899   0.691   0.052   1.255  0.8014 -1.1365 -0.4551
 8136TIP3    H245900   0.595  -0.064   1.243 -1.0879  0.5467 -1.9752
 8137TIP3   OH245901   1.464   6.543  16.474  0.8103  0.5074  0.2164
 8137TIP3    H145902   1.405   6.539  16.398 -1.1693  0.9578  1.6940
 8137TIP3    H245903   1.432   6.474  16.532  1.1416  1.3721  1.4442
 8138TIP3   OH245904   5.886   2.964  12.152 -0.2384 -0.2288  0.7065
 8138TIP3    H145905   5.809   3.016  12.129 -0.5275 -0.0765  2.0120
 8138TIP3    H245906   5.876   2.883  12.102 -0.4235  0.4350 -0.3615
 8139TIP3   OH245907   0.804   5.828  15.663 -0.2511 -0.0585  0.8188
 8139TIP3    H145908   0.720   5.784  15.674 -0.4570  0.3475  0.8940
 8139TIP3    H245909   0.830   5.851  15.752  0.0526 -0.3915  0.8157
 8140TIP3   OH245910   5.525   3.235  10.695  0.1633  0.1140  0.2364
 8140TIP3    H145911   5.604   3.260  10.742  0.7183  0.6464 -0.9558
 8140TIP3    H245912   5.511   3.143  10.718  2.7592 -0.8342 -1.7401
 8141TIP3   OH245913   5.393   0.189   1.136 -0.0151  0.5245 -0.2612
 8141TIP3    H145914   5.380   0.268   1.189 -0.7125  0.5332 -0.4484
 8141TIP3    H245915   5.449   0.133   1.191 -0.9405  0.4270  0.5922
 8142TIP3   OH245916   4.481   2.560   2.736 -0.6265 -0.2302 -1.0479
 8142TIP3    H145917   4.451   2.600   2.654 -1.5538  0.4454 -0.3859
 8142TIP3    H245918   4.442   2.473   2.735 -0.4002 -0.3332 -1.4495
 8143TIP3   OH245919   4.830   5.920   5.661  0.0651  0.5656 -0.0343
 8143TIP3    H145920   4.810   5.827   5.676 -1.7749  1.0459  0.7481
 8143TIP3    H245921   4.808   5.962   5.744 -0.2976  1.8750 -0.7844
 8144TIP3   OH245922   2.137   0.057  16.035 -0.1714 -0.2049  0.1683
 8144TIP3    H145923   2.060   0.048  15.980 -0.1978 -1.4378  0.4031
 8144TIP3    H245924   2.108   0.109  16.110 -0.4270  0.4745 -0.3921
 8145TIP3   OH245925   5.478   0.148   0.313 -0.5085 -0.0649  0.0125
 8145TIP3    H145926   5.485   0.053   0.318 -1.3769 -0.0900  1.1916
 8145TIP3    H245927   5.427   0.172   0.391  1.6706  1.5883  0.9920
 8146TIP3   OH245928   4.995   3.560  11.341  0.6396 -0.5044  0.2772
 8146TIP3    H145929   4.976   3.607  11.260 -0.8685 -0.6068  0.5674
 8146TIP3    H245930   4.915   3.512  11.361  1.1635 -0.8578  1.5764
 8147TIP3   OH245931   4.612   0.847  13.375  0.3996 -0.4340  0.3346
 8147TIP3    H145932   4.580   0.842  13.466 -1.2513 -0.0590 -0.1968
 8147TIP3    H245933   4.590   0.937  13.348  3.0654  0.2445  0.3311
 8148TIP3   OH245934   3.230   3.295  13.956 -0.1487 -1.2319  0.7958
 8148TIP3    H145935   3.162   3.284  13.890  0.6241 -1.0547 -0.0367
 8148TIP3    H245936   3.233   3.211  14.001 -0.7069 -1.3407  0.6359
 8149TIP3   OH245937   0.008   5.419   1.551 -0.1872  0.5604 -0.3596
 8149TIP3    H145938  -0.062   5.484   1.552  0.1780  0.9448  0.3305
 8149TIP3    H245939  -0.032   5.340   1.515 -1.0910  0.6518  0.4412
 8150TIP3   OH245940   3.193   0.508  14.591  0.3761  0.2216 -0.3377
 8150TIP3    H145941   3.279   0.517  14.631 -0.2270  0.5037  0.9112
 8150TIP3    H245942   3.180   0.591  14.545 -0.9001  1.8558  2.8082
 8151TIP3   OH245943   2.923   5.849   6.022 -0.4735 -0.3481  0.1886
 8151TIP3    H145944   3.013   5.877   6.031 -0.5542  0.6340 -1.8481
 8151TIP3    H245945   2.928   5.766   5.973 -0.7446  0.6269 -1.5506
 8152TIP3   OH245946   1.037   5.439  14.333 -0.4374 -0.3083  0.8598
 8152TIP3    H145947   1.117   5.441  14.386 -0.1901  1.2147  0.4418
 8152TIP3    H245948   0.966   5.437  14.398 -0.1006  0.1973  1.2539
 8153TIP3   OH245949   2.238   5.209   5.326 -0.3937  0.5368  0.1678
 8153TIP3    H145950   2.269   5.124   5.357  0.3702  1.2152  1.3319
 8153TIP3    H245951   2.301   5.235   5.259  0.5368  1.0860  1.2401
 8154TIP3   OH245952   2.818   1.096   2.586 -0.3645 -0.5742  0.3488
 8154TIP3    H145953   2.806   1.136   2.500  2.0883 -0.6451 -0.0444
 8154TIP3    H245954   2.752   1.027   2.590 -1.9286  0.8053 -0.5916
 8155TIP3   OH245955   4.288   3.230   2.175 -0.0430  0.1427 -0.6031
 8155TIP3    H145956   4.264   3.316   2.140  0.6339 -0.0312 -1.5150
 8155TIP3    H245957   4.285   3.241   2.270  0.7259  1.3561 -0.7122
 8156TIP3   OH245958   3.795   6.323  14.466  0.1769  0.8808 -0.2516
 8156TIP3    H145959   3.855   6.378  14.515  1.8421 -1.9356  0.9788
 8156TIP3    H245960   3.752   6.268  14.532  0.0267 -0.6576 -1.5853
 8157TIP3   OH245961   5.010   3.199  15.336  0.6603  0.5828 -0.0631
 8157TIP3    H145962   4.917   3.194  15.316  1.1785 -0.9492 -2.4335
 8157TIP3    H245963   5.018   3.168  15.426 -1.0378 -0.2297 -0.1799
 8158TIP3   OH245964   0.347   1.370   2.787  0.0280  0.3128 -1.0430
 8158TIP3    H145965   0.357   1.294   2.844 -1.4549  1.8969  1.4825
 8158TIP3    H245966   0.435   1.407   2.781  0.2555 -0.0176  0.0800
 8159TIP3   OH245967   6.382   4.180  11.135  0.0097  0.0173  0.2216
 8159TIP3    H145968   6.477   4.171  11.130  0.0466  0.5915 -0.1856
 8159TIP3    H245969   6.348   4.091  11.135  0.5776 -0.1994  0.8920
 8160TIP3   OH245970   6.195   3.700   0.484  0.3654 -0.2492  0.0561
 8160TIP3    H145971   6.254   3.730   0.415  0.3717  0.8676  0.5348
 8160TIP3    H245972   6.253   3.681   0.558  0.1929  0.2136  0.3106
 8161TIP3   OH245973   2.112   4.199  13.192 -0.6794 -0.5584 -0.0296
 8161TIP3    H145974   2.068   4.212  13.276 -0.0098 -0.1633  0.2669
 8161TIP3    H245975   2.055   4.140  13.144 -1.5002 -0.0959  0.3743
 8162TIP3   OH245976   1.556   4.720  15.621 -0.1564 -0.2413  0.3039
 8162TIP3    H145977   1.466   4.723  15.653  0.1525  2.2599  1.0656
 8162TIP3    H245978   1.554   4.660  15.547 -2.2917 -0.7773  0.7734
 8163TIP3   OH245979   1.805   4.860  13.912  0.3059  0.1233 -0.0630
 8163TIP3    H145980   1.841   4.909  13.839  1.9850 -1.1670 -0.1304
 8163TIP3    H245981   1.809   4.769  13.884 -0.5476 -0.2591  1.0060
 8164TIP3   OH245982   4.877   3.026  11.356 -0.1057 -0.2664  0.2924
 8164TIP3    H145983   4.830   2.964  11.300  1.9774  0.0208 -1.8642
 8164TIP3    H245984   4.810   3.060  11.415 -1.8582 -2.5123 -0.3058
 8165TIP3   OH245985   1.542   4.772   0.946 -0.2121  0.1447 -0.2400
 8165TIP3    H145986   1.537   4.677   0.943  0.3558  0.1083 -0.0642
 8165TIP3    H245987   1.626   4.793   0.905  0.4745  0.4805  1.3195
 8166TIP3   OH245988   5.441   5.707   5.752  0.2640 -0.1444  0.2449
 8166TIP3    H145989   5.383   5.680   5.681  0.7392  0.7829 -0.5171
 8166TIP3    H245990   5.384   5.715   5.828 -0.2774 -1.0101 -0.0569
 8167TIP3   OH245991   2.580   5.899  10.926  0.4828 -0.5434  0.1766
 8167TIP3    H145992   2.654   5.922  10.983  0.3635 -0.7091  0.3992
 8167TIP3    H245993   2.508   5.955  10.957  0.1664 -1.2619  0.7737
 8168TIP3   OH245994   5.547   2.247   1.206  0.5333  0.3941  0.1373
 8168TIP3    H145995   5.502   2.331   1.202  1.2031  0.7635  0.2753
 8168TIP3    H245996   5.500   2.196   1.272 -0.2287  0.4435 -0.3589
 8169TIP3   OH245997   5.171   3.047   1.901 -0.2685 -0.0358 -0.3477
 8169TIP3    H145998   5.192   3.134   1.868 -1.8211  0.4539 -0.1000
 8169TIP3    H245999   5.232   3.034   1.974 -1.4737  1.7837  1.0406
 8170TIP3   OH246000   6.039   1.314  17.292  0.6810  0.1960  0.1666
 8170TIP3    H146001   5.983   1.292  17.367 -1.9521 -0.0809 -1.8008
 8170TIP3    H246002   5.985   1.373  17.239  2.7563  0.9184 -1.1844
 8171TIP3   OH246003   6.192   0.077  13.112  0.0319  0.5901  1.0064
 8171TIP3    H146004   6.256   0.144  13.138 -0.2900  1.2273  0.1767
 8171TIP3    H246005   6.233   0.034  13.037 -0.5286  1.0257  0.4494
 8172TIP3   OH246006   1.726   5.543   1.728  0.0888 -0.7400  0.0095
 8172TIP3    H146007   1.818   5.530   1.751  0.4057  0.7591 -0.3880
 8172TIP3    H246008   1.724   5.541   1.633 -0.2406 -0.4455  0.0081
 8173TIP3   OH246009   4.248   0.848  15.166  0.6405 -0.5948  0.6446
 8173TIP3    H146010   4.244   0.940  15.192 -0.5720 -0.4014 -0.2015
 8173TIP3    H246011   4.158   0.818  15.170  0.8375 -1.3638 -0.4314
 8174TIP3   OH246012   2.835   5.198  16.818  0.2783 -0.0579 -0.1974
 8174TIP3    H146013   2.796   5.117  16.786 -1.5770  0.4480  0.7514
 8174TIP3    H246014   2.854   5.248  16.738  0.2930 -0.9012 -0.7279
 8175TIP3   OH246015   0.050   1.255   5.075 -0.0671  0.2557  0.4200
 8175TIP3    H146016   0.142   1.261   5.048 -0.2957 -1.1063 -0.7575
 8175TIP3    H246017   0.003   1.238   4.994 -1.2316 -0.1310  1.1670
 8176TIP3   OH246018   3.266   5.867   3.554 -0.4337  0.3013  0.2057
 8176TIP3    H146019   3.175   5.899   3.556 -0.5170  0.0455  1.2052
 8176TIP3    H246020   3.308   5.917   3.484 -1.4344  0.1875 -0.4934
 8177TIP3   OH246021   3.377   4.651   0.647  0.4159 -0.0378 -0.2709
 8177TIP3    H146022   3.335   4.736   0.638  1.1874  0.2651 -1.1259
 8177TIP3    H246023   3.471   4.670   0.642  0.6170 -0.8323  0.4066
 8178TIP3   OH246024   6.041   5.434   2.778 -1.0394  0.0038 -0.4317
 8178TIP3    H146025   6.071   5.504   2.835 -0.6521 -0.2311 -0.3483
 8178TIP3    H246026   6.115   5.374   2.771 -2.5134 -2.2880  2.4216
 8179TIP3   OH246027   4.218   0.134  11.321  0.0903  0.2497 -0.7628
 8179TIP3    H146028   4.233   0.222  11.356 -0.6612  0.3038 -0.5699
 8179TIP3    H246029   4.125   0.133  11.299 -0.6258 -1.5131  2.1267
 8180TIP3   OH246030   0.655   5.598   5.993 -0.1120 -0.7632  1.0515
 8180TIP3    H146031   0.577   5.652   5.980  0.4430 -0.0395  0.6689
 8180TIP3    H246032   0.647   5.566   6.082  0.8440  2.1065  2.2386
 8181TIP3   OH246033   3.530   1.411   4.322  0.1680 -0.5303 -0.1464
 8181TIP3    H146034   3.488   1.418   4.236  0.2712  1.2114 -0.0778
 8181TIP3    H246035   3.623   1.428   4.304  0.4123 -1.5669  0.1095
 8182TIP3   OH246036   0.067   4.479   4.855 -0.0889  0.4705 -0.0237
 8182TIP3    H146037  -0.012   4.499   4.805 -0.7768 -3.0083 -0.5021
 8182TIP3    H246038   0.139   4.497   4.795 -0.7768 -0.7906 -1.2614
 8183TIP3   OH246039   4.701   2.326   6.026 -0.2076  0.2163 -0.0372
 8183TIP3    H146040   4.770   2.261   6.016 -2.0560 -1.5431 -1.6294
 8183TIP3    H246041   4.655   2.300   6.106 -1.3622 -0.8255 -1.0414
 8184TIP3   OH246042   5.574   1.086  12.602  0.0561 -0.0735  0.6688
 8184TIP3    H146043   5.662   1.056  12.624 -0.2198 -1.4540 -0.0656
 8184TIP3    H246044   5.560   1.057  12.512 -0.5207  1.6303  0.1924
 8185TIP3   OH246045   6.455   6.336   4.429  0.1237 -0.5045 -0.6674
 8185TIP3    H146046   6.406   6.256   4.449 -0.9111 -0.1207 -1.6461
 8185TIP3    H246047   6.545   6.316   4.456 -0.7060 -0.9300  1.8867
 8186TIP3   OH246048   2.777   1.140  17.259  0.3145 -0.0210  0.2230
 8186TIP3    H146049   2.801   1.215  17.203  0.2583 -0.5568 -0.5284
 8186TIP3    H246050   2.686   1.122  17.237  0.6458 -0.9949 -0.3987
 8187TIP3   OH246051   2.421   4.987  14.385  0.0040  0.1153  0.1406
 8187TIP3    H146052   2.381   4.913  14.341  0.8901  0.3356 -1.0391
 8187TIP3    H246053   2.506   4.999  14.342  0.1315  1.4288  0.7206
 8188TIP3   OH246054   1.140   1.841   2.528 -0.2086  0.0014  0.0372
 8188TIP3    H146055   1.162   1.868   2.617 -0.2811 -0.7150  0.2774
 8188TIP3    H246056   1.081   1.766   2.539 -1.6065  0.9919 -0.6030
 8189TIP3   OH246057   3.786   0.191  16.650 -0.4135  0.0317 -0.2535
 8189TIP3    H146058   3.779   0.283  16.623  1.6156 -0.0184 -1.0048
 8189TIP3    H246059   3.880   0.174  16.654 -0.7625 -1.6917  1.0198
 8190TIP3   OH246060   4.401   6.142  11.702  0.2992 -0.5359  0.3616
 8190TIP3    H146061   4.468   6.201  11.666  0.9375 -1.1130  0.6007
 8190TIP3    H246062   4.354   6.196  11.766  1.1733 -0.4034  0.9048
 8191TIP3   OH246063   4.693   4.118   3.251  0.6048 -0.9110  0.1372
 8191TIP3    H146064   4.692   4.212   3.234  2.7594 -0.7584  0.5956
 8191TIP3    H246065   4.661   4.078   3.170 -1.0875  0.2273  0.2241
 8192TIP3   OH246066   0.220   2.554   5.923 -0.7994 -0.2496  0.2723
 8192TIP3    H146067   0.271   2.631   5.947 -2.3145  1.0494 -0.5894
 8192TIP3    H246068   0.269   2.480   5.959  0.6671  1.1131  1.1076
 8193TIP3   OH246069   0.042   4.927  12.300 -0.3101  0.5201 -0.8119
 8193TIP3    H146070  -0.017   4.913  12.374  0.1351  0.6388 -0.4301
 8193TIP3    H246071   0.126   4.947  12.340  0.2943 -0.8811 -1.3534
 8194TIP3   OH246072   5.389   5.144  12.261  0.3720 -0.2016 -0.2439
 8194TIP3    H146073   5.323   5.075  12.270  1.9707 -1.5706  1.5320
 8194TIP3    H246074   5.378   5.199  12.338  1.1896 -0.3588 -0.0043
 8195TIP3   OH246075   0.232   6.812  16.581 -0.6226  0.1243  0.1652
 8195TIP3    H146076   0.326   6.830  16.578 -0.1964 -2.1582 -2.0696
 8195TIP3    H246077   0.211   6.808  16.674  1.7915 -0.7376  0.7187
 8196TIP3   OH246078   4.383   3.195  11.068  0.1154 -0.4831  0.1399
 8196TIP3    H146079   4.457   3.134  11.073  1.0898  0.7650  1.4132
 8196TIP3    H246080   4.389   3.233  10.980  1.4597  0.1777  0.5050
 8197TIP3   OH246081   2.559   2.582   2.088 -0.5750 -0.1365 -0.2169
 8197TIP3    H146082   2.589   2.628   2.166 -2.1122  0.8643 -0.1857
 8197TIP3    H246083   2.554   2.490   2.114 -0.5261  0.1113  0.6865
 8198TIP3   OH246084   1.361   5.870   1.248 -0.2038  0.8108  0.0822
 8198TIP3    H146085   1.340   5.777   1.251  0.7474  0.5805 -0.1155
 8198TIP3    H246086   1.440   5.879   1.302  0.1193  1.3788 -0.4758
 8199TIP3   OH246087   0.289   1.080   4.419  0.2870  0.1751 -0.1381
 8199TIP3    H146088   0.230   1.151   4.393  0.6890 -0.3638 -2.6147
 8199TIP3    H246089   0.233   1.020   4.469 -0.4667  1.2980  0.4187
 8200TIP3   OH246090   1.995   6.755   4.777  0.1626  0.1650  0.4015
 8200TIP3    H146091   2.085   6.732   4.801 -0.1786 -0.0847  1.4810
 8200TIP3    H246092   1.957   6.672   4.747  0.3489  0.3131 -0.2532
 8201TIP3   OH246093   4.158   4.527   4.357  0.4665  0.8790  0.0919
 8201TIP3    H146094   4.188   4.600   4.302  3.2515 -0.9290 -0.8960
 8201TIP3    H246095   4.147   4.454   4.296  0.8041 -0.3921  1.5095
 8202TIP3   OH246096   1.138   0.417  13.452  0.3966 -0.1920 -0.2867
 8202TIP3    H146097   1.159   0.491  13.395  0.4759 -0.3501 -0.4642
 8202TIP3    H246098   1.128   0.343  13.392 -1.9855  0.1514 -0.3317
 8203TIP3   OH246099   2.377   6.594   4.528  0.7248 -0.0544  0.0640
 8203TIP3    H146100   2.418   6.569   4.611  0.8344 -2.4982 -0.6916
 8203TIP3    H246101   2.287   6.562   4.535  0.4555  0.6068 -0.3692
 8204TIP3   OH246102   3.984   6.740   4.454 -0.0588 -0.1066 -0.2477
 8204TIP3    H146103   3.923   6.807   4.483 -1.0677 -0.6113 -1.1908
 8204TIP3    H246104   4.063   6.788   4.429 -0.3528  0.6113  0.2028
 8205TIP3   OH246105   4.913   1.504  10.691 -0.1421 -1.3072  0.0852
 8205TIP3    H146106   4.960   1.584  10.667  0.1385 -1.2088  0.9305
 8205TIP3    H246107   4.945   1.438  10.630 -0.4632 -0.7559 -0.6994
 8206TIP3   OH246108   5.404   2.540  14.412  0.2018  0.0578  0.1244
 8206TIP3    H146109   5.473   2.603  14.434 -0.4136  1.0180 -0.6733
 8206TIP3    H246110   5.446   2.479  14.351  1.3306 -1.4217  2.3095
 8207TIP3   OH246111   1.880   3.727   5.233  0.0636 -0.8171 -0.1254
 8207TIP3    H146112   1.799   3.751   5.188  0.3241 -0.1339 -0.2288
 8207TIP3    H246113   1.915   3.654   5.182 -0.8743 -1.6168  0.3548
 8208TIP3   OH246114   0.704   3.434  14.057 -0.2034  0.2829  0.3005
 8208TIP3    H146115   0.711   3.461  14.149 -0.1399  0.5117  0.2293
 8208TIP3    H246116   0.633   3.488  14.022  1.3592  1.9593 -0.4144
 8209TIP3   OH246117   5.541   2.169  16.245  0.0669 -0.7665 -0.1650
 8209TIP3    H146118   5.472   2.112  16.279 -0.0355 -0.4494  0.1618
 8209TIP3    H246119   5.567   2.222  16.320  1.6510 -1.8597  0.0866
 8210TIP3   OH246120   2.595   2.644  16.663 -0.5989  0.2237 -0.8693
 8210TIP3    H146121   2.537   2.694  16.605 -3.1110 -2.7237 -1.0143
 8210TIP3    H246122   2.552   2.648  16.749  0.5959  0.5224 -0.2777
 8211TIP3   OH246123   0.053   3.949  15.037  0.2257 -0.2623  0.2967
 8211TIP3    H146124   0.081   4.012  15.103  0.8540  0.1902 -0.3973
 8211TIP3    H246125   0.133   3.905  15.009 -0.0425 -0.4961 -0.1175
 8212TIP3   OH246126   5.841   4.591   3.591  0.3844  0.9267 -0.3609
 8212TIP3    H146127   5.779   4.526   3.624  0.1856  1.4702  0.3526
 8212TIP3    H246128   5.789   4.670   3.578  0.2353  0.3971 -3.0925
 8213TIP3   OH246129   1.900   0.651  15.696  0.5450 -0.6946  0.6387
 8213TIP3    H146130   1.937   0.566  15.675 -2.9235 -1.9326 -0.8590
 8213TIP3    H246131   1.835   0.634  15.763 -1.8503  0.3261 -1.3274
 8214TIP3   OH246132   5.242   1.229  14.225  0.4874  0.5552 -0.0041
 8214TIP3    H146133   5.311   1.206  14.164 -0.5600 -2.0705 -0.2574
 8214TIP3    H246134   5.279   1.211  14.312 -0.3018 -2.3085 -0.1912
 8215TIP3   OH246135   2.353   0.076   1.236 -0.4733 -0.6117 -0.3389
 8215TIP3    H146136   2.408   0.087   1.313  0.3299  2.1899 -1.2550
 8215TIP3    H246137   2.360  -0.018   1.215  0.8292 -1.0355  1.8154
 8216TIP3   OH246138   4.820   1.234  12.497 -0.4294 -0.4314  0.6584
 8216TIP3    H146139   4.901   1.284  12.507 -1.2031  0.8628  0.6890
 8216TIP3    H246140   4.759   1.276  12.558 -0.5926 -2.5574  1.9921
 8217TIP3   OH246141   5.991   5.819   0.400  0.3387  0.4817 -0.0804
 8217TIP3    H146142   6.026   5.895   0.354 -0.0717  0.3323 -0.6405
 8217TIP3    H246143   5.999   5.842   0.493 -2.3950  2.4214 -0.2434
 8218TIP3   OH246144   2.406   6.495   5.100  0.2028  0.5482  0.3440
 8218TIP3    H146145   2.311   6.498   5.111  0.1418 -0.7213  0.2746
 8218TIP3    H246146   2.420   6.476   5.007  0.5012  0.1781  0.4586
 8219TIP3   OH246147   6.707   2.022   6.614  0.7411 -0.2512  0.3883
 8219TIP3    H146148   6.612   2.013   6.623  0.6503 -0.8583 -1.0174
 8219TIP3    H246149   6.719   2.100   6.560  1.0614  0.0908  0.9490
 8220TIP3   OH246150   2.956   0.402   1.549 -0.2561 -0.1668 -0.0889
 8220TIP3    H146151   2.990   0.423   1.636 -0.8323 -0.0757  0.1156
 8220TIP3    H246152   2.921   0.484   1.516 -0.7834 -0.3829 -0.0698
 8221TIP3   OH246153   6.079   4.363  15.170 -0.2120  0.0119 -0.9064
 8221TIP3    H146154   6.027   4.303  15.116 -0.3881 -0.3728 -0.3181
 8221TIP3    H246155   6.120   4.307  15.236 -0.1554  0.5010 -0.5191
 8222TIP3   OH246156   1.662   1.296   4.912 -0.5698 -0.1867 -0.3110
 8222TIP3    H146157   1.710   1.365   4.865  0.6821 -1.8715 -1.5670
 8222TIP3    H246158   1.583   1.340   4.944  0.3628  1.9160 -0.7955
 8223TIP3   OH246159   2.336   0.523   1.029  0.0318 -0.0574 -0.1823
 8223TIP3    H146160   2.277   0.448   1.034  0.5096 -0.3827  0.5583
 8223TIP3    H246161   2.317   0.562   0.943 -0.3010 -0.9493 -0.5214
 8224TIP3   OH246162   5.578   4.689   2.701 -0.1580 -0.5801 -0.6001
 8224TIP3    H146163   5.494   4.733   2.713 -0.5284 -1.2128 -0.8577
 8224TIP3    H246164   5.557   4.596   2.704  0.5805 -0.7416 -0.3381
 8225TIP3   OH246165   3.821   2.217  16.886 -0.2953  0.1906 -0.5894
 8225TIP3    H146166   3.776   2.185  16.965 -0.0634 -0.7425 -0.8363
 8225TIP3    H246167   3.765   2.287  16.853 -0.4862  0.4662  0.3077
 8226TIP3   OH246168   2.923   2.336   3.513  0.1693  0.1489 -0.1510
 8226TIP3    H146169   2.946   2.257   3.562 -0.4030 -0.5593 -0.9968
 8226TIP3    H246170   2.833   2.356   3.540 -0.6019 -0.9551 -1.7739
 8227TIP3   OH246171   1.072   3.664  15.216  0.1356 -0.3554  0.2397
 8227TIP3    H146172   1.110   3.579  15.195 -0.5716 -0.1815 -1.8552
 8227TIP3    H246173   0.978   3.654  15.199  0.1302  1.0087 -0.6029
 8228TIP3   OH246174   4.289   2.413   3.366 -0.1842  0.0391  0.1709
 8228TIP3    H146175   4.383   2.397   3.362  0.1368  1.8168  0.1447
 8228TIP3    H246176   4.258   2.404   3.276  0.2097  0.8673 -0.0481
 8229TIP3   OH246177   0.891   4.321  14.062 -0.5324  0.3485 -0.0971
 8229TIP3    H146178   0.921   4.385  13.997 -0.6319  0.3646 -0.1269
 8229TIP3    H246179   0.828   4.369  14.115 -0.7871  0.2052 -0.2709
 8230TIP3   OH246180   0.452   2.378  13.567 -0.0012 -0.5610  0.0774
 8230TIP3    H146181   0.536   2.356  13.607  0.2260  2.0193  1.0655
 8230TIP3    H246182   0.398   2.301  13.581  1.6338 -1.5622  1.0027
 8231TIP3   OH246183   2.089   2.700   3.123  0.0316  0.5354 -0.3733
 8231TIP3    H146184   2.013   2.725   3.176 -0.9638 -1.1054 -0.9798
 8231TIP3    H246185   2.133   2.634   3.175  1.1502  1.5925  0.0400
 8232TIP3   OH246186   4.441   2.729  11.810  0.6745 -0.4368  0.3611
 8232TIP3    H146187   4.462   2.699  11.721 -0.9988 -0.8335  0.0834
 8232TIP3    H246188   4.525   2.760  11.845  1.4575 -0.7634 -1.1641
 8233TIP3   OH246189   2.055   5.420  16.253  0.2823  0.0081 -0.0921
 8233TIP3    H146190   2.117   5.411  16.326  0.5463  3.4194  0.1727
 8233TIP3    H246191   2.094   5.369  16.182  1.3653 -1.1812  1.3165
 8234TIP3   OH246192   3.510   0.575  16.770  0.4056 -0.4227  0.3600
 8234TIP3    H146193   3.531   0.666  16.791  0.9428 -0.3649 -0.3985
 8234TIP3    H246194   3.559   0.524  16.835  0.2700 -0.1721  0.6593
 8235TIP3   OH246195   1.909   6.370  13.476  0.9302  0.4783 -0.3079
 8235TIP3    H146196   1.889   6.463  13.464  0.6035  0.6812  1.5845
 8235TIP3    H246197   1.834   6.324  13.439 -0.0728  1.0594  0.9420
 8236TIP3   OH246198   3.674   4.258   3.800  0.0332  0.2936 -0.8564
 8236TIP3    H146199   3.735   4.225   3.734 -1.1376  0.7336 -2.1752
 8236TIP3    H246200   3.713   4.231   3.884  0.6158 -1.8182 -1.7773
 8237TIP3   OH246201   1.162   4.923   0.280  0.0350  0.4366  0.1752
 8237TIP3    H146202   1.202   5.004   0.248 -0.8362  1.2175  1.0476
 8237TIP3    H246203   1.073   4.947   0.304  0.7895  0.0237  3.6922
 8238TIP3   OH246204   0.610   4.865  10.957  0.1178 -0.1918  0.4732
 8238TIP3    H146205   0.684   4.804  10.948 -0.6123 -1.1436  0.8482
 8238TIP3    H246206   0.541   4.813  10.999  0.1921  1.4507  2.7526
 8239TIP3   OH246207   0.498   4.330   0.660 -0.1423 -0.0612 -0.1999
 8239TIP3    H146208   0.538   4.251   0.696 -1.4116 -0.9340 -0.6641
 8239TIP3    H246209   0.561   4.363   0.596  0.3860 -0.6915 -0.0079
 8240TIP3   OH246210   2.187   0.774   1.097  0.2173  0.2716  0.1455
 8240TIP3    H146211   2.194   0.812   1.010 -1.1624 -1.1518 -0.5973
 8240TIP3    H246212   2.147   0.688   1.084 -2.1853  0.9626  2.3864
 8241TIP3   OH246213   0.295   4.992  11.219 -0.4738  0.4888 -0.2567
 8241TIP3    H146214   0.303   4.905  11.181 -1.7759  0.4251 -0.4204
 8241TIP3    H246215   0.240   5.040  11.157 -1.9691  0.6165  1.1305
 8242TIP3   OH246216   5.398   0.993   4.024  0.4498 -0.1298  0.3025
 8242TIP3    H146217   5.451   1.070   4.047  0.3930  0.0242 -0.0858
 8242TIP3    H246218   5.458   0.936   3.976  0.0667  0.3784 -0.7959
 8243TIP3   OH246219   5.863   5.172  16.095  1.0195 -0.4530 -0.6123
 8243TIP3    H146220   5.894   5.256  16.060  2.4981 -1.0019 -0.6652
 8243TIP3    H246221   5.770   5.171  16.075  1.0491  1.0416 -0.8985
 8244TIP3   OH246222   6.183   5.124   4.323  0.3969 -0.3734 -0.2182
 8244TIP3    H146223   6.105   5.070   4.309 -0.7384  0.8293  1.2522
 8244TIP3    H246224   6.241   5.070   4.377  0.3361 -1.0420 -0.8186
 8245TIP3   OH246225   0.281   6.348  16.368 -0.0389  0.0405  0.7538
 8245TIP3    H146226   0.308   6.411  16.436  1.5340 -0.7232  0.8649
 8245TIP3    H246227   0.190   6.369  16.351  0.2817  1.9634  1.2426
 8246TIP3   OH246228   4.039   0.126  16.635  0.2477  0.4460  0.3291
 8246TIP3    H146229   4.119   0.097  16.678  0.2197 -0.4667 -0.2173
 8246TIP3    H246230   4.068   0.187  16.567  0.6735 -1.5216 -1.2844
 8247TIP3   OH246231   1.984   5.622   5.134 -0.1731  0.2852 -0.2502
 8247TIP3    H146232   1.996   5.687   5.065  2.0124  0.2348  0.0560
 8247TIP3    H246233   2.067   5.574   5.138 -1.1714 -1.4502  0.6396
 8248TIP3   OH246234   2.117   5.036  14.149 -0.2129  0.0958 -0.0728
 8248TIP3    H146235   2.189   5.099  14.151  1.3358 -1.6443  3.2047
 8248TIP3    H246236   2.044   5.081  14.192 -0.1444  0.8065 -0.7009
 8249TIP3   OH246237   3.048   4.919   3.639  0.9577 -0.4284 -0.1223
 8249TIP3    H146238   3.107   4.846   3.657 -0.1043 -1.1545  0.4632
 8249TIP3    H246239   3.052   4.973   3.718  1.0146 -0.3516 -0.1774
 8250TIP3   OH246240   6.131   5.671   3.395 -0.2038 -0.5225 -0.1741
 8250TIP3    H146241   6.042   5.636   3.403 -0.6932  0.6604 -0.3857
 8250TIP3    H246242   6.160   5.645   3.308 -1.2423  1.1257 -1.0266
 8251TIP3   OH246243   6.064   6.772   4.943  0.1286 -0.2545  0.6075
 8251TIP3    H146244   6.134   6.715   4.974 -0.5432 -0.7090  1.3013
 8251TIP3    H246245   6.021   6.803   5.023  1.5390  2.5765  0.3310
 8252TIP3   OH246246   0.892   3.572  11.690  0.4355 -0.3442  0.1999
 8252TIP3    H146247   0.947   3.606  11.761  0.9532 -0.3210 -0.2113
 8252TIP3    H246248   0.840   3.648  11.662  2.8152  0.5970 -1.8720
 8253TIP3   OH246249   4.481   2.134  11.491 -0.0301 -0.8887 -0.4674
 8253TIP3    H146250   4.565   2.144  11.535 -0.7154 -0.0588  0.6754
 8253TIP3    H246251   4.489   2.052  11.442  0.4918 -2.2157  1.7582
 8254TIP3   OH246252   0.068   0.645  11.013 -0.4174 -0.1023  0.4510
 8254TIP3    H146253   0.050   0.647  10.919 -0.4579  0.5000  0.4740
 8254TIP3    H246254   0.141   0.583  11.021  0.2813  0.6448 -0.0893
 8255TIP3   OH246255   3.876   4.314   5.203 -0.2440 -0.2654  0.1689
 8255TIP3    H146256   3.825   4.395   5.209 -0.7836 -0.5667 -0.3512
 8255TIP3    H246257   3.833   4.263   5.135 -0.2433 -1.2510  0.8991
 8256TIP3   OH246258   5.916   0.512   0.933  0.6986 -0.0774  0.7107
 8256TIP3    H146259   5.998   0.549   0.964  1.0726 -0.6559  0.4285
 8256TIP3    H246260   5.867   0.586   0.897  1.9617 -0.0468 -1.0215
 8257TIP3   OH246261   5.281   5.252   5.861 -0.1834 -0.6719  0.1236
 8257TIP3    H146262   5.206   5.282   5.913 -0.2314  1.0858 -0.8858
 8257TIP3    H246263   5.242   5.221   5.779  0.1639  0.3500 -0.4491
 8258TIP3   OH246264   4.961   5.972   6.006  0.1993 -0.3081 -0.0581
 8258TIP3    H146265   5.040   5.978   6.060 -0.1556 -0.8417  0.5289
 8258TIP3    H246266   4.953   5.879   5.987 -0.5419 -0.3040  0.2520
 8259TIP3   OH246267   6.347   2.204  12.707  0.2740  0.3277 -0.6319
 8259TIP3    H146268   6.334   2.129  12.649  2.3297 -1.3158  0.9493
 8259TIP3    H246269   6.428   2.245  12.676 -1.1766  2.2889 -1.8808
 8260TIP3   OH246270   1.200   1.014  16.559  0.6412 -0.5850 -0.1513
 8260TIP3    H146271   1.178   0.925  16.587  1.7440 -1.3432 -1.6147
 8260TIP3    H246272   1.183   1.068  16.636 -0.6992 -1.9542  0.5477
 8261TIP3   OH246273   0.548   3.837  12.003  0.5932 -0.0354 -0.2468
 8261TIP3    H146274   0.465   3.789  12.008  0.9959 -0.6945  0.1880
 8261TIP3    H246275   0.613   3.775  12.035  1.6284 -0.4085 -3.0222
 8262TIP3   OH246276   4.886   1.261  11.342 -0.0862  0.0183  0.0203
 8262TIP3    H146277   4.896   1.251  11.248  0.8200 -1.9483  0.3003
 8262TIP3    H246278   4.803   1.219  11.362 -0.9871  1.6952 -0.0600
 8263TIP3   OH246279   1.967   3.233   2.169  0.3738 -0.2907 -0.1395
 8263TIP3    H146280   1.924   3.248   2.085 -1.2038 -4.5080 -0.1825
 8263TIP3    H246281   2.057   3.265   2.156 -0.8302  2.4886 -2.1762
 8264TIP3   OH246282   0.180   4.042  15.422  0.6335 -0.0182  0.5940
 8264TIP3    H146283   0.149   4.061  15.511 -1.7666 -1.8641  0.2193
 8264TIP3    H246284   0.183   3.947  15.418 -0.0301  0.0256 -1.5255
 8265TIP3   OH246285   5.563   6.718  15.763  0.0903 -0.1457  0.9040
 8265TIP3    H146286   5.600   6.741  15.678  1.4741 -0.5602  1.3736
 8265TIP3    H246287   5.569   6.799  15.814  0.2763 -0.1880  0.9498
 8266TIP3   OH246288   0.786   0.274  13.565 -0.1281 -0.0701 -0.0706
 8266TIP3    H146289   0.695   0.291  13.589 -0.4284 -0.1522 -1.1163
 8266TIP3    H246290   0.782   0.243  13.474  0.8624 -0.8838  0.1462
 8267TIP3   OH246291   0.252   6.090  11.292  0.7307 -0.5394  0.2094
 8267TIP3    H146292   0.158   6.103  11.291  0.7688 -0.2943 -0.0721
 8267TIP3    H246293   0.284   6.147  11.362  0.7158 -0.3113  0.0310
 8268TIP3   OH246294   3.553   6.521   5.683  0.3413 -0.7172 -0.2055
 8268TIP3    H146295   3.575   6.494   5.594  0.6510 -0.5572 -0.1779
 8268TIP3    H246296   3.521   6.611   5.673  0.7027 -0.5778 -0.1120
 8269TIP3   OH246297   4.720   6.326   4.418  0.1548 -0.4297 -0.5681
 8269TIP3    H146298   4.711   6.301   4.510 -3.4034  0.2208 -0.6783
 8269TIP3    H246299   4.748   6.246   4.374 -0.1547 -1.2907  0.7781
 8270TIP3   OH246300   4.700   0.164  16.074  0.1604 -0.3499  0.0204
 8270TIP3    H146301   4.694   0.209  16.158 -1.0676 -1.8753  0.7695
 8270TIP3    H246302   4.651   0.220  16.014  1.0538  0.7495  0.3127
 8271TIP3   OH246303   3.824   2.585  10.464  0.1929 -0.4735 -0.0478
 8271TIP3    H146304   3.795   2.527  10.536 -0.6929  1.7638  1.4605
 8271TIP3    H246305   3.823   2.529  10.387  0.8417 -2.8741  1.6210
 8272TIP3   OH246306   2.318   3.571  13.139 -0.7187 -0.8012  0.1230
 8272TIP3    H146307   2.401   3.615  13.154 -0.2353 -1.1005 -1.6157
 8272TIP3    H246308   2.258   3.641  13.114  0.0231 -1.0556 -2.5345
 8273TIP3   OH246309   5.530   3.177  15.170  0.0712 -0.0125  0.0243
 8273TIP3    H146310   5.472   3.212  15.238 -0.3293 -1.4066  0.4136
 8273TIP3    H246311   5.471   3.148  15.100  0.4139  0.3367 -0.4127
 8274TIP3   OH246312   1.085   6.722  16.529 -0.1945  0.2037  0.3433
 8274TIP3    H146313   1.086   6.660  16.456 -1.0970  0.7266 -0.1207
 8274TIP3    H246314   1.174   6.718  16.564 -0.2021 -1.2513  0.2438
 8275TIP3   OH246315   2.833   1.807   3.930 -0.0026 -0.8234 -0.4177
 8275TIP3    H146316   2.751   1.759   3.916  0.8624 -1.8810 -1.9156
 8275TIP3    H246317   2.805   1.889   3.972 -1.8397 -1.1303 -0.9957
 8276TIP3   OH246318   3.332   5.168  14.126  0.0466 -0.1309 -0.5207
 8276TIP3    H146319   3.245   5.177  14.087 -0.4651 -0.3145  0.5515
 8276TIP3    H246320   3.378   5.249  14.103 -0.5719  0.1728 -0.6925
 8277TIP3   OH246321   3.376   3.140   2.043 -0.1723 -0.3271  0.0463
 8277TIP3    H146322   3.329   3.168   1.965  0.1738 -0.7443 -0.3203
 8277TIP3    H246323   3.464   3.176   2.032 -0.2754  0.0643  0.5041
 8278TIP3   OH246324   3.326   3.882   2.779 -0.3534 -0.4998  0.2629
 8278TIP3    H146325   3.298   3.917   2.694 -0.4952  0.7488  0.8046
 8278TIP3    H246326   3.409   3.926   2.797 -1.3571  0.8234  1.7244
 8279TIP3   OH246327   1.690   3.917   2.413  0.2874 -0.5571 -0.2393
 8279TIP3    H146328   1.691   4.006   2.448  1.4744 -0.2314 -1.0734
 8279TIP3    H246329   1.634   3.868   2.473 -0.3505  0.7453  0.2424
 8280TIP3   OH246330   2.374   4.235   5.842  0.2179 -0.1792 -0.1375
 8280TIP3    H146331   2.376   4.320   5.887  1.5959  0.9080 -2.1168
 8280TIP3    H246332   2.449   4.188   5.878  1.6019  0.8706 -1.5359
 8281TIP3   OH246333   0.222   2.717   2.638 -0.4475  0.1273  0.9810
 8281TIP3    H146334   0.170   2.792   2.613 -1.8846 -0.9250  0.7456
 8281TIP3    H246335   0.158   2.648   2.656  0.8235 -0.9587  1.4364
 8282TIP3   OH246336   1.754   4.083   5.384  0.3810  0.5901  0.4614
 8282TIP3    H146337   1.764   3.991   5.408 -1.4769 -0.1240 -1.3031
 8282TIP3    H246338   1.781   4.087   5.292 -1.6896  1.3127 -0.1604
 8283TIP3   OH246339   0.229   0.898  13.592 -0.1805 -0.1244 -0.0694
 8283TIP3    H146340   0.208   0.805  13.580  2.1118 -0.9101  1.5897
 8283TIP3    H246341   0.313   0.910  13.548 -0.2161  1.0519  0.1656
 8284TIP3   OH246342   1.589   2.337  16.472 -0.1634 -0.0022 -0.1650
 8284TIP3    H146343   1.659   2.341  16.407 -0.0146  2.1583  0.0737
 8284TIP3    H246344   1.634   2.319  16.554 -0.1186 -0.6792 -0.3372
 8285TIP3   OH246345   2.962   6.074  13.659 -0.2850 -0.3212 -0.3508
 8285TIP3    H146346   3.028   6.051  13.594 -1.0003 -0.4042 -1.0560
 8285TIP3    H246347   2.880   6.078  13.610 -0.7542  0.1080  0.4556
 8286TIP3   OH246348   4.078   1.654  12.825  0.1210 -0.0642  0.0246
 8286TIP3    H146349   4.083   1.604  12.744 -1.7273  2.9955 -2.1177
 8286TIP3    H246350   3.984   1.664  12.841  0.4602  1.1488  1.3519
 8287TIP3   OH246351   4.622   2.478   0.060  0.6449  0.0843 -0.4052
 8287TIP3    H146352   4.535   2.485   0.098 -0.0753 -0.9827 -1.8108
 8287TIP3    H246353   4.642   2.566   0.027 -0.2992  0.0963 -0.9442
 8288TIP3   OH246354   0.661   1.605  15.273  0.1694  0.3971  0.3973
 8288TIP3    H146355   0.602   1.547  15.226 -0.2623  1.6991 -0.7159
 8288TIP3    H246356   0.663   1.571  15.363  0.1435 -1.4658 -0.2963
 8289TIP3   OH246357   3.099   4.544  13.321 -0.0262 -0.0350 -0.4690
 8289TIP3    H146358   3.087   4.592  13.239  0.0177  0.1084 -0.3899
 8289TIP3    H246359   3.183   4.500  13.311  0.9006  1.5225  0.2820
 8290TIP3   OH246360   4.202   3.471  15.143  0.1740 -0.1191 -0.3553
 8290TIP3    H146361   4.276   3.414  15.164  0.3096  0.1229 -0.1642
 8290TIP3    H246362   4.126   3.427  15.181  0.6084  1.0072  1.9080
 8291TIP3   OH246363   0.107   2.634   1.311 -0.0721  0.1128  0.5397
 8291TIP3    H146364   0.113   2.541   1.290  1.8641 -0.0134  1.6048
 8291TIP3    H246365   0.035   2.639   1.375  0.3794 -0.7683  1.1259
 8292TIP3   OH246366   4.403   5.575   5.582  0.2893 -0.6135 -0.2364
 8292TIP3    H146367   4.341   5.632   5.627  1.8483  2.8268 -2.1989
 8292TIP3    H246368   4.349   5.510   5.538 -1.8710  1.4510 -0.7544
 8293TIP3   OH246369   3.812   0.559   3.301  0.5526  0.4210  0.3235
 8293TIP3    H146370   3.744   0.492   3.297  0.5227  0.3927  1.0842
 8293TIP3    H246371   3.876   0.533   3.234 -1.4965  1.9539 -2.3019
 8294TIP3   OH246372   0.420   3.244  13.249 -0.3258  0.0909  0.1353
 8294TIP3    H146373   0.487   3.310  13.236 -0.9166  0.7592  0.4720
 8294TIP3    H246374   0.423   3.225  13.343  0.2259 -0.7697 -0.0516
 8295TIP3   OH246375   1.242   3.217   3.390  0.0081  0.2923 -0.3389
 8295TIP3    H146376   1.149   3.234   3.404  0.0075 -0.8836  1.2136
 8295TIP3    H246377   1.283   3.244   3.472  1.0655  0.9720 -1.0843
 8296TIP3   OH246378   0.819   5.722  17.177 -0.1787  0.0199 -0.4520
 8296TIP3    H146379   0.903   5.768  17.177 -0.0175 -0.2751 -0.8991
 8296TIP3    H246380   0.759   5.782  17.134 -0.1847  0.2065 -0.1851
 8297TIP3   OH246381   0.460   5.329  13.994 -0.2888 -0.7357 -0.6533
 8297TIP3    H146382   0.524   5.270  13.953 -0.7826 -1.3310 -0.5760
 8297TIP3    H246383   0.429   5.281  14.071  1.2345  0.7093  0.9218
 8298TIP3   OH246384   6.061   1.115   5.279 -0.3760  0.1725 -0.2408
 8298TIP3    H146385   5.989   1.165   5.318 -0.9934 -1.1320  0.2938
 8298TIP3    H246386   6.026   1.027   5.267  1.6776 -0.9689  1.7270
 8299TIP3   OH246387   3.544   4.749   1.573 -0.3683 -0.2478 -0.0833
 8299TIP3    H146388   3.536   4.703   1.656 -0.6838 -0.9099 -0.4849
 8299TIP3    H246389   3.477   4.817   1.576  0.5834  0.6678  0.8203
 8300TIP3   OH246390   3.924   0.657  11.410 -0.1646  0.4282  0.3294
 8300TIP3    H146391   3.879   0.602  11.345  0.5345 -0.6847  0.7730
 8300TIP3    H246392   3.857   0.679  11.474 -0.8520  1.4988 -0.7441
 8301TIP3   OH246393   6.009   2.833  13.055 -0.4116  0.0353  0.0068
 8301TIP3    H146394   6.014   2.849  13.150 -2.9484  1.4949 -0.0694
 8301TIP3    H246395   6.098   2.848  13.024  0.4974 -0.6350  2.1734
 8302TIP3   OH246396   2.164   4.655   2.897  0.2481 -0.3788  0.2945
 8302TIP3    H146397   2.148   4.569   2.857  0.4190 -0.2734 -0.0015
 8302TIP3    H246398   2.254   4.676   2.874 -0.6417  1.1415 -2.0363
 8303TIP3   OH246399   2.870   2.989  13.479 -0.4989 -0.0370 -0.3381
 8303TIP3    H146400   2.786   2.979  13.433 -0.6292  1.1993 -0.3965
 8303TIP3    H246401   2.876   3.083  13.496  0.3745 -0.2654  0.6259
 8304TIP3   OH246402   0.361   5.295   2.959  0.1149  0.1681  0.9616
 8304TIP3    H146403   0.342   5.336   3.044 -1.4470  0.2745  0.5678
 8304TIP3    H246404   0.409   5.361   2.910 -0.9331  0.9334  0.9494
 8305TIP3   OH246405   1.994   4.076   3.186 -0.2542  0.5582 -0.6117
 8305TIP3    H146406   1.927   4.094   3.252 -1.1828  0.1991 -1.4617
 8305TIP3    H246407   2.013   3.983   3.196  1.3995  1.0116  0.8094
 8306TIP3   OH246408   1.530   2.946   5.273 -0.1916  0.1889  0.3532
 8306TIP3    H146409   1.501   2.933   5.183 -1.6116  1.8322  0.5528
 8306TIP3    H246410   1.626   2.954   5.267 -0.2245 -0.3781 -0.9153
 8307TIP3   OH246411   0.329   6.817  14.455 -0.0365  0.3591 -0.1795
 8307TIP3    H146412   0.312   6.877  14.528 -0.4338  0.4470 -0.3395
 8307TIP3    H246413   0.389   6.865  14.398  1.5265 -0.3202  0.8651
 8308TIP3   OH246414   6.743   4.731   1.992  0.0011 -0.1202 -0.5176
 8308TIP3    H146415   6.692   4.704   2.068  0.0881 -0.1577 -0.4718
 8308TIP3    H246416   6.708   4.678   1.920  0.3516 -0.5525 -0.3727
 8309TIP3   OH246417   4.893   6.502  12.367 -0.4112  0.1504 -0.3281
 8309TIP3    H146418   4.916   6.419  12.409  2.0871  1.3609  0.7503
 8309TIP3    H246419   4.823   6.538  12.421 -1.4447 -1.1597 -0.7426
 8310TIP3   OH246420   5.655   0.898   5.677  0.2899  0.5122  0.6798
 8310TIP3    H146421   5.624   0.955   5.747  0.6275  1.5598 -0.0173
 8310TIP3    H246422   5.575   0.872   5.631  0.0859 -0.0248  1.3244
 8311TIP3   OH246423   2.132   3.294   3.194 -0.1387 -0.2785 -0.0360
 8311TIP3    H146424   2.227   3.281   3.198 -0.2608 -1.2541 -0.2881
 8311TIP3    H246425   2.106   3.257   3.110 -0.9360 -1.2617  0.6341
 8312TIP3   OH246426   3.556   3.168  11.053  0.0897  0.0685  0.3960
 8312TIP3    H146427   3.514   3.238  11.003 -0.0685  0.0600  0.5169
 8312TIP3    H246428   3.514   3.171  11.139  0.2412 -0.0287  0.4743
 8313TIP3   OH246429   0.339   0.253   0.373 -0.0220 -0.5222 -0.1421
 8313TIP3    H146430   0.309   0.173   0.416 -1.5424  0.7342  1.1526
 8313TIP3    H246431   0.310   0.324   0.430  3.3150  0.8773 -0.0669
 8314TIP3   OH246432   6.206   4.299   4.293 -0.3377  0.1072  0.4766
 8314TIP3    H146433   6.160   4.350   4.360 -0.0648  0.9935 -0.0080
 8314TIP3    H246434   6.156   4.313   4.213 -0.0831 -0.1348  0.2759
 8315TIP3   OH246435   1.157   1.409   5.107 -0.5141  0.5635 -0.1183
 8315TIP3    H146436   1.161   1.349   5.181  0.3923  0.6676 -0.0699
 8315TIP3    H246437   1.072   1.393   5.067 -0.1575 -0.9851 -0.3015
 8316TIP3   OH246438   6.767   5.774  15.739 -0.3349 -0.1742 -0.2477
 8316TIP3    H146439   6.787   5.680  15.744 -0.2524 -0.1633 -0.3826
 8316TIP3    H246440   6.683   5.782  15.785 -0.2378 -0.2820 -0.0499
 8317TIP3   OH246441   2.923   6.612   0.769  0.2069  0.4491 -0.2354
 8317TIP3    H146442   2.979   6.640   0.841 -0.5181  0.5260  0.3014
 8317TIP3    H246443   2.983   6.600   0.695  1.0459 -0.2926  0.5585
 8318TIP3   OH246444   6.393   4.488   1.668  0.5721 -0.7725 -0.3589
 8318TIP3    H146445   6.489   4.489   1.664  0.5745 -1.3137 -0.4831
 8318TIP3    H246446   6.372   4.409   1.717  0.2191 -0.0223  0.7312
 8319TIP3   OH246447   3.552   1.844   4.545 -0.0855 -0.1026 -0.0597
 8319TIP3    H146448   3.492   1.852   4.619 -0.8273 -1.0948 -0.5321
 8319TIP3    H246449   3.636   1.875   4.578 -0.7665  0.9270  0.7310
 8320TIP3   OH246450   2.762   6.208  16.266  0.1935 -0.2474  0.0486
 8320TIP3    H146451   2.829   6.266  16.302 -1.8026  1.6374  0.9029
 8320TIP3    H246452   2.749   6.239  16.176 -0.2519  0.0772  0.2204
 8321TIP3   OH246453   5.278   2.485  14.003  0.2700  0.7935  0.5967
 8321TIP3    H146454   5.360   2.506  13.959 -1.1308  0.3346 -2.2979
 8321TIP3    H246455   5.249   2.403  13.963 -0.8737  0.1669  2.6462
 8322TIP3   OH246456   6.369   5.436   0.789  0.7695  0.3591  0.0978
 8322TIP3    H146457   6.291   5.390   0.821  0.1202  1.1845 -0.2794
 8322TIP3    H246458   6.382   5.403   0.700  2.5056 -1.8458  1.1134
 8323TIP3   OH246459   4.855   0.898   0.704 -0.3735 -0.3336 -0.3927
 8323TIP3    H146460   4.798   0.963   0.663 -0.0525 -0.6686 -1.3969
 8323TIP3    H246461   4.922   0.949   0.749 -0.5014  0.0448 -0.6270
 8324TIP3   OH246462   6.236   4.539  16.579 -0.2473 -0.0736  0.2191
 8324TIP3    H146463   6.181   4.521  16.502  0.3619  0.3713 -0.3280
 8324TIP3    H246464   6.278   4.623  16.559 -1.5757  1.0133  1.8873
 8325TIP3   OH246465   4.603   3.693   4.491  0.3996  0.1923 -0.3615
 8325TIP3    H146466   4.579   3.778   4.527 -0.7106  0.5691 -1.9015
 8325TIP3    H246467   4.624   3.639   4.567 -2.8793  0.6228  0.9346
 8326TIP3   OH246468   5.930   5.602   0.208  0.5167  0.0624  0.3411
 8326TIP3    H146469   5.844   5.629   0.177  0.0484 -0.7946  0.8702
 8326TIP3    H246470   5.965   5.680   0.252  0.6612  0.8836 -1.2068
 8327TIP3   OH246471   1.922   0.591  13.802  0.4230 -0.2688 -0.3735
 8327TIP3    H146472   1.958   0.598  13.890  1.4120 -1.1197 -0.7020
 8327TIP3    H246473   1.998   0.597  13.744 -0.1330 -0.4942 -1.1344
 8328TIP3   OH246474   2.316   4.342  15.555 -0.4430 -0.8011  0.1950
 8328TIP3    H146475   2.392   4.360  15.499 -0.0408  0.8718  1.2504
 8328TIP3    H246476   2.317   4.246  15.566  1.6393 -0.7906  0.3444
 8329TIP3   OH246477   1.740   5.750   5.221  0.5795  0.0422 -0.3375
 8329TIP3    H146478   1.833   5.748   5.241  0.5445  0.0025 -0.1690
 8329TIP3    H246479   1.734   5.779   5.130  0.8360 -1.6070 -0.8921
 8330TIP3   OH246480   6.499   5.708  14.758  0.5117 -0.2818 -0.2967
 8330TIP3    H146481   6.453   5.628  14.783  0.3132  0.1805  0.8405
 8330TIP3    H246482   6.590   5.681  14.747  0.0851 -1.0760 -1.9534
 8331TIP3   OH246483   6.654   6.809  16.635 -0.3569  0.4742 -0.2268
 8331TIP3    H146484   6.562   6.826  16.616 -0.7326 -0.7089  0.4941
 8331TIP3    H246485   6.674   6.864  16.710 -1.1328 -1.0144  1.0935
 8332TIP3   OH246486   0.495   0.369   0.721  0.1343 -0.3443  0.2091
 8332TIP3    H146487   0.410   0.326   0.724  0.1136 -0.3170  0.0039
 8332TIP3    H246488   0.485   0.446   0.777  0.2619 -0.7631  0.8186
 8333TIP3   OH246489   2.504   5.640  17.136 -0.2988  0.1502 -0.3162
 8333TIP3    H146490   2.591   5.680  17.132 -0.1038 -0.3977 -1.8066
 8333TIP3    H246491   2.520   5.548  17.157 -0.5971  0.3057  0.6177
 8334TIP3   OH246492   4.775   0.726   1.767 -1.0159  0.0308 -0.1044
 8334TIP3    H146493   4.827   0.737   1.687 -1.3869  3.7485  0.0750
 8334TIP3    H246494   4.720   0.650   1.750  1.8819 -1.8094 -1.7137
 8335TIP3   OH246495   5.738   3.400  17.033  0.1442  0.2446 -0.5929
 8335TIP3    H146496   5.737   3.308  17.006  0.7315 -0.2074  0.9010
 8335TIP3    H246497   5.752   3.398  17.127 -0.1412  1.8675 -0.4984
 8336TIP3   OH246498   0.430   0.612   2.776  0.6716 -0.3577 -0.4281
 8336TIP3    H146499   0.437   0.652   2.863 -0.4974  1.0386 -0.9397
 8336TIP3    H246500   0.343   0.639   2.745  0.8036 -1.4115 -1.7546
 8337TIP3   OH246501   2.519   2.784  16.915 -0.7751 -0.2766 -0.2345
 8337TIP3    H146502   2.444   2.728  16.937 -2.9836  2.1997 -1.1708
 8337TIP3    H246503   2.519   2.851  16.984  0.2979  0.0081 -0.5079
 8338TIP3   OH246504   6.731   4.459  12.185 -0.4321  0.1103  0.2467
 8338TIP3    H146505   6.730   4.554  12.192 -1.4525  0.0532  1.0010
 8338TIP3    H246506   6.675   4.429  12.257  1.8859 -1.1745  1.5718
 8339TIP3   OH246507   3.881   4.598   5.890 -0.1325  0.3245  0.1464
 8339TIP3    H146508   3.852   4.676   5.937  0.2738  1.4470 -1.4342
 8339TIP3    H246509   3.805   4.570   5.840 -0.9276 -1.5619  2.3125
 8340TIP3   OH246510   5.275   0.343  12.450  0.1450  0.1736  0.3300
 8340TIP3    H146511   5.222   0.367  12.526 -3.3237 -1.0769 -1.5959
 8340TIP3    H246512   5.284   0.425  12.401 -0.1535  0.3544  0.5747
 8341TIP3   OH246513   4.114   6.143   3.983  0.0543 -0.2890 -0.3195
 8341TIP3    H146514   4.179   6.212   3.970 -1.3287  0.9437 -0.9034
 8341TIP3    H246515   4.123   6.086   3.907  0.3023 -0.0040 -0.5047
 8342TIP3   OH246516   0.077   3.662   5.262 -0.1372  0.0341 -0.2672
 8342TIP3    H146517  -0.004   3.613   5.252  0.4129 -0.9931  0.2106
 8342TIP3    H246518   0.056   3.732   5.323 -0.8775  0.2858 -0.8026
 8343TIP3   OH246519   5.694   1.022   5.410  0.0842 -0.3331 -0.0641
 8343TIP3    H146520   5.698   0.942   5.357  1.1183  0.0472 -0.5706
 8343TIP3    H246521   5.674   0.990   5.499 -0.1033 -1.0987 -0.3736
 8344TIP3   OH246522   4.722   5.294  10.999  0.2091  0.1640  0.4843
 8344TIP3    H146523   4.735   5.379  10.956 -0.7914  0.2244  0.2842
 8344TIP3    H246524   4.798   5.284  11.056  0.5990  0.9544  0.1133
 8345TIP3   OH246525   3.152   4.904   5.686 -0.2789  0.1860  0.4061
 8345TIP3    H146526   3.062   4.925   5.711  0.1694  0.5202  1.8087
 8345TIP3    H246527   3.173   4.825   5.736 -0.2572 -0.7113 -0.9939
 8346TIP3   OH246528   3.478   4.896   0.750 -0.1904  1.0300 -0.5147
 8346TIP3    H146529   3.543   4.879   0.818 -0.2219  1.9629 -0.2415
 8346TIP3    H246530   3.518   4.865   0.669 -1.0218 -2.1293  0.2290
 8347TIP3   OH246531   0.462   1.343   4.277  0.2360 -0.6713 -0.0479
 8347TIP3    H146532   0.512   1.317   4.199  1.4282 -0.7600  0.7363
 8347TIP3    H246533   0.520   1.324   4.350 -0.7186 -0.1925  0.8425
 8348TIP3   OH246534   1.549   2.418  14.739 -0.3878  0.0227  0.0175
 8348TIP3    H146535   1.454   2.418  14.730 -0.3809  1.5840 -0.1412
 8348TIP3    H246536   1.579   2.486  14.679  0.7248  0.4667  1.0472
 8349TIP3   OH246537   0.839   4.601  12.472 -0.4615 -0.4457  0.0590
 8349TIP3    H146538   0.836   4.570  12.381  1.3319  0.4127 -0.3122
 8349TIP3    H246539   0.801   4.529  12.523 -2.6883 -0.3943 -1.4895
 8350TIP3   OH246540   2.324   4.549   4.748 -0.3457 -0.5157  0.4211
 8350TIP3    H146541   2.321   4.632   4.700  1.0345 -0.8697 -0.3004
 8350TIP3    H246542   2.233   4.519   4.751 -0.4326 -0.5771 -2.1521
 8351TIP3   OH246543   0.483   1.527  13.954 -0.4415  0.1742 -0.7382
 8351TIP3    H146544   0.543   1.475  14.006 -0.0953  0.5440 -0.7659
 8351TIP3    H246545   0.450   1.467  13.887 -2.3907 -0.8540  1.0867
 8352TIP3   OH246546   0.221   1.358  16.664  0.4536  0.5959 -0.1335
 8352TIP3    H146547   0.179   1.361  16.579 -2.0411  3.8753  1.0929
 8352TIP3    H246548   0.149   1.365  16.727  2.5162  2.3214  2.1506
 8353TIP3   OH246549   0.756   3.786  16.749 -0.5857 -0.2514 -0.8095
 8353TIP3    H146550   0.807   3.707  16.731 -1.9854 -1.5560  0.7134
 8353TIP3    H246551   0.698   3.795  16.673 -1.6914 -1.7710 -0.1804
 8354TIP3   OH246552   6.433   6.175  11.252 -0.1748 -0.0936  0.1611
 8354TIP3    H146553   6.485   6.223  11.317  0.7840 -0.6523 -0.1879
 8354TIP3    H246554   6.398   6.243  11.195 -1.2352  0.4253  1.4026
 8355TIP3   OH246555   1.100   1.665   3.895  0.0046 -0.4752  0.1009
 8355TIP3    H146556   1.111   1.717   3.974 -0.7499  0.6518 -0.5077
 8355TIP3    H246557   1.146   1.715   3.827 -1.2861 -0.2230 -0.6267
 8356TIP3   OH246558   4.088   2.264  13.074  0.4286 -0.0861 -0.4214
 8356TIP3    H146559   4.025   2.192  13.081 -0.6174  0.6786 -1.6525
 8356TIP3    H246560   4.144   2.255  13.151 -0.8576 -1.0970  0.4144
 8357TIP3   OH246561   3.620   2.176  11.222 -0.6133  0.2527  0.3894
 8357TIP3    H146562   3.571   2.104  11.182 -0.0106  0.3568 -0.5598
 8357TIP3    H246563   3.688   2.133  11.274 -0.4107  0.1279  0.0255
 8358TIP3   OH246564   2.225   2.489   5.646  0.1947 -0.2582 -0.2619
 8358TIP3    H146565   2.250   2.407   5.603  1.1682 -1.2718  2.1785
 8358TIP3    H246566   2.288   2.500   5.717 -1.6590  1.1168  1.2384
 8359TIP3   OH246567   3.408   6.385   4.402  0.5348 -0.3140  0.5223
 8359TIP3    H146568   3.390   6.314   4.463 -2.2234 -1.0360 -1.0885
 8359TIP3    H246569   3.405   6.345   4.315 -2.9797  2.0469 -0.5497
 8360TIP3   OH246570   0.203   5.576   0.483 -0.2983  0.4238 -0.3239
 8360TIP3    H146571   0.180   5.557   0.574  0.4830 -2.5580 -0.6936
 8360TIP3    H246572   0.271   5.644   0.489  1.7768 -1.7264  1.4887
 8361TIP3   OH246573   3.680   6.674  13.757  0.3118 -0.1918  0.1900
 8361TIP3    H146574   3.615   6.740  13.731  1.3823  1.3978  1.4774
 8361TIP3    H246575   3.636   6.622  13.824 -0.6321 -0.9882 -1.0230
 8362TIP3   OH246576   5.208   4.082  13.907  0.6099  0.0411  0.0015
 8362TIP3    H146577   5.151   4.005  13.915 -0.7475  0.9764 -0.4405
 8362TIP3    H246578   5.209   4.101  13.814  0.8007  0.6606  0.1282
 8363TIP3   OH246579   3.724   3.891   2.610 -0.8282 -0.1848  0.3849
 8363TIP3    H146580   3.641   3.893   2.562  0.2644 -1.4010 -1.6368
 8363TIP3    H246581   3.769   3.813   2.577  1.6139  1.0896  0.5799
 8364TIP3   OH246582   5.940   3.986   5.931  0.2314  0.1004 -0.0643
 8364TIP3    H146583   5.912   4.073   5.959  0.1058  0.4808 -1.3402
 8364TIP3    H246584   5.860   3.934   5.927  0.2749 -0.0115  0.4617
 8365TIP3   OH246585   2.606   6.077  17.151  0.0837  0.3268 -0.0666
 8365TIP3    H146586   2.514   6.082  17.126 -0.6609 -1.8451  2.1085
 8365TIP3    H246587   2.641   6.164  17.131 -2.2586  0.9769 -1.5121
 8366TIP3   OH246588   3.543   2.724  11.385 -0.8592  0.6655 -0.0122
 8366TIP3    H146589   3.582   2.804  11.351 -0.6540 -0.1863 -1.8278
 8366TIP3    H246590   3.464   2.711  11.333 -1.4203  0.2030  0.9287
 8367TIP3   OH246591   5.500   1.443   0.160  0.2402 -0.6073 -0.4580
 8367TIP3    H146592   5.496   1.498   0.082  0.2736  0.8694  0.5367
 8367TIP3    H246593   5.461   1.360   0.134 -1.7342  0.5856 -1.4718
 8368TIP3   OH246594   0.989   2.608  16.149 -0.0134  0.1992  0.3101
 8368TIP3    H146595   1.039   2.622  16.069 -0.3315  2.2515  0.4512
 8368TIP3    H246596   0.979   2.696  16.187 -1.7239 -0.4733  1.4745
 8369TIP3   OH246597   4.957   1.807   2.361 -0.3509 -0.3113  0.6745
 8369TIP3    H146598   5.016   1.796   2.436  1.7388 -0.7530 -1.0037
 8369TIP3    H246599   4.926   1.719   2.342 -0.6187 -0.2436  0.7882
 8370TIP3   OH246600   1.895   0.050  15.929  0.2132  0.1156  0.2996
 8370TIP3    H146601   1.898   0.031  15.835 -0.1022 -0.1063  0.3310
 8370TIP3    H246602   1.842  -0.022  15.965  0.0877  0.3620  0.6030
 8371TIP3   OH246603   0.501   0.687  13.089 -0.3783 -0.2480  0.1357
 8371TIP3    H146604   0.438   0.705  13.020 -0.3968  1.8194  0.6508
 8371TIP3    H246605   0.552   0.768  13.096  0.3427 -0.8289  1.7712
 8372TIP3   OH246606   5.866   5.850   1.916  0.6977 -0.0229  0.5491
 8372TIP3    H146607   5.898   5.899   1.992  1.6386  0.5796 -0.2279
 8372TIP3    H246608   5.941   5.798   1.887 -0.0180 -1.2163  0.7869
 8373TIP3   OH246609   2.949   0.869  15.778  0.1667 -0.0188  0.4296
 8373TIP3    H146610   3.029   0.894  15.825  1.3649 -1.5450 -0.7616
 8373TIP3    H246611   2.976   0.860  15.687 -1.1750 -1.4376  0.1492
 8374TIP3   OH246612   3.915   1.549   5.348  0.1274  0.3967  0.8833
 8374TIP3    H146613   3.912   1.643   5.332 -0.8650  0.3900  0.9814
 8374TIP3    H246614   3.827   1.528   5.381  0.0341 -0.7202 -0.0372
 8375TIP3   OH246615   0.897   0.236   4.385 -0.1356  0.0418 -0.0071
 8375TIP3    H146616   0.864   0.147   4.384  2.1198 -0.8217 -0.5864
 8375TIP3    H246617   0.970   0.235   4.323  0.4421  2.0812  0.6006
 8376TIP3   OH246618   1.883   5.443  14.173  0.0887 -0.5337  0.2108
 8376TIP3    H146619   1.968   5.431  14.216 -0.1625 -0.7965  0.6394
 8376TIP3    H246620   1.831   5.368  14.202 -0.0056 -0.8479 -0.7473
 8377TIP3   OH246621   6.816   6.630  10.940 -0.3002  0.4210  0.1251
 8377TIP3    H146622   6.903   6.616  10.904 -1.1841 -2.6933 -0.9961
 8377TIP3    H246623   6.790   6.717  10.909  1.3171  0.2493 -1.8215
 8378TIP3   OH246624   1.381   6.372   3.723 -0.7643  0.1756  0.6953
 8378TIP3    H146625   1.465   6.407   3.693 -0.0445 -0.3252  2.0738
 8378TIP3    H246626   1.347   6.323   3.648 -0.0108  0.6988  0.0018
 8379TIP3   OH246627   2.397   4.922  12.359 -0.3520 -0.5269  0.4067
 8379TIP3    H146628   2.409   4.838  12.313 -0.4891 -0.0028 -0.6059
 8379TIP3    H246629   2.477   4.971  12.339 -1.0633  0.2814 -0.5262
 8380TIP3   OH246630   1.904   2.429  13.823  0.2077  0.1789  0.6382
 8380TIP3    H146631   1.919   2.355  13.765  0.2352 -0.9830  2.0937
 8380TIP3    H246632   1.897   2.505  13.764  0.1750 -0.9651 -0.8622
 8381TIP3   OH246633   0.771   2.517  15.049  0.4526 -0.0150 -0.0149
 8381TIP3    H146634   0.857   2.508  15.007  0.5125 -0.9940  0.3013
 8381TIP3    H246635   0.710   2.477  14.987  0.4587 -0.9010  0.5398
 8382TIP3   OH246636   5.816   3.611  15.506 -0.3592  0.0605 -0.0906
 8382TIP3    H146637   5.756   3.540  15.526 -0.9875 -0.2232 -2.7528
 8382TIP3    H246638   5.765   3.672  15.452  0.4847  1.9968  1.2539
 8383TIP3   OH246639   2.042   0.814   0.279 -0.3962 -0.4121 -0.8148
 8383TIP3    H146640   2.074   0.900   0.252  2.7264 -0.5242  2.1781
 8383TIP3    H246641   1.947   0.821   0.273 -0.1684  2.9490 -1.4716
 8384TIP3   OH246642   5.296   5.818  11.163  0.3261 -0.4261 -0.5080
 8384TIP3    H146643   5.391   5.826  11.150  0.3544 -0.0716 -0.0850
 8384TIP3    H246644   5.284   5.727  11.193  0.3131 -1.0961 -2.4502
 8385TIP3   OH246645   6.358   5.776   1.428  0.4594  0.2398  0.3775
 8385TIP3    H146646   6.440   5.726   1.430  0.0193 -0.4621  1.0211
 8385TIP3    H246647   6.348   5.802   1.336  0.0685 -1.9111 -0.2361
 8386TIP3   OH246648   0.625   3.122  15.417 -0.2009  0.2388  0.0281
 8386TIP3    H146649   0.536   3.112  15.383 -0.4017  0.1547  0.5587
 8386TIP3    H246650   0.619   3.195  15.478 -0.3810 -1.0302  1.5947
 8387TIP3   OH246651   0.330   6.740   2.142 -0.2678 -0.1028 -0.3700
 8387TIP3    H146652   0.356   6.648   2.154  1.6581  0.1726 -2.2115
 8387TIP3    H246653   0.287   6.741   2.057 -1.9279  0.4080  0.4421
 8388TIP3   OH246654   6.124   6.539  15.727  0.0970  0.0090 -0.3401
 8388TIP3    H146655   6.105   6.445  15.731  3.0569 -0.6485  0.0245
 8388TIP3    H246656   6.058   6.579  15.783 -0.4321 -2.0028  0.5393
 8389TIP3   OH246657   4.621   1.138  15.525 -0.0621 -0.2557  0.3492
 8389TIP3    H146658   4.637   1.069  15.590 -0.6417 -1.6421 -0.9302
 8389TIP3    H246659   4.660   1.104  15.445 -0.4337  0.8898 -0.3265
 8390TIP3   OH246660   1.091   5.836   5.773 -0.0384 -0.7236 -0.5819
 8390TIP3    H146661   1.006   5.811   5.738 -0.2746 -0.3724 -0.2662
 8390TIP3    H246662   1.122   5.905   5.715 -0.1544 -0.5656 -0.4568
 8391TIP3   OH246663   1.089   6.689  10.482 -0.0466 -0.4926 -0.2594
 8391TIP3    H146664   1.000   6.680  10.515  0.7586  0.1377  2.2041
 8391TIP3    H246665   1.137   6.730  10.554  2.3338 -1.2466 -1.3692
 8392TIP3   OH246666   2.448   2.492  17.286  1.2805  0.3671 -0.6131
 8392TIP3    H146667   2.421   2.507  17.377  1.4794  1.0123 -0.6605
 8392TIP3    H246668   2.462   2.398  17.281 -2.3984 -0.2389 -0.9684
 8393TIP3   OH246669   1.497   3.665   1.884  0.3350 -0.0301 -0.4815
 8393TIP3    H146670   1.440   3.741   1.880  0.4539  0.0287 -1.1482
 8393TIP3    H246671   1.458   3.602   1.824  1.6827  0.5196 -1.9979
 8394TIP3   OH246672   0.171   5.208   0.733 -0.3248  0.3591 -0.1700
 8394TIP3    H146673   0.226   5.183   0.659 -1.6520  0.6662 -1.2770
 8394TIP3    H246674   0.174   5.132   0.792  0.8324  0.1659 -0.4586
 8395TIP3   OH246675   4.532   3.908   4.305  0.7536 -0.1717  0.3422
 8395TIP3    H146676   4.567   3.876   4.222 -0.3961 -0.8869  0.1146
 8395TIP3    H246677   4.500   3.829   4.350  1.2198  0.2289  1.3927
 8396TIP3   OH246678   5.931   6.395  14.500  0.0985 -0.0806 -0.0565
 8396TIP3    H146679   5.981   6.342  14.437  1.2353 -0.0805  0.8364
 8396TIP3    H246680   5.930   6.342  14.580  1.8095  1.5039  1.0505
 8397TIP3   OH246681   3.248   1.069  14.931 -0.5136 -0.0121 -0.4975
 8397TIP3    H146682   3.156   1.084  14.912 -0.6610  0.9060  0.8523
 8397TIP3    H246683   3.248   1.016  15.011  0.1275  1.8410  0.7553
 8398TIP3   OH246684   3.712   1.773  13.924  0.1662 -0.4691 -0.4134
 8398TIP3    H146685   3.744   1.726  13.847  0.7423  1.4589 -1.3956
 8398TIP3    H246686   3.780   1.838  13.942 -0.5105 -0.1346  1.0257
 8399TIP3   OH246687   2.602   2.584  11.523  0.5830  0.5452 -0.4058
 8399TIP3    H146688   2.582   2.674  11.547  1.5374  0.4370  0.8664
 8399TIP3    H246689   2.550   2.531  11.584 -1.8451  0.1889 -2.6997
 8400TIP3   OH246690   1.785   3.373  15.847 -0.5836  0.1470  0.3216
 8400TIP3    H146691   1.821   3.314  15.780 -0.9330  1.2213 -0.8464
 8400TIP3    H246692   1.857   3.387  15.908  0.0280 -0.1474 -0.3234
 8401TIP3   OH246693   1.095   3.419  14.379 -0.1921  0.1056  0.4494
 8401TIP3    H146694   1.126   3.467  14.456 -0.5628  2.5060 -0.8572
 8401TIP3    H246695   1.044   3.347  14.415 -1.9030  2.2447  2.4583
 8402TIP3   OH246696   2.182   3.736   3.527 -0.1227 -0.1948  0.4472
 8402TIP3    H146697   2.222   3.650   3.519  0.8204  0.3613 -1.1964
 8402TIP3    H246698   2.254   3.797   3.514 -0.8543  0.8434  1.1627
 8403TIP3   OH246699   6.609   0.309  14.259 -0.1479  0.2652 -0.9252
 8403TIP3    H146700   6.698   0.344  14.253 -0.4563  1.0708 -0.8810
 8403TIP3    H246701   6.618   0.217  14.236  0.9715 -0.0587  0.6973
 8404TIP3   OH246702   1.164   6.214  14.298 -0.9526 -0.1172  0.0647
 8404TIP3    H146703   1.139   6.122  14.299 -1.5439  0.0185 -1.7040
 8404TIP3    H246704   1.239   6.218  14.239 -2.1780  0.8463 -1.4377
 8405TIP3   OH246705   6.681   5.499   3.093 -0.1328 -0.4802  0.1075
 8405TIP3    H146706   6.723   5.550   3.024  0.0597  0.0546  0.6186
 8405TIP3    H246707   6.653   5.564   3.157 -0.9595 -0.9127  0.1852
 8406TIP3   OH246708   1.263   5.254   2.332 -0.5546  0.2938 -0.6511
 8406TIP3    H146709   1.186   5.304   2.306  0.3693  1.4950 -1.0920
 8406TIP3    H246710   1.306   5.232   2.249 -1.3372 -1.8976 -0.5264
 8407TIP3   OH246711   2.204   1.625  12.164 -0.1894 -0.4957 -0.4160
 8407TIP3    H146712   2.129   1.679  12.142 -0.1481 -0.6422 -0.9263
 8407TIP3    H246713   2.251   1.614  12.081 -0.7025 -2.0848 -0.5275
 8408TIP3   OH246714   3.599   3.867  16.628 -0.2489 -0.0443  0.5561
 8408TIP3    H146715   3.657   3.852  16.554  0.2644 -0.2738  0.9972
 8408TIP3    H246716   3.600   3.961  16.642 -0.1406 -0.0274  0.4345
 8409TIP3   OH246717   6.525   6.607   2.423 -0.0891  0.1118  0.4011
 8409TIP3    H146718   6.444   6.649   2.394  0.3766  0.6385 -0.1361
 8409TIP3    H246719   6.594   6.651   2.374  0.6532  0.5690  1.8236
 8410TIP3   OH246720   3.879   3.930   2.275  0.1582 -0.2412 -0.2545
 8410TIP3    H146721   3.965   3.891   2.293  0.5487  0.8264  0.2520
 8410TIP3    H246722   3.867   3.995   2.345 -1.9898 -1.8241  0.9069
 8411TIP3   OH246723   2.597   2.588   2.865  1.0046  0.4702 -0.0237
 8411TIP3    H146724   2.664   2.520   2.859  1.5375  0.9824  0.1247
 8411TIP3    H246725   2.514   2.540   2.873  1.3358 -0.1611 -0.3780
 8412TIP3   OH246726   4.728   5.292  16.817 -0.8754  0.3921  0.3328
 8412TIP3    H146727   4.817   5.322  16.801 -0.9500 -0.0574 -1.0724
 8412TIP3    H246728   4.683   5.366  16.857  0.3161  0.3839  1.6883
 8413TIP3   OH246729   3.479   1.720   1.046 -0.4660  0.0496  0.5794
 8413TIP3    H146730   3.575   1.714   1.039 -0.5672 -2.2050  0.6455
 8413TIP3    H246731   3.463   1.806   1.085  1.5733  0.1722  1.2024
 8414TIP3   OH246732   5.173   2.615  16.185 -0.7744  0.1055 -0.3835
 8414TIP3    H146733   5.099   2.665  16.219  0.3355  0.1876  1.9882
 8414TIP3    H246734   5.230   2.681  16.145 -0.7584  0.3841  0.0885
 8415TIP3   OH246735   2.215   4.246   0.174 -0.4633 -1.0183  0.2477
 8415TIP3    H146736   2.162   4.220   0.099 -1.0237  0.7777  0.0075
 8415TIP3    H246737   2.163   4.221   0.251 -2.2111  1.7228  0.0238
 8416TIP3   OH246738   5.864   6.462  15.928  0.4213  0.4349  0.5168
 8416TIP3    H146739   5.924   6.499  15.992 -1.4026  1.8525  1.4597
 8416TIP3    H246740   5.777   6.486  15.960 -0.8793 -4.3536  0.9579
 8417TIP3   OH246741   0.774   2.460  15.676 -0.1848 -0.9385  0.6966
 8417TIP3    H146742   0.803   2.431  15.590  1.1073 -0.4913  0.9581
 8417TIP3    H246743   0.707   2.526  15.658 -0.7168 -1.6531  0.0582
 8418TIP3   OH246744   4.956   1.993  14.577  0.5174 -0.1617 -0.2332
 8418TIP3    H146745   4.924   2.060  14.517  1.6890  0.1407 -0.5381
 8418TIP3    H246746   4.884   1.930  14.584 -0.7264  1.2720  0.2983
 8419TIP3   OH246747   0.747   1.940  13.120  0.2409 -0.1506  0.3041
 8419TIP3    H146748   0.689   1.924  13.195 -1.9052 -2.8570 -1.8147
 8419TIP3    H246749   0.793   1.857  13.107 -0.6191 -0.2842 -2.2927
 8420TIP3   OH246750   3.786   5.663  14.398 -0.2669  0.0333 -0.6971
 8420TIP3    H146751   3.786   5.643  14.492 -1.5860 -0.5994 -0.8157
 8420TIP3    H246752   3.732   5.741  14.390  0.5347  0.5818 -0.8478
 8421TIP3   OH246753   2.575   0.715   2.745  0.9793 -0.2704 -0.2178
 8421TIP3    H146754   2.487   0.689   2.720  0.5689 -0.1058  1.0224
 8421TIP3    H246755   2.563   0.795   2.796  1.9362  0.3592 -0.9795
 8422TIP3   OH246756   6.462   1.412  15.121  0.1184  0.0491  0.0988
 8422TIP3    H146757   6.402   1.375  15.186 -1.2748 -0.8742 -1.6460
 8422TIP3    H246758   6.526   1.343  15.106 -0.2906 -0.2229 -0.4108
 8423TIP3   OH246759   0.082   2.227  14.078 -0.1441 -0.6167 -0.1735
 8423TIP3    H146760   0.041   2.313  14.070  1.8864  0.4521  0.4871
 8423TIP3    H246761   0.160   2.233  14.022 -0.4168 -2.2869 -0.7340
 8424TIP3   OH246762   5.131   3.840  12.031 -0.2410  0.1076 -0.1188
 8424TIP3    H146763   5.106   3.856  12.121  2.6485  2.6613  0.3125
 8424TIP3    H246764   5.218   3.799  12.037 -0.2401 -0.1780 -1.7255
 8425TIP3   OH246765   1.893   4.040  11.851 -0.4314 -0.0615  0.5270
 8425TIP3    H146766   1.830   3.974  11.879  0.5231 -0.6193  1.3935
 8425TIP3    H246767   1.883   4.044  11.755 -0.6987 -1.2379  0.5011
 8426TIP3   OH246768   6.577   5.280   5.663 -0.8967 -0.4957  0.2968
 8426TIP3    H146769   6.599   5.246   5.576  1.4284  0.8698  0.3064
 8426TIP3    H246770   6.629   5.227   5.723  1.7893  2.0991  0.4016
 8427TIP3   OH246771   1.493   1.422  15.950 -0.0232 -0.3521 -0.1547
 8427TIP3    H146772   1.572   1.474  15.964  0.5414 -1.3870  0.5672
 8427TIP3    H246773   1.437   1.443  16.024 -0.4075  0.3229 -0.6261
 8428TIP3   OH246774   5.261   3.884   4.915  0.2433 -0.0735  0.9787
 8428TIP3    H146775   5.220   3.808   4.956 -1.0342  0.0758 -0.0087
 8428TIP3    H246776   5.325   3.847   4.855 -0.3875 -0.3796  0.4892
 8429TIP3   OH246777   0.191   0.894   3.973 -0.0891 -0.2037 -0.4413
 8429TIP3    H146778   0.100   0.915   3.950 -1.0997 -2.4669  1.3339
 8429TIP3    H246779   0.205   0.938   4.057 -0.0969 -1.2254  0.0995
 8430TIP3   OH246780   5.999   2.842   1.385 -0.3940  0.1249  0.8340
 8430TIP3    H146781   5.931   2.794   1.337 -0.4923 -0.1023  1.2022
 8430TIP3    H246782   5.951   2.893   1.449 -0.2882  0.7173  0.4412
 8431TIP3   OH246783   5.151   3.321  14.381 -0.9206 -0.0268  0.0594
 8431TIP3    H146784   5.056   3.330  14.367 -0.6946 -0.0230 -1.6423
 8431TIP3    H246785   5.166   3.226  14.376 -1.0771 -0.1979  2.2177
 8432TIP3   OH246786   6.528   4.274   4.679 -0.5308  0.3053 -0.0999
 8432TIP3    H146787   6.502   4.262   4.588 -1.4938  1.9944 -0.0803
 8432TIP3    H246788   6.451   4.248   4.730  0.3034 -1.4711  0.2872
 8433TIP3   OH246789   0.374   1.068  14.818  0.1823  0.0574 -0.0544
 8433TIP3    H146790   0.281   1.090  14.820 -0.1234 -1.0363 -1.4060
 8433TIP3    H246791   0.419   1.152  14.812 -0.7929  0.4967 -1.2659
 8434TIP3   OH246792   4.241   2.827  16.313 -0.0138 -0.0808  0.6262
 8434TIP3    H146793   4.258   2.772  16.236  0.9085  1.0557  0.0024
 8434TIP3    H246794   4.218   2.764  16.382 -0.2315 -1.1598 -0.3968
 8435TIP3   OH246795   2.152   2.138   2.138  0.2105 -0.1582  0.7289
 8435TIP3    H146796   2.140   2.149   2.232  1.0481  2.3789  0.5810
 8435TIP3    H246797   2.101   2.209   2.099  1.5117  0.0374 -0.6489
 8436TIP3   OH246798   5.431   1.249  13.067  0.3284  0.3859  0.2733
 8436TIP3    H146799   5.512   1.289  13.099 -0.3401  0.8936  1.3694
 8436TIP3    H246800   5.375   1.243  13.144 -1.2714  1.4824 -0.7601
 8437TIP3   OH246801   5.547   6.069   5.927  0.2822 -0.2850  0.9211
 8437TIP3    H146802   5.584   6.136   5.871 -0.2549 -1.4894 -0.9058
 8437TIP3    H246803   5.518   6.117   6.005  0.8337  1.4370  0.0993
 8438TIP3   OH246804   3.126   5.042   4.977  0.5044 -0.3553  0.2962
 8438TIP3    H146805   3.043   5.089   4.977  0.6685 -0.0626 -0.0953
 8438TIP3    H246806   3.102   4.953   4.950  0.3507 -0.2109 -0.0514
 8439TIP3   OH246807   0.035   1.953   4.437  0.1563 -0.2243 -0.3721
 8439TIP3    H146808   0.119   1.981   4.401  0.7946 -2.3586 -0.6118
 8439TIP3    H246809  -0.030   1.980   4.372  0.8795 -0.4274 -1.1765
 8440TIP3   OH246810   1.960   1.314   0.092 -0.9991  0.1939 -0.4738
 8440TIP3    H146811   1.900   1.388   0.081 -2.1833 -0.8393 -1.0924
 8440TIP3    H246812   1.921   1.244   0.040  0.7563 -0.5003 -0.8889
 8441TIP3   OH246813   1.291   2.856   2.340 -0.3177  0.6580 -0.0287
 8441TIP3    H146814   1.349   2.784   2.365 -2.5201 -0.9804  0.4416
 8441TIP3    H246815   1.349   2.919   2.297  1.5784 -1.5352 -0.7844
 8442TIP3   OH246816   4.109   3.763  16.838  0.7985  0.4294  0.4201
 8442TIP3    H146817   4.057   3.684  16.826  0.9115  0.2372  1.1989
 8442TIP3    H246818   4.127   3.766  16.932  2.7842  0.1277  0.0556
 8443TIP3   OH246819   2.793   5.649   3.329  0.1253  0.0097  0.2185
 8443TIP3    H146820   2.756   5.704   3.260 -0.8173 -0.4112  0.3894
 8443TIP3    H246821   2.735   5.572   3.333  0.7686 -0.4548  0.7692
 8444TIP3   OH246822   1.570   6.052   3.726 -0.2959  0.1654 -0.4407
 8444TIP3    H146823   1.602   6.028   3.639  0.9166  0.5086 -0.0938
 8444TIP3    H246824   1.549   6.145   3.719  1.3593  0.5952  0.0765
 8445TIP3   OH246825   6.101   2.226   0.558  0.4889 -0.0252 -0.2236
 8445TIP3    H146826   6.145   2.311   0.552  1.0620 -0.0604  2.6558
 8445TIP3    H246827   6.008   2.246   0.547  0.8061  0.6486 -1.8208
 8446TIP3   OH246828   2.696   2.079  11.715  0.6005 -0.2770  0.4723
 8446TIP3    H146829   2.729   2.153  11.663  0.6700  0.4776  1.5746
 8446TIP3    H246830   2.757   2.072  11.788 -0.4026 -0.2877  1.3254
 8447TIP3   OH246831   4.465   2.251   3.101  0.0109  0.2670  0.3066
 8447TIP3    H146832   4.382   2.299   3.098 -0.8249 -1.2288 -1.5050
 8447TIP3    H246833   4.439   2.159   3.105  1.5934 -0.1726  0.6114
 8448TIP3   OH246834   3.323   0.429   0.379  0.4039  0.1191  0.6308
 8448TIP3    H146835   3.281   0.485   0.315  1.5170 -0.6739 -0.8356
 8448TIP3    H246836   3.345   0.487   0.452 -1.3347  0.9261  0.5207
 8449TIP3   OH246837   4.259   5.166  16.552 -0.0921 -0.0058 -0.0747
 8449TIP3    H146838   4.265   5.071  16.546 -2.3994 -0.1431 -0.4223
 8449TIP3    H246839   4.168   5.184  16.573  0.0254  2.1909 -1.2650
 8450TIP3   OH246840   6.131   6.603   4.383 -0.5748  0.6155 -0.6338
 8450TIP3    H146841   6.065   6.534   4.375 -1.2759  1.2652 -0.6398
 8450TIP3    H246842   6.152   6.606   4.476 -0.1754  0.0590 -0.7068
 8451TIP3   OH246843   6.284   4.595   5.599 -0.2004  0.3287  0.1892
 8451TIP3    H146844   6.372   4.623   5.626  0.5233 -1.9124  0.2266
 8451TIP3    H246845   6.227   4.666   5.629  1.3832  1.0517  1.6123
 8452TIP3   OH246846   3.293   4.185   4.740  0.1918  0.5180 -0.1472
 8452TIP3    H146847   3.352   4.160   4.669 -0.5323  1.2083 -1.0097
 8452TIP3    H246848   3.284   4.280   4.731 -0.5321  0.5013  0.3659
 8453TIP3   OH246849   6.645   3.285   2.169 -0.5272 -0.1608 -0.3799
 8453TIP3    H146850   6.701   3.216   2.134 -1.5152 -1.1007 -0.1366
 8453TIP3    H246851   6.560   3.242   2.184 -0.6780  0.6926  1.3354
 8454TIP3   OH246852   0.219   4.135  15.168 -0.3551 -0.1130 -0.0117
 8454TIP3    H146853   0.224   4.108  15.259 -0.4155  0.7930  0.2703
 8454TIP3    H246854   0.295   4.192  15.156  0.3945 -1.2758 -0.8974
 8455TIP3   OH246855   2.051   4.843   3.083  0.7222 -0.5165 -0.4790
 8455TIP3    H146856   1.972   4.805   3.122  0.7204 -0.8263 -0.7805
 8455TIP3    H246857   2.081   4.777   3.021  1.1158 -0.3201 -0.4988
 8456TIP3   OH246858   5.078   5.469  11.312  0.9889 -0.1770  0.2359
 8456TIP3    H146859   5.041   5.381  11.308 -0.9265  0.6297 -0.2779
 8456TIP3    H246860   5.082   5.489  11.405 -0.1698 -0.1603  0.2877
 8457TIP3   OH246861   5.123   1.076   1.122 -0.0505 -0.4364 -0.3320
 8457TIP3    H146862   5.152   1.156   1.079 -0.6680  0.0571  0.1747
 8457TIP3    H246863   5.196   1.015   1.110  1.0181  0.6499  0.5472
 8458TIP3   OH246864   4.950   2.868   1.688 -0.0970 -0.9119  0.0100
 8458TIP3    H146865   4.890   2.881   1.761 -1.2617 -1.0160 -0.9290
 8458TIP3    H246866   4.921   2.930   1.621  1.4999 -0.1891 -0.0587
 8459TIP3   OH246867   4.874   2.275  15.883  0.5283  0.2051 -0.5486
 8459TIP3    H146868   4.913   2.328  15.953  1.0498  0.7964 -1.2842
 8459TIP3    H246869   4.877   2.331  15.806  1.0131 -0.8817 -1.3194
 8460TIP3   OH246870   5.485   5.130  14.387  1.0918 -0.4940  0.2061
 8460TIP3    H146871   5.433   5.211  14.393  1.2070 -0.3830 -0.3016
 8460TIP3    H246872   5.567   5.151  14.431  0.9671 -0.4566  0.4214
 8461TIP3   OH246873   5.156   3.575  14.245 -0.9299 -0.1539  0.5827
 8461TIP3    H146874   5.170   3.491  14.289 -1.5538  0.1515  1.3922
 8461TIP3    H246875   5.175   3.641  14.313 -0.7753  0.3470  0.0549
 8462TIP3   OH246876   5.964   0.291   4.854  0.0408 -0.0506  0.5766
 8462TIP3    H146877   5.924   0.216   4.811  0.8561 -0.2413  0.1296
 8462TIP3    H246878   5.985   0.260   4.943  0.2336 -0.3063  0.4425
 8463TIP3   OH246879   3.368   5.885  16.913 -0.1077 -0.7537 -0.0230
 8463TIP3    H146880   3.435   5.877  16.981  0.2349 -0.0409 -0.2728
 8463TIP3    H246881   3.288   5.903  16.962  0.2255  0.2236  0.1660
 8464TIP3   OH246882   0.824   1.622  16.228  0.1466  0.1900  0.2905
 8464TIP3    H146883   0.877   1.634  16.149 -0.1890 -1.3995 -0.2000
 8464TIP3    H246884   0.887   1.624  16.300  0.5230  1.1174 -0.0547
 8465TIP3   OH246885   3.954   6.441   2.744  0.0090  0.2127 -0.0893
 8465TIP3    H146886   3.905   6.485   2.814  1.2915  0.2233  0.8272
 8465TIP3    H246887   4.045   6.457   2.766  0.4341  0.0069 -1.6600
 8466TIP3   OH246888   1.456   5.865   4.548  0.3258  0.0222  0.2333
 8466TIP3    H146889   1.414   5.940   4.590 -0.1482  0.0650 -0.3098
 8466TIP3    H246890   1.550   5.882   4.556  0.2376  0.1681  1.0230
 8467TIP3   OH246891   4.889   1.633   5.202 -0.1904  0.0700 -0.5793
 8467TIP3    H146892   4.930   1.716   5.229  1.3268 -0.8334 -0.0805
 8467TIP3    H246893   4.944   1.602   5.131 -0.0403 -1.1587  0.0782
 8468TIP3   OH246894   6.771   0.117  12.392 -0.1354  0.2359  0.0253
 8468TIP3    H146895   6.756   0.022  12.395 -0.6769  0.2956 -0.7315
 8468TIP3    H246896   6.775   0.138  12.299  1.9269  0.6641  0.1938
 8469TIP3   OH246897   6.074   3.480   0.055 -0.1394 -0.5225 -0.8278
 8469TIP3    H146898   6.120   3.404   0.021 -0.9808 -1.2879 -0.2621
 8469TIP3    H246899   6.053   3.458   0.145  2.1706  1.5415  0.2724
 8470TIP3   OH246900   1.796   4.850   0.947  0.0356 -0.4111 -0.1593
 8470TIP3    H146901   1.859   4.781   0.927 -2.1952 -2.1147 -1.5629
 8470TIP3    H246902   1.787   4.848   1.043 -0.0811 -2.1718 -0.1896
 8471TIP3   OH246903   1.355   4.649   4.062 -0.3598  0.0393  0.3663
 8471TIP3    H146904   1.433   4.604   4.095  1.2790  2.1803 -0.4892
 8471TIP3    H246905   1.363   4.644   3.966 -1.6742 -0.3698  0.2614
 8472TIP3   OH246906   6.175   1.502  10.865  0.2267  0.4749 -0.0389
 8472TIP3    H146907   6.192   1.428  10.807 -0.7505  1.7886 -2.0544
 8472TIP3    H246908   6.158   1.575  10.806 -1.2354  1.7533  1.9055
 8473TIP3   OH246909   0.372   2.642  14.756  0.0744  0.1695 -0.0133
 8473TIP3    H146910   0.366   2.674  14.846  0.0795  1.1154 -0.3420
 8473TIP3    H246911   0.283   2.612  14.735 -0.4939  2.1381 -0.4864
 8474TIP3   OH246912   2.146   1.038   5.965 -0.0298  0.4301  0.0080
 8474TIP3    H146913   2.220   1.088   5.930  0.3388 -0.6483 -0.7639
 8474TIP3    H246914   2.168   1.023   6.057  0.2185  1.0104  0.0443
 8475TIP3   OH246915   4.039   2.593   5.320 -0.9221  0.7001  0.5087
 8475TIP3    H146916   4.088   2.675   5.329  0.1471  0.0361  0.7996
 8475TIP3    H246917   3.979   2.593   5.394 -0.4452  0.8997  0.9000
 8476TIP3   OH246918   2.556   5.229  13.498 -0.1679 -0.3898  0.0454
 8476TIP3    H146919   2.518   5.297  13.554  0.5804 -0.5693  0.7724
 8476TIP3    H246920   2.578   5.158  13.557  1.1240 -0.3683 -0.3965
 8477TIP3   OH246921   5.568   3.207  11.759  0.3437 -0.4725  0.1430
 8477TIP3    H146922   5.621   3.250  11.827 -1.3529  2.6537 -0.4019
 8477TIP3    H246923   5.621   3.214  11.680 -0.3238  1.6033 -0.1549
 8478TIP3   OH246924   2.050   1.945   0.095  0.1694  0.2100 -0.2221
 8478TIP3    H146925   1.978   1.890   0.062  0.7990  0.4344 -1.9945
 8478TIP3    H246926   2.120   1.883   0.115  0.2006  0.1851 -0.4081
 8479TIP3   OH246927   5.844   4.645  15.702 -0.1049  0.1318 -0.4836
 8479TIP3    H146928   5.820   4.616  15.791 -0.9535  0.4124 -0.6139
 8479TIP3    H246929   5.938   4.628  15.696  0.1030  0.7741  0.7199
 8480TIP3   OH246930   2.024   0.617  16.837 -0.1736  0.6333 -0.1200
 8480TIP3    H146931   2.116   0.595  16.854 -0.1515  1.5113  0.9947
 8480TIP3    H246932   2.020   0.712  16.851 -1.4324  0.4659  0.6589
 8481TIP3   OH246933   2.431   2.855   0.316 -0.9004  0.0992  0.5786
 8481TIP3    H146934   2.445   2.760   0.308 -0.6760  0.1529  0.2882
 8481TIP3    H246935   2.337   2.866   0.309 -0.8747 -0.0469 -0.0612
 8482TIP3   OH246936   1.765   1.052   3.898 -0.2959  0.0535 -0.0475
 8482TIP3    H146937   1.737   0.999   3.823  0.5924 -0.2359 -0.1785
 8482TIP3    H246938   1.797   1.133   3.859  0.6640 -0.3090 -0.0232
 8483TIP3   OH246939   0.251   2.810   1.681  0.6039  0.9428  0.1925
 8483TIP3    H146940   0.176   2.822   1.623  1.1994 -0.2283 -0.8342
 8483TIP3    H246941   0.250   2.718   1.704  1.2561  1.0906  0.8410
 8484TIP3   OH246942   1.089   3.483   5.555  0.1823  0.0976  0.4997
 8484TIP3    H146943   1.070   3.412   5.616 -1.0241 -1.4196 -1.5834
 8484TIP3    H246944   1.003   3.512   5.524  0.8069  0.0188 -1.3663
 8485TIP3   OH246945   4.045   2.610  12.495  0.1788 -0.2880 -0.2148
 8485TIP3    H146946   3.957   2.624  12.530 -0.5334  0.9667 -2.3826
 8485TIP3    H246947   4.098   2.585  12.571 -1.6041  0.8967  1.4623
 8486TIP3   OH246948   0.626   2.688   3.211 -0.7217 -0.2225 -0.2920
 8486TIP3    H146949   0.558   2.639   3.257 -0.2986  0.3191  0.9159
 8486TIP3    H246950   0.704   2.679   3.266  0.0337 -0.3355 -1.3633
 8487TIP3   OH246951   0.153   3.880   0.289  0.6541 -0.5478 -0.6217
 8487TIP3    H146952   0.057   3.871   0.287  0.6744 -0.7417 -0.7346
 8487TIP3    H246953   0.177   3.894   0.197  0.9771 -3.0433 -0.9563
 8488TIP3   OH246954   2.459   1.983   2.717 -0.2885 -0.1932  0.4373
 8488TIP3    H146955   2.431   1.988   2.626 -0.7984  2.2122  0.7024
 8488TIP3    H246956   2.386   1.942   2.763 -1.2339  1.1966  0.2159
 8489TIP3   OH246957   4.965   4.420   3.525 -0.1445  0.4593  0.3869
 8489TIP3    H146958   5.052   4.433   3.488 -0.2093 -0.2473 -0.0256
 8489TIP3    H246959   4.906   4.432   3.451 -0.4589  1.6903  0.8208
 8490TIP3   OH246960   1.158   3.533   2.655 -0.1017  0.5615  0.3237
 8490TIP3    H146961   1.188   3.492   2.736 -1.0491 -0.6114  0.0982
 8490TIP3    H246962   1.063   3.541   2.667 -0.3316 -0.2347 -0.9426
 8491TIP3   OH246963   4.736   1.750   0.596 -0.1565 -0.7823 -0.6195
 8491TIP3    H146964   4.660   1.793   0.555 -0.5021 -1.0877 -0.3036
 8491TIP3    H246965   4.784   1.711   0.523 -1.1563 -1.9402 -0.6725
 8492TIP3   OH246966   4.033   1.879  14.374 -0.1364 -0.1070  0.1721
 8492TIP3    H146967   4.072   1.852  14.457 -0.5621 -1.0577  0.0668
 8492TIP3    H246968   3.943   1.903  14.396  0.3981  1.8101  0.3669
 8493TIP3   OH246969   2.786   1.402   1.532 -0.0362  0.1125  0.4272
 8493TIP3    H146970   2.798   1.420   1.438 -1.1582  0.6069  0.3681
 8493TIP3    H246971   2.807   1.485   1.575  2.1212 -0.5759  0.7655
 8494TIP3   OH246972   0.686   2.287   5.813  0.5743  0.5309  0.4260
 8494TIP3    H146973   0.622   2.243   5.867 -0.8261  1.3023 -0.5816
 8494TIP3    H246974   0.671   2.254   5.725  1.3632  0.9445  0.1275
 8495TIP3   OH246975   6.356   0.164  14.988 -0.9141 -0.2482 -0.5736
 8495TIP3    H146976   6.394   0.250  14.973 -1.0585 -0.4060 -1.9245
 8495TIP3    H246977   6.432   0.105  14.993 -0.7758  0.0551  1.1360
 8496TIP3   OH246978   5.523   0.500  14.424 -0.3644 -0.6397  0.1690
 8496TIP3    H146979   5.444   0.542  14.393  0.0476  0.8182  1.0665
 8496TIP3    H246980   5.512   0.492  14.518 -0.0765 -1.7838  0.1192
 8497TIP3   OH246981   4.293   4.139   5.484 -0.0049 -0.5635  0.1052
 8497TIP3    H146982   4.281   4.217   5.431  1.5183 -0.3002  0.1141
 8497TIP3    H246983   4.348   4.167   5.557 -1.5102 -1.0757  1.4784
 8498TIP3   OH246984   4.525   6.815  14.412  0.4159 -0.1610 -0.1839
 8498TIP3    H146985   4.573   6.895  14.392  0.4634 -0.0716  0.3024
 8498TIP3    H246986   4.487   6.830  14.498  1.0721 -0.9699  0.2474
 8499TIP3   OH246987   0.100   4.848  11.442  0.8673  0.4955  0.0373
 8499TIP3    H146988   0.080   4.940  11.460 -1.0822 -0.1623  1.5002
 8499TIP3    H246989   0.056   4.830  11.359  1.4765  0.9736 -0.3813
 8500TIP3   OH246990   3.160   2.348   5.711 -0.7473 -0.6140 -0.3027
 8500TIP3    H146991   3.113   2.383   5.635 -1.6034 -2.6588 -0.7497
 8500TIP3    H246992   3.130   2.401   5.784  0.0129  1.3267 -1.3741
 8501TIP3   OH246993   3.526   0.989   5.030 -0.6693  0.6498 -0.2963
 8501TIP3    H146994   3.587   0.924   4.995  1.4293  1.9305  0.9144
 8501TIP3    H246995   3.555   1.072   4.995 -1.7459  1.2766  0.2651
 8502TIP3   OH246996   6.207   3.750  12.302  0.2935  0.0661 -0.4300
 8502TIP3    H146997   6.236   3.789  12.220  0.3240  0.5173 -0.2053
 8502TIP3    H246998   6.176   3.824  12.354  1.7758 -0.0267  0.5925
 8503TIP3   OH246999   5.530   0.180   0.041  0.1426 -0.0443 -0.1312
 8503TIP3    H147000   5.616   0.143   0.023  0.7182  0.5950  1.2333
 8503TIP3    H247001   5.524   0.183   0.137 -0.2481  2.5043 -0.2052
 8504TIP3   OH247002   6.060   5.827  15.935 -0.0204  0.2656 -0.0535
 8504TIP3    H147003   6.119   5.755  15.957 -0.2071 -0.2137 -1.1227
 8504TIP3    H247004   5.988   5.819  15.998  1.5806  1.5643  2.0441
 8505TIP3   OH247005   6.304   3.976  15.037  0.0687 -0.4663 -0.5322
 8505TIP3    H147006   6.301   4.072  15.030  1.8882 -0.4647 -1.6177
 8505TIP3    H247007   6.396   3.954  15.022 -0.5798 -2.4773 -1.7176
 8506TIP3   OH247008   4.359   4.328  14.439  0.5820 -0.5369 -0.0857
 8506TIP3    H147009   4.401   4.331  14.353  1.3585  0.4474  0.3175
 8506TIP3    H247010   4.299   4.403  14.440  0.2658 -0.7927  0.0617
 8507TIP3   OH247011   4.263   6.150  15.695  0.3968 -0.0970  0.0056
 8507TIP3    H147012   4.339   6.179  15.644 -0.2473  1.0505 -0.3079
 8507TIP3    H247013   4.187   6.171  15.640 -0.3568  1.7599  1.6861
 8508TIP3   OH247014   5.975   3.362   2.752  0.3971  0.5044  0.0130
 8508TIP3    H147015   6.037   3.336   2.684  2.9915  2.7861  1.3886
 8508TIP3    H247016   6.029   3.371   2.831 -1.7076  2.5194  1.2693
 8509TIP3   OH247017   2.601   3.086   0.402 -0.2935 -0.4145 -0.1843
 8509TIP3    H147018   2.519   3.037   0.402 -0.0726 -0.8056 -1.8771
 8509TIP3    H247019   2.669   3.020   0.392 -0.0320  0.2168 -3.2274
 8510TIP3   OH247020   2.194   6.360   2.013 -0.3902 -0.0095  0.1051
 8510TIP3    H147021   2.125   6.423   2.034 -0.8538 -0.6490  0.5274
 8510TIP3    H247022   2.227   6.331   2.098  0.1424  0.0151 -0.0929
 8511TIP3   OH247023   6.631   5.895  14.457  0.7707  0.6061  0.3227
 8511TIP3    H147024   6.665   5.923  14.372 -1.7042  3.1325  0.1086
 8511TIP3    H247025   6.581   5.816  14.437 -0.2070  1.4572 -0.6726
 8512TIP3   OH247026   5.265   4.232   3.007 -0.6612 -0.4757  0.0470
 8512TIP3    H147027   5.355   4.209   2.985 -0.3244 -0.9568  1.8556
 8512TIP3    H247028   5.271   4.269   3.095 -2.2383 -0.4762  0.1638
 8513TIP3   OH247029   4.020   4.436   0.588  0.1486  0.4948  0.3006
 8513TIP3    H147030   4.093   4.499   0.587  1.3616 -0.8925  0.2798
 8513TIP3    H247031   4.047   4.367   0.528 -0.0547 -1.2907  2.2188
 8514TIP3   OH247032   4.645   4.304   6.139  0.0299 -0.5150  0.4650
 8514TIP3    H147033   4.569   4.362   6.138  2.3193  2.5764 -0.4678
 8514TIP3    H247034   4.641   4.259   6.055  0.0562  0.7393 -0.2118
 8515TIP3   OH247035   2.193   1.747  14.111 -0.0930  0.1693  1.0903
 8515TIP3    H147036   2.109   1.750  14.157  0.0589  0.2384  1.3626
 8515TIP3    H247037   2.198   1.657  14.077 -1.0694  0.6789 -0.4248
 8516TIP3   OH247038   4.988   2.260  11.124  0.2969  0.1156 -0.3987
 8516TIP3    H147039   4.901   2.256  11.085 -0.1091  1.3046  0.3497
 8516TIP3    H247040   5.005   2.354  11.133  0.2331 -0.1311  2.5806
 8517TIP3   OH247041   3.657   4.343   2.263 -0.0856  0.1074 -0.3342
 8517TIP3    H147042   3.723   4.291   2.309 -1.5616  0.6585  2.5319
 8517TIP3    H247043   3.589   4.281   2.240 -0.5609  0.2680  0.6084
 8518TIP3   OH247044   0.830   6.650  15.469 -0.2401  0.1876 -0.2429
 8518TIP3    H147045   0.829   6.710  15.544  1.8161 -0.3274  0.2236
 8518TIP3    H247046   0.870   6.570  15.503 -0.4256 -0.4949 -1.5877
 8519TIP3   OH247047   3.650   1.265   3.101 -0.0502 -0.4692  0.1520
 8519TIP3    H147048   3.560   1.295   3.094 -0.0324 -0.6447 -0.9273
 8519TIP3    H247049   3.647   1.173   3.074  0.6636 -0.0944 -1.3106
 8520TIP3   OH247050   6.109   1.419  13.503 -0.5913  0.4724 -0.5108
 8520TIP3    H147051   6.146   1.379  13.581  0.2952  2.4887  0.1299
 8520TIP3    H247052   6.047   1.485  13.535 -0.6661  0.9080 -1.5073
 8521TIP3   OH247053   0.348   5.098  15.056 -0.1936 -0.0312 -0.7281
 8521TIP3    H147054   0.297   5.021  15.030 -0.7349 -0.3063  1.0628
 8521TIP3    H247055   0.439   5.073  15.043 -0.3341 -1.2717  0.5573
 8522TIP3   OH247056   6.788   0.416  12.453  0.0996  0.1267 -0.7838
 8522TIP3    H147057   6.722   0.379  12.394  2.1865 -0.6774 -2.6936
 8522TIP3    H247058   6.840   0.341  12.481  1.2740  0.9792 -0.6611
 8523TIP3   OH247059   5.770   1.142   5.949 -0.5513 -0.0147 -0.5279
 8523TIP3    H147060   5.773   1.228   5.907  1.8151  0.9130  1.4415
 8523TIP3    H247061   5.836   1.146   6.017 -1.9906 -2.6339  1.1134
 8524TIP3   OH247062   1.552   0.019  12.535  0.2138  0.1254  0.1187
 8524TIP3    H147063   1.544  -0.069  12.497  0.5169  0.2560 -0.2488
 8524TIP3    H247064   1.628   0.014  12.592  0.1965  0.1330  0.1416
 8525TIP3   OH247065   4.509   1.926  13.628  1.0316 -0.2512 -0.4042
 8525TIP3    H147066   4.458   1.883  13.559 -0.7110  0.0789  0.6685
 8525TIP3    H247067   4.497   2.020  13.612  0.5997 -0.1739  0.3654
 8526TIP3   OH247068   1.324   4.923  16.382 -0.6520 -0.1658  0.0684
 8526TIP3    H147069   1.327   5.002  16.435  0.1167  0.6108 -1.0878
 8526TIP3    H247070   1.384   4.862  16.425  0.7630  0.8283 -0.4607
 8527TIP3   OH247071   3.450   2.073  12.526  0.7361 -0.4609  0.4303
 8527TIP3    H147072   3.372   2.122  12.499  1.3280  0.2439 -0.0076
 8527TIP3    H247073   3.509   2.077  12.451  0.6107 -2.2502  0.2129
 8528TIP3   OH247074   5.690   4.932   3.852  0.3468  0.6036 -0.8562
 8528TIP3    H147075   5.730   4.845   3.854  3.8191  2.1228  1.3708
 8528TIP3    H247076   5.750   4.984   3.798 -0.7309  2.0198 -0.7098
 8529TIP3   OH247077   6.091   1.901  11.350  0.2280  0.3395 -0.3873
 8529TIP3    H147078   6.165   1.858  11.392  0.1559 -1.5284 -2.0801
 8529TIP3    H247079   6.014   1.855  11.384  0.0482  0.2113 -0.9617
 8530TIP3   OH247080   0.950   3.546  13.636 -0.5457 -0.1240 -0.2137
 8530TIP3    H147081   1.020   3.572  13.696 -0.2414 -0.9563 -0.2009
 8530TIP3    H247082   0.996   3.522  13.555 -0.7429 -1.4068  0.0456
 8531TIP3   OH247083   3.132   2.915  15.033  0.4708 -0.2773 -0.0691
 8531TIP3    H147084   3.151   2.851  14.964  2.4475  0.0211  0.1644
 8531TIP3    H247085   3.207   2.974  15.032 -0.6755  1.2302  0.6631
 8532TIP3   OH247086   4.439   0.728   2.050  0.3953  0.0487 -0.3108
 8532TIP3    H147087   4.368   0.746   1.988  0.1581 -0.0094 -0.0590
 8532TIP3    H247088   4.477   0.646   2.020 -0.9841 -1.0097  0.7490
 8533TIP3   OH247089   1.863   0.044   2.965  0.3229 -0.4107 -0.2673
 8533TIP3    H147090   1.943   0.042   2.913 -0.1988 -0.3721 -1.0777
 8533TIP3    H247091   1.857  -0.044   3.003  0.2591 -0.7014 -0.9551
 8534TIP3   OH247092   1.669   5.187  13.859  0.1592 -0.1890  0.2657
 8534TIP3    H147093   1.601   5.252  13.839 -1.0241 -1.7128 -0.8264
 8534TIP3    H247094   1.702   5.160  13.773  2.0783  0.4372  0.7918
 8535TIP3   OH247095   3.812   6.041   3.098  0.3290 -0.4312  0.2206
 8535TIP3    H147096   3.814   6.011   3.189  0.4905  2.8030  1.3440
 8535TIP3    H247097   3.751   5.982   3.055 -0.3007 -1.5812  2.5972
 8536TIP3   OH247098   1.000   6.423  14.813 -0.1133 -0.4284 -0.3883
 8536TIP3    H147099   1.013   6.410  14.907 -1.4882 -2.1394 -0.4201
 8536TIP3    H247100   1.089   6.425  14.778  0.4291  0.6574  0.9972
 8537TIP3   OH247101   6.264   5.086   3.604  0.3352 -0.4883  0.0985
 8537TIP3    H147102   6.304   5.002   3.628  1.2537  0.3790  1.6861
 8537TIP3    H247103   6.339   5.143   3.584 -0.3113 -0.2929 -1.9043
 8538TIP3   OH247104   6.253   3.697   3.492  0.4640 -0.2099 -0.5306
 8538TIP3    H147105   6.218   3.640   3.559  0.8681  1.1050  0.8286
 8538TIP3    H247106   6.195   3.774   3.493  2.0640  1.0212  0.2480
 8539TIP3   OH247107   2.591   5.298  15.906  0.4948 -0.3466  0.4961
 8539TIP3    H147108   2.604   5.393  15.917 -0.4558 -0.0416 -0.9724
 8539TIP3    H247109   2.644   5.275  15.830  0.4361 -0.9307  0.6303
 8540TIP3   OH247110   3.314   2.243   0.435  0.1974 -0.4888 -0.5686
 8540TIP3    H147111   3.305   2.149   0.417 -0.0981 -0.6912  0.5773
 8540TIP3    H247112   3.229   2.268   0.471  0.1272  0.3221 -1.2791
 8541TIP3   OH247113   3.990   6.518   5.927 -0.5048  0.1327  0.2693
 8541TIP3    H147114   3.946   6.583   5.872  1.2871  1.8124  0.7593
 8541TIP3    H247115   3.979   6.551   6.016 -0.3421 -0.7346  0.6175
 8542TIP3   OH247116   2.825   1.131  12.610  0.5510 -0.2845 -0.3122
 8542TIP3    H147117   2.806   1.223  12.629  1.3937  0.1104 -1.3429
 8542TIP3    H247118   2.742   1.095  12.581 -0.3835 -0.4814  2.4240
 8543TIP3   OH247119   3.642   3.411  12.889 -0.0448 -0.1858  0.3703
 8543TIP3    H147120   3.697   3.369  12.823 -0.9578 -2.0118  0.7266
 8543TIP3    H247121   3.617   3.494  12.850  2.4561  0.4188 -0.0352
 8544TIP3   OH247122   0.687   2.234  13.992  0.6317  0.0609  0.4065
 8544TIP3    H147123   0.781   2.245  14.004  1.2506 -2.2611 -1.8928
 8544TIP3    H247124   0.665   2.297  13.923  0.8316 -0.4519 -0.1404
 8545TIP3   OH247125   6.730   4.986  10.850  0.3176  0.0958  0.2066
 8545TIP3    H147126   6.766   4.905  10.814 -0.3651 -0.3520  0.5264
 8545TIP3    H247127   6.806   5.043  10.859  0.7917 -0.4695 -0.1195
 8546TIP3   OH247128   4.479   6.249   6.374  0.1592 -0.1149  0.2659
 8546TIP3    H147129   4.471   6.176   6.435  1.2318 -0.0450  0.5145
 8546TIP3    H247130   4.398   6.299   6.384 -0.0906 -0.6541  0.9124
 8547TIP3   OH247131   2.634   0.820   1.260 -0.2270  0.4348 -0.0741
 8547TIP3    H147132   2.546   0.803   1.295  0.6388 -0.2201  1.8532
 8547TIP3    H247133   2.623   0.898   1.205 -1.9189  0.6550  0.5340
 8548TIP3   OH247134   0.490   4.079   1.681 -0.2176 -0.3359  0.5688
 8548TIP3    H147135   0.428   4.028   1.628  0.5755  0.2746 -0.9790
 8548TIP3    H247136   0.462   4.170   1.671  0.0180 -0.2064  1.0817
 8549TIP3   OH247137   1.609   2.059  11.680 -0.1397 -0.1053  0.2182
 8549TIP3    H147138   1.552   2.136  11.685 -0.4267 -0.3880  1.7489
 8549TIP3    H247139   1.695   2.094  11.658  0.2066  0.9234  3.0498
 8550TIP3   OH247140   0.355   5.470  11.442  0.4413  0.6327  0.0834
 8550TIP3    H147141   0.337   5.467  11.535  1.1278 -0.5791  0.1849
 8550TIP3    H247142   0.269   5.476  11.400  0.0253 -0.9840  0.7079
 8551TIP3   OH247143   3.474   1.086  12.943 -0.3511 -0.5719 -0.1823
 8551TIP3    H147144   3.492   1.079  12.850  1.3040 -1.2188  0.1730
 8551TIP3    H247145   3.485   0.997  12.977  0.4046 -0.0919  0.8527
 8552TIP3   OH247146   0.405   4.557   5.401 -0.2315  0.2350  0.5972
 8552TIP3    H147147   0.500   4.564   5.389 -0.2936  0.8117  0.4710
 8552TIP3    H247148   0.373   4.647   5.398 -0.7271  0.0787  1.1326
 8553TIP3   OH247149   6.440   6.069   3.000 -0.6292  0.0899  0.2111
 8553TIP3    H147150   6.367   6.104   2.949 -0.6978 -0.0791  0.1926
 8553TIP3    H247151   6.400   6.033   3.079 -0.5890 -0.1858  0.1077
 8554TIP3   OH247152   1.679   5.328   0.532  0.5086  1.1362 -0.3133
 8554TIP3    H147153   1.674   5.241   0.572 -2.0684  2.2952  2.0746
 8554TIP3    H247154   1.651   5.314   0.442 -0.5163 -0.4309  0.2169
 8555TIP3   OH247155   3.619   1.175   2.538 -0.0918 -0.2422 -0.1153
 8555TIP3    H147156   3.680   1.139   2.603 -0.8327 -1.9415 -0.3341
 8555TIP3    H247157   3.610   1.268   2.562  2.1743 -0.0884  0.2195
 8556TIP3   OH247158   4.181   0.707  14.629 -0.2158  0.2003  0.3171
 8556TIP3    H147159   4.095   0.741  14.606 -0.4209 -0.9226 -0.5618
 8556TIP3    H247160   4.167   0.663  14.713 -0.1713  1.3075  0.9228
 8557TIP3   OH247161   3.073   4.419  16.998 -0.1481  0.1870 -0.3850
 8557TIP3    H147162   3.056   4.439  17.090 -2.1819 -1.2310 -0.4230
 8557TIP3    H247163   3.165   4.390  16.997 -0.2551 -0.2920  1.2986
 8558TIP3   OH247164   4.154   1.087   3.733 -0.2480  0.2816  0.2971
 8558TIP3    H147165   4.203   1.013   3.697  0.0640  0.5985  0.0640
 8558TIP3    H247166   4.121   1.133   3.656 -1.1329 -0.0752  0.4608
 8559TIP3   OH247167   1.913   1.032   2.520 -0.3253 -0.0680 -0.5813
 8559TIP3    H147168   1.948   1.106   2.471  1.0784 -0.1965  0.2008
 8559TIP3    H247169   1.836   1.067   2.566 -0.1999  0.6570 -0.9300
 8560TIP3   OH247170   0.573   1.455  14.404  0.2179  0.5702 -0.3505
 8560TIP3    H147171   0.510   1.453  14.331  0.6897 -1.6968 -0.7480
 8560TIP3    H247172   0.647   1.504  14.369  1.0676 -1.7704 -1.9939
 8561TIP3   OH247173   5.938   6.310   0.832 -0.0968  0.1642  0.4250
 8561TIP3    H147174   6.029   6.299   0.806  0.1494  1.3762  0.7331
 8561TIP3    H247175   5.928   6.404   0.846 -2.0009  0.3241 -1.8207
 8562TIP3   OH247176   6.547   6.233  13.119  0.3118  0.7546  0.4105
 8562TIP3    H147177   6.572   6.158  13.172  1.1640  1.6968  1.3597
 8562TIP3    H247178   6.480   6.199  13.059  0.1328 -0.5658  1.3495
 8563TIP3   OH247179   5.870   5.516  12.488  0.5630  0.3757 -0.2500
 8563TIP3    H147180   5.869   5.422  12.469 -2.1671  0.2802  0.0729
 8563TIP3    H247181   5.798   5.528  12.550  1.0504  2.6527 -0.0794
 8564TIP3   OH247182   1.521   0.177   0.976 -0.5838  0.1126 -0.1161
 8564TIP3    H147183   1.465   0.251   0.954  0.1446  0.6606 -0.1686
 8564TIP3    H247184   1.476   0.132   1.048 -1.6693 -0.1492 -0.9637
 8565TIP3   OH247185   0.399   3.259   2.699 -0.2882 -0.0003  0.2515
 8565TIP3    H147186   0.319   3.208   2.706 -0.2332  0.1256  1.9739
 8565TIP3    H247187   0.469   3.196   2.717 -0.1669  0.4477  1.3977
 8566TIP3   OH247188   6.122   1.422   3.415 -0.0680  0.2491  0.1073
 8566TIP3    H147189   6.108   1.454   3.327  1.7574 -0.8011 -0.6046
 8566TIP3    H247190   6.063   1.347   3.424  0.5672 -0.3494 -0.6449
 8567TIP3   OH247191   3.747   2.722  16.061  0.2674  0.4467  0.8382
 8567TIP3    H147192   3.748   2.817  16.060  0.8539  0.4556 -1.6280
 8567TIP3    H247193   3.657   2.699  16.038  0.3853  0.4090  0.4154
 8568TIP3   OH247194   2.610   5.048   0.882 -0.3490 -0.5121 -0.2299
 8568TIP3    H147195   2.690   5.020   0.838 -1.4926  0.2781 -2.9438
 8568TIP3    H247196   2.544   5.048   0.813 -1.7286  3.0210  0.9779
 8569TIP3   OH247197   4.769   2.800  15.427  0.4088 -0.2285 -0.0826
 8569TIP3    H147198   4.723   2.879  15.397  0.2302  0.4432  1.8830
 8569TIP3    H247199   4.718   2.727  15.390  1.0686  0.5708 -2.6027
 8570TIP3   OH247200   1.218   5.660   2.384  0.2743 -0.2067  0.1737
 8570TIP3    H147201   1.133   5.671   2.341 -0.3363 -0.5535  1.2664
 8570TIP3    H247202   1.265   5.596   2.329  0.1504  0.6001 -0.8830
 8571TIP3   OH247203   6.054   1.872  12.269  0.2080  0.0882 -0.0721
 8571TIP3    H147204   5.992   1.803  12.247  0.6853  0.2227 -1.9834
 8571TIP3    H247205   6.107   1.882  12.190  1.4616  1.2394  0.8907
 8572TIP3   OH247206   1.090   2.992   2.190 -0.0087  0.3005  0.5547
 8572TIP3    H147207   1.149   2.920   2.211 -2.5050 -1.6184  1.1855
 8572TIP3    H247208   1.023   2.989   2.258 -1.3426  1.8606 -0.6472
 8573TIP3   OH247209   3.656   2.648   1.212 -0.3432 -0.1882  0.4522
 8573TIP3    H147210   3.722   2.582   1.231 -0.7014 -0.6330  0.1559
 8573TIP3    H247211   3.635   2.636   1.119 -0.5958  0.1690  0.4587
 8574TIP3   OH247212   1.125   5.395   4.679  0.2621 -0.6961  0.0669
 8574TIP3    H147213   1.131   5.315   4.626  2.1933 -0.7106  0.2725
 8574TIP3    H247214   1.074   5.455   4.626  0.1000 -1.5436 -0.7573
 8575TIP3   OH247215   5.974   4.155  10.492  0.5050  0.6642  0.2125
 8575TIP3    H147216   6.025   4.185  10.567  1.5109 -1.4667  0.4183
 8575TIP3    H247217   5.991   4.061  10.487 -1.2523  0.3931 -1.3888
 8576TIP3   OH247218   2.372   6.804  14.904  0.0070 -0.2779 -0.6969
 8576TIP3    H147219   2.436   6.863  14.945 -0.4457 -0.0570 -0.3077
 8576TIP3    H247220   2.333   6.756  14.977 -0.3595 -0.3326 -0.9280
 8577TIP3   OH247221   4.904   4.212   5.503 -0.2256  0.2744 -0.2873
 8577TIP3    H147222   4.827   4.268   5.492 -0.6560 -0.6715 -2.4190
 8577TIP3    H247223   4.869   4.132   5.543 -0.0488  0.5108  0.3471
 8578TIP3   OH247224   1.243   3.235   0.142 -0.3066 -0.1931  0.1215
 8578TIP3    H147225   1.172   3.252   0.081  0.3365  1.8106 -0.1105
 8578TIP3    H247226   1.315   3.202   0.087 -0.7178 -1.2861  0.2261
 8579TIP3   OH247227   0.885   0.909  14.296 -0.2021 -0.1891 -0.1423
 8579TIP3    H147228   0.951   0.969  14.261  0.4579  0.0433  1.4816
 8579TIP3    H247229   0.811   0.964  14.319 -0.1479 -0.1855  0.0217
 8580TIP3   OH247230   3.237   5.062  11.820  0.6094  0.3858 -0.1611
 8580TIP3    H147231   3.295   5.025  11.754  1.2725  1.7314 -0.3518
 8580TIP3    H247232   3.153   5.018  11.805  1.3596 -1.0219 -0.3612
 8581TIP3   OH247233   5.197   2.578  15.876 -0.4603 -0.0223  0.1526
 8581TIP3    H147234   5.273   2.628  15.905 -0.4777  0.9437 -1.4181
 8581TIP3    H247235   5.150   2.636  15.817 -1.9110 -0.9635  0.3343
 8582TIP3   OH247236   5.399   3.969  16.087  0.2380  0.2015 -0.6988
 8582TIP3    H147237   5.453   3.930  16.018 -0.9298 -1.0729 -0.9272
 8582TIP3    H247238   5.420   3.919  16.166 -0.0242  0.2075 -0.6222
 8583TIP3   OH247239   1.213   2.416   0.408 -0.0012  0.0879  0.1541
 8583TIP3    H147240   1.174   2.502   0.424  0.4886  0.6085 -1.4227
 8583TIP3    H247241   1.232   2.382   0.495 -3.7232 -0.0679  1.0015
 8584TIP3   OH247242   4.729   5.581   1.836 -0.1766  0.4698  0.1682
 8584TIP3    H147243   4.768   5.667   1.821  1.1913  0.1355  1.6365
 8584TIP3    H247244   4.698   5.584   1.927  1.5498 -1.1773  0.8613
 8585TIP3   OH247245   4.899   2.151   2.455 -0.2194 -0.4988  0.1144
 8585TIP3    H147246   4.890   2.075   2.512 -0.0794 -1.9571 -1.7246
 8585TIP3    H247247   4.811   2.164   2.419  0.0951 -0.8171 -0.7976
 8586TIP3   OH247248   1.910   5.483  15.018  0.4862  0.7949 -0.6108
 8586TIP3    H147249   1.923   5.564  15.067 -1.1742 -0.0058  1.2065
 8586TIP3    H247250   1.941   5.414  15.076 -1.6604 -0.1920 -0.5882
 8587TIP3   OH247251   3.206   3.403  11.244  0.0351  0.0368  0.2563
 8587TIP3    H147252   3.127   3.390  11.192 -0.1141  0.0427  0.4821
 8587TIP3    H247253   3.267   3.337  11.212 -0.0375  0.0783  0.0326
 8588TIP3   OH247254   5.207   5.151  13.205  0.0515  0.3384 -0.6292
 8588TIP3    H147255   5.174   5.133  13.118 -0.2826  0.3201 -0.4986
 8588TIP3    H247256   5.134   5.194  13.250 -1.0639 -2.8791  0.8053
 8589TIP3   OH247257   4.937   2.478  17.104  0.0612  0.1590  0.0006
 8589TIP3    H147258   4.964   2.426  17.180 -1.1419 -0.4659  0.0033
 8589TIP3    H247259   4.922   2.413  17.035 -3.1335  0.3043  0.5023
 8590TIP3   OH247260   6.227   2.466  16.888  0.2031  0.5450 -0.1345
 8590TIP3    H147261   6.252   2.453  16.796 -1.9540 -0.0430 -0.6664
 8590TIP3    H247262   6.242   2.380  16.929 -0.1362  0.4258 -0.2594
 8591TIP3   OH247263   1.319   0.152  12.975 -0.1663  0.6080 -0.4335
 8591TIP3    H147264   1.387   0.213  12.946  1.2112 -0.3952  0.6237
 8591TIP3    H247265   1.367   0.072  12.996 -1.5802  0.1556  1.1202
 8592TIP3   OH247266   0.582   2.787   5.206 -0.5280  0.1022  0.1722
 8592TIP3    H147267   0.655   2.744   5.252 -0.2491  0.4418  0.0526
 8592TIP3    H247268   0.504   2.752   5.248 -0.3288 -1.0893 -0.4095
 8593TIP3   OH247269   0.202   6.735  12.753 -0.2222 -0.1205  0.1465
 8593TIP3    H147270   0.206   6.764  12.844  0.5454  0.8437 -0.1905
 8593TIP3    H247271   0.124   6.680  12.749  0.6023 -1.4536  1.7563
 8594TIP3   OH247272   6.539   6.108   2.167  0.5020  0.1910  0.4355
 8594TIP3    H147273   6.501   6.086   2.252 -0.2492 -0.1049  0.0195
 8594TIP3    H247274   6.468   6.148   2.118  0.8486  0.0657 -0.1755
 8595TIP3   OH247275   2.210   1.696   0.014  0.1710 -0.6861  0.5808
 8595TIP3    H147276   2.229   1.746  -0.066  1.0842 -1.0895  0.5432
 8595TIP3    H247277   2.187   1.608  -0.017 -1.6101 -0.2670  0.6351
 8596TIP3   OH247278   4.432   4.343  13.746  0.8473  0.6323  0.3983
 8596TIP3    H147279   4.445   4.278  13.677  2.6420 -0.5312  1.7937
 8596TIP3    H247280   4.355   4.313  13.794 -0.5118  1.5394 -1.1738
 8597TIP3   OH247281   3.596   6.651  11.328  0.2016 -0.3175 -0.0152
 8597TIP3    H147282   3.555   6.577  11.283  0.0731  0.1799 -0.7323
 8597TIP3    H247283   3.540   6.725  11.307  1.3489  0.3290 -0.8295
 8598TIP3   OH247284   1.860   1.039  14.340 -0.4186  0.3681  0.0054
 8598TIP3    H147285   1.953   1.058  14.354 -0.2982  0.3992 -0.8176
 8598TIP3    H247286   1.814   1.094  14.403  0.1575 -0.2871  1.0209
 8599TIP3   OH247287   1.631   0.831  14.777 -0.2283 -0.0663 -0.2372
 8599TIP3    H147288   1.605   0.740  14.782  2.7627 -0.9580  0.2500
 8599TIP3    H247289   1.588   0.865  14.698 -0.2525 -2.2756 -1.1905
 8600TIP3   OH247290   2.049   3.287   4.514  0.0633 -0.4310  0.0625
 8600TIP3    H147291   2.042   3.320   4.424 -1.1847  0.0315  0.3197
 8600TIP3    H247292   2.044   3.192   4.505  0.1502 -0.3923 -0.3866
 8601TIP3   OH247293   3.637   3.708   4.075 -0.5120  0.4297 -0.2469
 8601TIP3    H147294   3.560   3.745   4.119 -1.2593  1.5586 -2.4209
 8601TIP3    H247295   3.630   3.740   3.985  1.8335 -0.5087 -0.7834
 8602TIP3   OH247296   0.875   6.361  15.797 -0.7763 -0.3106 -0.2144
 8602TIP3    H147297   0.846   6.275  15.769 -1.8227  0.1563 -0.5844
 8602TIP3    H247298   0.898   6.350  15.889 -3.1021 -0.4591  0.3694
 8603TIP3   OH247299   4.076   0.600  17.077 -0.3999 -0.1855 -0.1040
 8603TIP3    H147300   3.997   0.616  17.024 -1.4509 -2.2402  0.7850
 8603TIP3    H247301   4.098   0.509  17.061  1.5739  0.2646 -0.0148
 8604TIP3   OH247302   4.719   2.887  13.496 -0.0769  0.4474 -0.1549
 8604TIP3    H147303   4.792   2.908  13.437 -0.1986  2.0918  0.2418
 8604TIP3    H247304   4.761   2.854  13.575  0.1540 -0.3381 -0.6024
 8605TIP3   OH247305   4.092   6.020   0.933 -0.0095  0.3629  0.1454
 8605TIP3    H147306   4.005   6.046   0.962  0.1982  0.7612  0.4149
 8605TIP3    H247307   4.151   6.056   0.999  0.4645  1.1950 -0.7094
 8606TIP3   OH247308   6.750   4.470  12.622  0.2354  0.1686 -0.7415
 8606TIP3    H147309   6.785   4.498  12.707 -0.7023 -0.8027 -0.0107
 8606TIP3    H247310   6.665   4.514  12.615  0.3043  0.2358 -1.1689
 8607TIP3   OH247311   1.640   5.862  13.600 -0.4368 -0.3385 -0.3904
 8607TIP3    H147312   1.556   5.880  13.641 -1.4396 -0.5430 -2.2860
 8607TIP3    H247313   1.620   5.797  13.532  0.7592  1.4887 -2.5538
 8608TIP3   OH247314   6.480   3.164   5.837 -0.0523  0.6392 -0.4095
 8608TIP3    H147315   6.473   3.154   5.932  2.0238 -0.8994 -0.4071
 8608TIP3    H247316   6.530   3.245   5.825  2.5168 -0.8622 -0.1152
 8609TIP3   OH247317   3.068   6.330  14.067 -0.4965  0.0538 -0.6270
 8609TIP3    H147318   3.094   6.324  13.975 -0.5237 -0.0163 -0.6307
 8609TIP3    H247319   3.066   6.424  14.084 -0.3526  0.0633 -0.6573
 8610TIP3   OH247320   5.242   1.346   4.215  0.1772 -0.6404  0.2893
 8610TIP3    H147321   5.321   1.298   4.192  0.7370  0.4969 -0.1755
 8610TIP3    H247322   5.195   1.356   4.132 -0.8103 -1.9390  0.6798
 8611TIP3   OH247323   4.755   2.876  14.621 -0.3328 -0.1062 -0.0104
 8611TIP3    H147324   4.808   2.810  14.576  0.8471  0.6088  0.3102
 8611TIP3    H247325   4.670   2.834  14.634  0.7663 -2.0087  1.2443
 8612TIP3   OH247326   4.517   1.782  17.286  0.1113 -0.0881 -0.5347
 8612TIP3    H147327   4.494   1.875  17.291 -2.5664 -0.6825 -0.9980
 8612TIP3    H247328   4.499   1.748  17.374 -2.9814 -1.0010 -1.4614
 8613TIP3   OH247329   0.782   1.405  16.734  0.0643 -0.1811  0.0463
 8613TIP3    H147330   0.722   1.383  16.807 -0.1854  0.2850 -0.0205
 8613TIP3    H247331   0.861   1.436  16.777 -0.5571  1.3461  0.1097
 8614TIP3   OH247332   2.233   4.285   3.003  0.1896 -0.0557  0.2822
 8614TIP3    H147333   2.293   4.213   2.985  0.7139  0.6820 -1.0014
 8614TIP3    H247334   2.242   4.300   3.098 -2.3808 -3.7992  1.2314
 8615TIP3   OH247335   2.941   0.225   4.513  0.5488  0.2479 -0.1214
 8615TIP3    H147336   2.918   0.135   4.490 -0.3424  0.5469 -0.4255
 8615TIP3    H247337   2.929   0.274   4.432  1.7671  0.5133 -0.1535
 8616TIP3   OH247338   3.006   3.207  12.964 -0.1026 -0.6292  0.1947
 8616TIP3    H147339   3.003   3.200  13.059 -0.3189 -1.4441  0.1310
 8616TIP3    H247340   3.002   3.301  12.946  0.5985 -0.4497  1.0119
 8617TIP3   OH247341   1.639   1.591  14.732 -0.2268  0.3652  0.1671
 8617TIP3    H147342   1.729   1.583  14.763 -0.2680 -0.4917  0.0683
 8617TIP3    H247343   1.617   1.684  14.746 -1.3712 -0.5332  5.8216
 8618TIP3   OH247344   6.731   0.969  16.087  0.0204 -0.3195 -0.1498
 8618TIP3    H147345   6.810   1.017  16.063  0.6201 -1.2637 -0.0485
 8618TIP3    H247346   6.675   0.975  16.010 -0.6943  2.1353  0.4924
 8619TIP3   OH247347   3.915   6.167   0.143 -0.3197  0.3361  0.3372
 8619TIP3    H147348   3.887   6.229   0.210 -2.5143  0.1300 -0.3275
 8619TIP3    H247349   3.853   6.094   0.151 -1.1554  0.6677 -2.4015
 8620TIP3   OH247350   5.113   2.677   1.828 -0.0974  1.1653  0.3515
 8620TIP3    H147351   5.061   2.744   1.785 -1.3139  0.3794  0.5905
 8620TIP3    H247352   5.196   2.676   1.779  0.3317  3.5127  0.9687
 8621TIP3   OH247353   1.921   1.115  15.533 -0.0047 -0.2081 -0.0766
 8621TIP3    H147354   1.872   1.033  15.534  1.0987 -0.8887 -0.9390
 8621TIP3    H247355   1.884   1.166  15.605  0.3217 -2.0795  1.4636
 8622TIP3   OH247356   4.843   1.339  12.219  0.0279 -0.4687 -0.1408
 8622TIP3    H147357   4.890   1.417  12.248  0.8215 -1.8533  2.3780
 8622TIP3    H247358   4.813   1.297  12.299  1.5157 -3.9251 -1.3044
 8623TIP3   OH247359   6.483   1.800   2.076  0.0309  0.0741  0.0750
 8623TIP3    H147360   6.520   1.795   1.987 -0.7140 -0.1448 -0.2326
 8623TIP3    H247361   6.557   1.785   2.134  0.2531 -1.4270 -0.5586
 8624TIP3   OH247362   4.629   1.387   0.960  0.1055 -0.2391  0.7302
 8624TIP3    H147363   4.648   1.408   1.051  0.2020  0.5752  0.5201
 8624TIP3    H247364   4.596   1.468   0.922  1.4611 -0.1726 -0.3441
 8625TIP3   OH247365   1.664   5.905  14.228  0.2867  0.0135  0.3473
 8625TIP3    H147366   1.604   5.838  14.261 -1.0428  0.5108 -1.0319
 8625TIP3    H247367   1.739   5.855  14.195  0.8961 -0.5814  2.5116
 8626TIP3   OH247368   0.096   3.511  14.283 -0.1846 -0.7547 -0.2009
 8626TIP3    H147369   0.165   3.530  14.219  0.3620  1.8340  1.1208
 8626TIP3    H247370   0.014   3.522  14.235  0.2241  1.2121 -0.4606
 8627TIP3   OH247371   1.271   0.034  14.114  0.0811  0.3495 -0.4515
 8627TIP3    H147372   1.202   0.080  14.161  0.6215  0.6614  0.0430
 8627TIP3    H247373   1.319  -0.014  14.181 -0.9222 -1.5641 -1.0491
 8628TIP3   OH247374   1.482   6.625  16.899  0.2064  0.0115  0.5718
 8628TIP3    H147375   1.536   6.612  16.977  1.7180  0.7793 -0.3297
 8628TIP3    H247376   1.535   6.590  16.827 -2.3605 -3.4582  0.2087
 8629TIP3   OH247377   0.517   4.342  14.971  0.4293  0.1779 -0.6786
 8629TIP3    H147378   0.475   4.408  15.026  0.3299 -0.7594  0.3810
 8629TIP3    H247379   0.547   4.275  15.032  0.2238 -0.9310 -1.7734
 8630TIP3   OH247380   1.529   5.304   3.690 -0.2191  0.3568  0.8174
 8630TIP3    H147381   1.559   5.372   3.751 -0.7574  1.0754  0.2854
 8630TIP3    H247382   1.610   5.264   3.658  0.3774  3.5932 -2.0867
 8631TIP3   OH247383   0.120   6.760   1.953 -0.4347 -0.8226 -0.1728
 8631TIP3    H147384   0.131   6.712   1.871 -0.1317 -0.2602 -0.4594
 8631TIP3    H247385   0.058   6.707   2.003 -1.8032 -0.3737 -1.3713
 8632TIP3   OH247386   2.357   5.476   3.077 -0.0117 -0.3514 -0.3802
 8632TIP3    H147387   2.356   5.571   3.091 -3.4080 -0.2686 -0.8998
 8632TIP3    H247388   2.405   5.465   2.994 -1.3087  1.0697 -1.3371
 8633TIP3   OH247389   0.222   3.630   0.720 -0.8340  0.3450  0.0398
 8633TIP3    H147390   0.227   3.555   0.780  0.1813 -0.1663 -0.6919
 8633TIP3    H247391   0.229   3.706   0.778  1.6238 -0.1603  0.4316
 8634TIP3   OH247392   1.395   0.801   3.947  0.2486  0.2350 -0.2498
 8634TIP3    H147393   1.426   0.719   3.910 -1.3147 -1.1797  1.5125
 8634TIP3    H247394   1.323   0.828   3.890  0.4129  0.1172 -0.5134
 8635TIP3   OH247395   2.369   3.167  12.084  0.2641 -0.9770  0.1072
 8635TIP3    H147396   2.393   3.076  12.065  1.3168 -0.3951 -1.3989
 8635TIP3    H247397   2.453   3.212  12.097 -0.1132  0.3839 -1.9857
 8636TIP3   OH247398   5.833   4.915  14.242 -0.2497  0.0602 -0.3696
 8636TIP3    H147399   5.797   4.843  14.295 -2.9773  0.0122 -2.1712
 8636TIP3    H247400   5.866   4.977  14.307 -1.6219 -0.9260  1.3413
 8637TIP3   OH247401   3.017   5.735  17.248  0.7850  0.2227 -0.1019
 8637TIP3    H147402   2.952   5.692  17.304  0.3499 -1.3527 -1.7502
 8637TIP3    H247403   2.969   5.755  17.167  1.5015  2.1012 -0.0736
 8638TIP3   OH247404   3.809   6.258   5.300  0.0171 -0.1377  0.2309
 8638TIP3    H147405   3.751   6.234   5.228 -0.0862  1.7600 -0.3421
 8638TIP3    H247406   3.766   6.333   5.342  1.9550  1.2159 -0.1255
 8639TIP3   OH247407   3.681   4.807  13.701 -0.4529  0.6174  0.1778
 8639TIP3    H147408   3.649   4.862  13.773  1.6669  1.4407  0.5493
 8639TIP3    H247409   3.676   4.864  13.624 -1.1955  0.2807 -0.0218
 8640TIP3   OH247410   3.810   1.589   3.508 -0.3925 -0.3103  0.2144
 8640TIP3    H147411   3.737   1.589   3.571 -0.7249  1.7991 -0.1504
 8640TIP3    H247412   3.799   1.507   3.460 -1.0712 -1.1985  1.8358
 8641TIP3   OH247413   1.721   4.509   3.982  0.0019  0.2827 -0.1218
 8641TIP3    H147414   1.727   4.471   3.895  1.7522  0.0104  0.1100
 8641TIP3    H247415   1.809   4.501   4.019 -0.9290 -0.4167  2.0177
 8642TIP3   OH247416   6.028   1.391   0.674 -0.5804 -0.2535 -0.1604
 8642TIP3    H147417   6.024   1.445   0.753 -0.3675  0.7805 -0.8467
 8642TIP3    H247418   6.049   1.453   0.604  1.2988 -1.4631 -0.7073
 8643TIP3   OH247419   4.086   0.646  13.887 -0.1692 -0.4075  0.3899
 8643TIP3    H147420   4.115   0.557  13.907 -0.4329 -0.4588  0.5506
 8643TIP3    H247421   4.062   0.643  13.795  3.4574  0.4729 -0.6486
 8644TIP3   OH247422   3.837   6.707   0.891  0.3644  0.4211 -0.3012
 8644TIP3    H147423   3.774   6.760   0.843 -0.0591  0.4397  0.2736
 8644TIP3    H247424   3.910   6.767   0.909  0.5642  0.3897 -0.9912
 8645TIP3   OH247425   3.621   0.749  17.189  0.6370  0.0443 -0.3769
 8645TIP3    H147426   3.539   0.745  17.238  0.9133  1.3701  0.2176
 8645TIP3    H247427   3.655   0.659  17.192  0.1844 -0.0961  1.0594
 8646TIP3   OH247428   1.004   6.694   0.833  0.2657 -0.3293  0.1443
 8646TIP3    H147429   1.054   6.649   0.764  0.4655 -0.2794  0.2554
 8646TIP3    H247430   1.007   6.787   0.807 -2.3294 -0.6367 -1.4858
 8647TIP3   OH247431   0.329   1.042   1.040 -0.2873 -0.3896 -0.0036
 8647TIP3    H147432   0.389   1.072   0.972  0.0750  0.7043  0.7769
 8647TIP3    H247433   0.250   1.095   1.027  0.5099  1.2317  1.6474
 8648TIP3   OH247434   2.164   4.218   2.013  0.0838  0.1209  0.3927
 8648TIP3    H147435   2.254   4.187   2.007  0.4319  1.0374  0.7382
 8648TIP3    H247436   2.123   4.188   1.932 -0.2344 -3.1574  1.6747
 8649TIP3   OH247437   1.268   6.652  10.257 -0.2330  0.5367 -0.0325
 8649TIP3    H147438   1.200   6.677  10.320 -1.0982 -0.3875 -0.5906
 8649TIP3    H247439   1.245   6.563  10.232  1.8317 -0.1926  0.6093
 8650TIP3   OH247440   1.847   6.619   3.067  0.3996 -0.0302  0.0658
 8650TIP3    H147441   1.828   6.571   2.986 -0.1030  0.6809 -0.2421
 8650TIP3    H247442   1.768   6.670   3.084  0.6661  0.1536  0.7727
 8651TIP3   OH247443   6.020   3.409  16.108  0.1970 -0.7199 -0.7621
 8651TIP3    H147444   6.086   3.387  16.043  0.3666  0.7688 -1.1162
 8651TIP3    H247445   6.061   3.389  16.192  0.9223 -0.2574 -1.0025
 8652TIP3   OH247446   0.040   1.469   0.813  0.2525  0.2190 -0.2149
 8652TIP3    H147447   0.058   1.516   0.732 -0.2482  1.3807  0.3455
 8652TIP3    H247448  -0.054   1.476   0.826  0.2014 -0.7298  0.0083
 8653TIP3   OH247449   0.687   5.776  16.333  0.4551 -0.0871  0.0861
 8653TIP3    H147450   0.609   5.808  16.288 -0.2752 -0.5913  0.9748
 8653TIP3    H247451   0.661   5.691  16.369  0.7216  0.7132  2.2567
 8654TIP3   OH247452   2.693   1.537   3.234  0.7972  0.1397 -0.0547
 8654TIP3    H147453   2.712   1.466   3.296  2.1249 -0.6785 -1.3750
 8654TIP3    H247454   2.776   1.554   3.190  0.1836  1.6357 -0.6770
 8655TIP3   OH247455   3.171   1.812   5.679 -0.1299 -0.1690  0.3196
 8655TIP3    H147456   3.148   1.903   5.699  1.8630  0.1110  1.4141
 8655TIP3    H247457   3.164   1.767   5.763  2.1752 -0.3040  0.4618
 8656TIP3   OH247458   5.087   4.468  10.592  0.0581  0.0397  0.4271
 8656TIP3    H147459   5.115   4.453  10.682 -0.3518 -0.7796  0.4151
 8656TIP3    H247460   5.117   4.391  10.544  1.8764  1.2998 -0.5043
 8657TIP3   OH247461   2.773   4.416   1.388 -0.8665 -0.1174 -0.2401
 8657TIP3    H147462   2.715   4.348   1.421 -0.0129  0.6620  3.0933
 8657TIP3    H247463   2.717   4.493   1.378 -1.2074 -0.4596 -0.9999
 8658TIP3   OH247464   2.401   4.708   2.821 -0.3305 -0.4508  0.4308
 8658TIP3    H147465   2.423   4.668   2.737  1.0115  0.9475  0.0887
 8658TIP3    H247466   2.484   4.714   2.867 -0.6329  1.2032  0.7917
 8659TIP3   OH247467   2.088   0.416  16.048 -0.5899  0.6585 -0.1507
 8659TIP3    H147468   2.028   0.400  16.121  0.8987  1.8199  1.3827
 8659TIP3    H247469   2.167   0.368  16.071  0.1930  1.7156 -0.5818
 8660TIP3   OH247470   4.443   5.585  17.117  0.0985  0.2262 -0.0105
 8660TIP3    H147471   4.512   5.588  17.050  0.2074  1.5514  0.1373
 8660TIP3    H247472   4.389   5.510  17.092  0.7106  0.1045 -1.0165
 8661TIP3   OH247473   6.348   0.335   2.740  0.0256 -0.1662  0.0972
 8661TIP3    H147474   6.376   0.382   2.819  0.1650 -0.3285  0.1448
 8661TIP3    H247475   6.409   0.364   2.673 -0.6112  0.6192 -0.1562
 8662TIP3   OH247476   1.395   0.302   4.499 -0.4160  0.4601  0.0607
 8662TIP3    H147477   1.324   0.259   4.547 -0.4600  2.5770  1.9862
 8662TIP3    H247478   1.353   0.332   4.418 -1.1923 -0.1647  0.2227
 8663TIP3   OH247479   2.072   4.283   0.605 -0.7455  0.5127 -0.1924
 8663TIP3    H147480   2.078   4.234   0.524 -0.6304  2.4273 -1.3874
 8663TIP3    H247481   1.988   4.257   0.643  0.0074 -1.7171 -0.0040
 8664TIP3   OH247482   4.969   5.451   0.793  0.3194  0.2563 -0.2068
 8664TIP3    H147483   4.950   5.391   0.866  0.2095 -1.2718 -1.4723
 8664TIP3    H247484   4.885   5.462   0.749  0.3323  1.3975  0.0318
 8665TIP3   OH247485   4.173   6.577   2.033 -0.5317  0.1698  0.0416
 8665TIP3    H147486   4.168   6.599   1.940  0.1818  0.6823  0.1127
 8665TIP3    H247487   4.091   6.532   2.052  0.3088 -2.0529 -1.3927
 8666TIP3   OH247488   3.595   1.335  16.695 -0.2419 -0.2977 -0.5002
 8666TIP3    H147489   3.598   1.425  16.661 -0.2192 -0.5722 -1.2394
 8666TIP3    H247490   3.630   1.342  16.784  1.0970  0.2097 -1.0447
 8667TIP3   OH247491   5.577   0.581  12.546  0.9523 -0.0033  0.7646
 8667TIP3    H147492   5.496   0.588  12.495  1.2232  1.0731  0.4637
 8667TIP3    H247493   5.581   0.490  12.573 -0.1394 -0.1601  0.4030
 8668TIP3   OH247494   0.654   3.730   1.190 -0.2003  0.8974 -0.3770
 8668TIP3    H147495   0.698   3.661   1.141  0.1505  1.4082 -0.7791
 8668TIP3    H247496   0.693   3.812   1.158 -1.2859  1.3431 -0.6049
 8669TIP3   OH247497   3.034   1.401  14.648 -0.0034 -0.4220  0.0602
 8669TIP3    H147498   3.030   1.307  14.628 -0.4340 -0.1460 -1.1248
 8669TIP3    H247499   3.027   1.445  14.564 -1.7952  0.7434  0.7811
 8670TIP3   OH247500   4.828   3.961   5.596  0.5985 -0.0946  0.1237
 8670TIP3    H147501   4.900   3.918   5.551  3.1263  1.5302  2.4365
 8670TIP3    H247502   4.830   3.925   5.685 -1.4761 -0.0401  0.2177
 8671TIP3   OH247503   4.695   3.583   6.014  0.1194  0.3804 -0.2708
 8671TIP3    H147504   4.625   3.631   5.970  0.3581 -1.1126 -2.4054
 8671TIP3    H247505   4.650   3.512   6.060 -0.1810  2.2580  2.4074
 8672TIP3   OH247506   0.316   1.865   3.577 -0.1596 -0.1506 -0.0168
 8672TIP3    H147507   0.234   1.888   3.533 -0.1388 -0.5134 -0.2450
 8672TIP3    H247508   0.377   1.933   3.551  0.0101 -0.6788 -1.0114
 8673TIP3   OH247509   1.015   1.701  11.772  0.2346  0.2421 -0.0452
 8673TIP3    H147510   1.004   1.796  11.771 -1.1838  0.0899 -0.5422
 8673TIP3    H247511   1.033   1.678  11.681  3.4138  0.3197  0.5267
 8674TIP3   OH247512   5.037   2.185  12.698  0.2959  0.9692 -0.2762
 8674TIP3    H147513   5.024   2.237  12.777  0.9411  0.3492  0.2424
 8674TIP3    H247514   5.130   2.196  12.678  0.1751  0.9728 -0.8475
 8675TIP3   OH247515   0.519   5.555   1.828 -0.2930  0.5017 -0.1253
 8675TIP3    H147516   0.525   5.465   1.860 -0.0714  0.3664 -0.5521
 8675TIP3    H247517   0.481   5.604   1.901 -1.4322 -0.1434 -0.2874
 8676TIP3   OH247518   2.125   5.720   6.781  0.2461  0.2028  0.0852
 8676TIP3    H147519   2.088   5.800   6.818  1.0920  0.3510  0.6432
 8676TIP3    H247520   2.108   5.726   6.687  1.3918  1.6330 -0.0429
 8677TIP3   OH247521   6.116   3.744  11.841 -0.3668 -0.5316  0.3094
 8677TIP3    H147522   6.162   3.667  11.806  1.8662  0.8493  0.1509
 8677TIP3    H247523   6.183   3.812  11.846 -1.6494  0.5973  3.1295
 8678TIP3   OH247524   1.120   1.815  13.999 -0.1217  0.5810 -0.2796
 8678TIP3    H147525   1.100   1.758  13.925  0.8970  0.5697 -0.5577
 8678TIP3    H247526   1.203   1.858  13.975  1.3697 -1.0141  1.7628
 8679TIP3   OH247527   0.002   2.565   3.533 -0.0439 -0.0998 -0.4899
 8679TIP3    H147528  -0.008   2.625   3.459  0.6034 -1.2030 -1.4921
 8679TIP3    H247529  -0.074   2.507   3.528 -0.0301 -0.1384 -0.2563
 8680TIP3   OH247530   5.376   4.427  10.711  0.1003  0.6646  0.0675
 8680TIP3    H147531   5.395   4.428  10.804  0.8882  1.4055 -0.0962
 8680TIP3    H247532   5.373   4.520  10.686 -0.1084  0.4753 -0.6422
 8681TIP3   OH247533   2.715   0.693  12.681 -0.0428  0.1609  0.4603
 8681TIP3    H147534   2.750   0.621  12.734  0.2230  0.6664  0.9714
 8681TIP3    H247535   2.651   0.651  12.623 -2.0032 -0.0629  2.7345
 8682TIP3   OH247536   3.493   4.256   1.834  1.0608  0.3049 -0.1799
 8682TIP3    H147537   3.468   4.232   1.923  2.0464  1.0132  0.2887
 8682TIP3    H247538   3.586   4.275   1.838  1.1684  0.1166 -1.4150
 8683TIP3   OH247539   0.767   0.158  12.938  0.2576  0.0566 -0.3620
 8683TIP3    H147540   0.861   0.152  12.956  0.2135  2.7002  1.0783
 8683TIP3    H247541   0.754   0.249  12.910 -2.2839  0.5520  2.2006
 8684TIP3   OH247542   6.538   0.151  15.593  0.1744  0.4536  0.2081
 8684TIP3    H147543   6.623   0.150  15.637  0.1895 -1.1082  0.1669
 8684TIP3    H247544   6.536   0.070  15.542 -1.9287 -0.2302  1.3364
 8685TIP3   OH247545   3.535   5.753  12.590  0.0194 -0.3778  0.5654
 8685TIP3    H147546   3.488   5.680  12.629 -0.0286 -1.4384 -1.4150
 8685TIP3    H247547   3.536   5.821  12.658  0.3134 -2.3137  2.5332
 8686TIP3   OH247548   3.237   1.444   2.373 -0.1001  0.5342  0.3002
 8686TIP3    H147549   3.279   1.360   2.388 -1.6106 -0.1539  0.6958
 8686TIP3    H247550   3.290   1.506   2.423  0.6276 -0.2691  0.5403
 8687TIP3   OH247551   4.999   4.216  16.288  0.0979  0.5664 -0.2141
 8687TIP3    H147552   5.056   4.146  16.255 -0.2276 -0.0938  0.6063
 8687TIP3    H247553   4.911   4.179  16.284 -0.0905  0.9821  0.0912
 8688TIP3   OH247554   0.922   0.285   0.295 -0.4840  0.1129 -0.1546
 8688TIP3    H147555   0.928   0.334   0.376 -0.8771  0.0122 -0.0639
 8688TIP3    H247556   0.946   0.348   0.227 -1.5699  0.6008 -0.0968
 8689TIP3   OH247557   2.320   3.511   3.502 -0.0272 -0.0696  0.1083
 8689TIP3    H147558   2.305   3.417   3.489 -0.2190  0.1368 -1.3466
 8689TIP3    H247559   2.408   3.517   3.536 -0.5255 -0.8645  1.5529
 8690TIP3   OH247560   2.654   4.377  13.612  0.1670 -0.1222 -0.4454
 8690TIP3    H147561   2.611   4.452  13.571  0.0394 -0.0409 -0.1656
 8690TIP3    H247562   2.649   4.307  13.547  0.2249  0.0929 -0.6827
 8691TIP3   OH247563   5.354   1.837   5.158 -0.0828 -0.1154  0.0331
 8691TIP3    H147564   5.435   1.886   5.144  0.4173 -0.8917  0.1723
 8691TIP3    H247565   5.296   1.865   5.088  0.9046 -0.8158 -1.0713
 8692TIP3   OH247566   2.058   5.496   3.997  0.8049  0.5519  0.2909
 8692TIP3    H147567   2.006   5.576   3.991 -0.1784 -0.2800 -3.2078
 8692TIP3    H247568   2.004   5.436   4.048 -0.0432  0.9420 -0.1432
 8693TIP3   OH247569   6.573   4.281   3.161 -0.2895 -0.5904  0.1747
 8693TIP3    H147570   6.637   4.215   3.133  0.4059 -0.7616  2.0781
 8693TIP3    H247571   6.505   4.230   3.205  0.0222 -0.0911  1.2465
 8694TIP3   OH247572   3.548   2.540  13.047 -0.6309  0.2149 -0.0514
 8694TIP3    H147573   3.484   2.556  13.116 -0.8483  1.6003 -0.5507
 8694TIP3    H247574   3.497   2.501  12.976 -0.8095  0.7938 -0.2382
 8695TIP3   OH247575   2.680   5.468   4.814 -0.1389  0.1431 -0.2094
 8695TIP3    H147576   2.772   5.493   4.824  0.3702 -0.8193 -2.3548
 8695TIP3    H247577   2.633   5.551   4.803  0.3411  0.6862  1.7403
 8696TIP3   OH247578   3.246   2.061  13.291  0.0726  0.2086  0.3663
 8696TIP3    H147579   3.199   2.091  13.213  0.8405  0.5076  0.0201
 8696TIP3    H247580   3.188   1.995  13.329  0.6748 -1.5655 -1.6925
 8697TIP3   OH247581   2.162   3.568   4.471  1.2605  0.1068  0.5086
 8697TIP3    H147582   2.073   3.567   4.505  0.1365  1.9115 -2.2675
 8697TIP3    H247583   2.158   3.521   4.388  2.4268  1.9699 -0.6454
 8698TIP3   OH247584   0.509   4.730   3.347 -0.2985  0.0372 -0.3946
 8698TIP3    H147585   0.421   4.705   3.318  0.4329 -0.8023 -1.8901
 8698TIP3    H247586   0.494   4.767   3.434 -1.9984 -1.1756 -0.1261
 8699TIP3   OH247587   5.979   1.335   3.125 -0.0219 -0.5140  0.3688
 8699TIP3    H147588   6.043   1.282   3.077 -0.3074 -0.5128 -0.0111
 8699TIP3    H247589   5.987   1.422   3.087  0.6446 -0.2013  1.1813
 8700TIP3   OH247590   0.286   1.903   0.361  0.0807 -0.0515  0.0365
 8700TIP3    H147591   0.260   1.995   0.361 -0.2317 -0.1329 -1.1686
 8700TIP3    H247592   0.382   1.905   0.365  0.1672  0.3742 -1.8107
 8701TIP3   OH247593   2.122   4.767  11.887  0.1444  0.0490 -0.0650
 8701TIP3    H147594   2.088   4.743  11.801 -0.7064 -0.0888  0.2990
 8701TIP3    H247595   2.216   4.774  11.875  0.3971 -3.0380 -0.3079
 8702TIP3   OH247596   0.378   5.026  10.846 -0.2448 -0.2992  0.7919
 8702TIP3    H147597   0.448   4.984  10.898  1.3743  0.5869 -0.6193
 8702TIP3    H247598   0.369   4.970  10.769  1.3849  1.4818 -0.7261
 8703TIP3   OH247599   1.191   2.270   6.856  0.7328 -0.4026 -0.1529
 8703TIP3    H147600   1.278   2.271   6.894  0.6713 -1.4374  0.0124
 8703TIP3    H247601   1.134   2.238   6.925  0.1436  0.7014 -0.1136
 8704TIP3   OH247602   3.923   2.015  13.096  0.6106  0.8087 -0.3647
 8704TIP3    H147603   3.853   1.963  13.136  0.8819  1.8103  1.4717
 8704TIP3    H247604   3.878   2.078  13.041  0.2085 -0.3149 -1.3560
 8705TIP3   OH247605   1.540   6.436   1.429  0.0675  0.1710  0.5042
 8705TIP3    H147606   1.517   6.422   1.337  1.4805  0.1607  0.1408
 8705TIP3    H247607   1.466   6.399   1.477 -0.5989 -0.0085 -0.6222
 8706TIP3   OH247608   1.776   5.762   4.661  0.0702  0.4913 -0.0289
 8706TIP3    H147609   1.778   5.821   4.585  1.8426 -0.9078 -1.1010
 8706TIP3    H247610   1.831   5.688   4.635  0.3006 -0.2332  2.4436
 8707TIP3   OH247611   0.478   5.411   4.266  0.0972  0.5712 -0.2099
 8707TIP3    H147612   0.465   5.331   4.215  0.4846  0.6352 -0.4081
 8707TIP3    H247613   0.547   5.458   4.220  1.5577 -0.0921  1.2114
 8708TIP3   OH247614   3.316   0.327   2.915  0.2710  0.3323 -0.1138
 8708TIP3    H147615   3.236   0.352   2.869  0.2907  1.6481  0.5363
 8708TIP3    H247616   3.322   0.232   2.903 -0.4471  0.4709 -1.6417
 8709TIP3   OH247617   2.421   1.244  15.809 -0.1237 -0.1936 -0.8886
 8709TIP3    H147618   2.425   1.185  15.885 -0.4000  0.8463 -0.0470
 8709TIP3    H247619   2.353   1.206  15.753  0.0096 -0.9212 -0.5646
 8710TIP3   OH247620   6.023   6.348   2.782 -0.0895 -0.1853 -0.3853
 8710TIP3    H147621   5.988   6.417   2.838  0.8760  1.4164 -1.6881
 8710TIP3    H247622   5.946   6.311   2.739 -0.6882 -0.4406  0.8793
 8711TIP3   OH247623   6.135   2.377   0.161 -0.1852  0.2265 -0.0714
 8711TIP3    H147624   6.096   2.325   0.232  0.4722  0.8002  0.7143
 8711TIP3    H247625   6.090   2.461   0.166  0.5753  0.6128  0.3171
 8712TIP3   OH247626   2.124   2.171   2.691 -0.0617 -0.4328 -0.1987
 8712TIP3    H147627   2.066   2.199   2.761 -0.0296  1.2445 -0.8141
 8712TIP3    H247628   2.195   2.235   2.692  0.2087 -0.7028 -1.4251
 8713TIP3   OH247629   5.605   4.640   3.053  0.0908  0.2991 -0.0766
 8713TIP3    H147630   5.670   4.662   3.118  0.6534  0.9098 -0.8413
 8713TIP3    H247631   5.590   4.721   3.004 -1.3796  0.2237  0.2046
 8714TIP3   OH247632   2.304   5.874   0.076 -0.3282  0.5552 -0.3130
 8714TIP3    H147633   2.224   5.834   0.107 -0.0442  0.3193  0.1089
 8714TIP3    H247634   2.370   5.852   0.141 -0.0596  1.2850 -0.3239
 8715TIP3   OH247635   3.583   5.581   4.518  0.0173 -0.4473  0.2976
 8715TIP3    H147636   3.597   5.669   4.482 -2.1657 -0.4473 -0.6624
 8715TIP3    H247637   3.637   5.524   4.464 -1.4651 -0.1447 -1.5974
 8716TIP3   OH247638   3.456   3.133  14.225  0.4342  0.2438  0.7583
 8716TIP3    H147639   3.365   3.120  14.198  0.7419  1.1891 -0.8099
 8716TIP3    H247640   3.463   3.228  14.239  1.1433  0.1536  1.0090
 8717TIP3   OH247641   4.425   5.925   4.239 -0.1489 -0.1993 -0.0638
 8717TIP3    H147642   4.396   5.934   4.149 -2.0432 -1.8109  0.3717
 8717TIP3    H247643   4.422   5.831   4.257  2.5160 -0.1543  0.9470
 8718TIP3   OH247644   2.899   1.657   3.075 -0.2324  0.3623  0.0279
 8718TIP3    H147645   2.884   1.746   3.105 -1.5977  0.2823 -0.3811
 8718TIP3    H247646   2.862   1.655   2.987 -3.5603 -1.5886  1.3947
 8719TIP3   OH247647   5.693   1.518   0.996  0.2190  0.0226 -0.1359
 8719TIP3    H147648   5.701   1.427   0.968  0.3621 -0.0227  0.0541
 8719TIP3    H247649   5.635   1.515   1.072 -0.5377  0.1967 -0.6912
 8720TIP3   OH247650   4.471   1.462  15.680 -0.2259  0.4717  0.4127
 8720TIP3    H147651   4.404   1.402  15.646 -0.3281  0.6409  0.3144
 8720TIP3    H247652   4.523   1.408  15.740 -0.2673  0.2648  0.2628
 8721TIP3   OH247653   1.735   6.742   5.481 -0.1760 -0.4603  0.4379
 8721TIP3    H147654   1.671   6.813   5.492 -1.9552 -1.4064 -3.1226
 8721TIP3    H247655   1.689   6.664   5.511 -0.0025 -0.8775 -0.3877
 8722TIP3   OH247656   5.758   3.837   6.348 -0.1237 -0.1762  0.0098
 8722TIP3    H147657   5.743   3.927   6.375 -0.1221 -0.3320  0.5421
 8722TIP3    H247658   5.766   3.841   6.253 -1.0407  0.2596 -0.0546
 8723TIP3   OH247659   1.910   0.100   3.680  0.5596  0.0435 -0.0980
 8723TIP3    H147660   1.826   0.123   3.721  0.8784  0.4709  0.3219
 8723TIP3    H247661   1.941   0.024   3.729 -0.0674 -0.7504 -0.9137
 8724TIP3   OH247662   2.610   3.067   4.472  0.4142 -0.0536 -0.3489
 8724TIP3    H147663   2.537   3.120   4.504 -1.0763 -2.0092 -0.5089
 8724TIP3    H247664   2.582   3.036   4.386  1.6402 -0.4194 -0.6227
 8725TIP3   OH247665   2.234   1.950  13.126 -0.1929  0.2309  0.1630
 8725TIP3    H147666   2.188   1.871  13.095  1.0840  0.5116 -2.6180
 8725TIP3    H247667   2.324   1.922  13.139 -0.0119  0.9297  0.4261
 8726TIP3   OH247668   3.929   1.416  11.765 -0.2155 -1.1381  0.4743
 8726TIP3    H147669   3.975   1.457  11.838 -2.2426 -2.2034  2.3947
 8726TIP3    H247670   3.925   1.323  11.787 -1.3581 -1.3873 -0.6970
 8727TIP3   OH247671   4.292   5.523  12.908 -0.4518  0.1531 -0.1279
 8727TIP3    H147672   4.279   5.525  13.003 -1.4810  2.2209 -0.2923
 8727TIP3    H247673   4.205   5.533  12.871  0.3403  3.2802 -1.2652
 8728TIP3   OH247674   0.128   3.123  14.508  0.1623 -0.3298 -0.5825
 8728TIP3    H147675   0.051   3.107  14.453  0.2708  0.7576 -1.0564
 8728TIP3    H247676   0.181   3.044  14.498 -0.2945 -0.5588 -1.2462
 8729TIP3   OH247677   2.096   3.595  13.388 -0.4074  0.0596 -0.3097
 8729TIP3    H147678   2.016   3.627  13.346  0.0008  1.6641  0.1177
 8729TIP3    H247679   2.162   3.661  13.369  0.8990 -1.3646 -0.8452
 8730TIP3   OH247680   2.529   4.213  10.951 -0.3515  0.0070  0.0855
 8730TIP3    H147681   2.613   4.170  10.933 -1.1043 -0.7560 -1.6807
 8730TIP3    H247682   2.553   4.300  10.983  1.1244 -0.2094 -0.4025
 8731TIP3   OH247683   6.373   1.139  16.326 -0.3009  0.1749 -0.2191
 8731TIP3    H147684   6.418   1.055  16.315 -0.3393  0.1647 -0.2988
 8731TIP3    H247685   6.407   1.174  16.408  1.5470  1.2310 -1.4137
 8732TIP3   OH247686   6.727   3.711  11.585  0.1273 -0.6452 -0.0002
 8732TIP3    H147687   6.759   3.796  11.615  0.0485 -0.8861  0.7878
 8732TIP3    H247688   6.632   3.716  11.597  0.1064 -0.7853 -0.1046
 8733TIP3   OH247689   1.444   3.428   1.682  0.2710  0.1171  0.6900
 8733TIP3    H147690   1.437   3.469   1.596  0.5226  0.4620  0.8352
 8733TIP3    H247691   1.355   3.432   1.718  0.2106  0.1595  0.5347
 8734TIP3   OH247692   4.760   1.834  12.082 -0.2840  0.0971 -0.7233
 8734TIP3    H147693   4.732   1.751  12.044  0.2309  0.4450 -1.8827
 8734TIP3    H247694   4.679   1.884  12.095 -0.5254 -0.2979 -0.7147
 8735TIP3   OH247695   0.187   0.520   2.357  0.5927  0.3177  1.0799
 8735TIP3    H147696   0.154   0.574   2.285  0.7981 -1.0066 -0.0265
 8735TIP3    H247697   0.148   0.433   2.342  1.8835 -0.3739  1.6772
 8736TIP3   OH247698   0.994   5.033   2.568 -0.1965 -0.0690 -0.4395
 8736TIP3    H147699   0.952   5.119   2.567 -1.1351 -0.5275 -0.9167
 8736TIP3    H247700   0.929   4.975   2.610  0.3036 -0.6049 -0.3971
 8737TIP3   OH247701   6.647   5.234   2.332 -1.2820  0.1344  0.5269
 8737TIP3    H147702   6.664   5.327   2.348 -1.0242  0.0555  0.7134
 8737TIP3    H247703   6.683   5.189   2.409  1.2835 -0.3724 -0.9267
 8738TIP3   OH247704   4.903   0.822   2.969  0.5330  0.4424 -0.0226
 8738TIP3    H147705   4.854   0.844   3.049  0.7354  0.6456  0.0447
 8738TIP3    H247706   4.851   0.753   2.928  1.2623 -0.7786  1.0938
 8739TIP3   OH247707   5.457   3.213  12.710  0.0519 -0.1644 -0.0466
 8739TIP3    H147708   5.482   3.131  12.754 -0.8831 -0.7185 -0.5283
 8739TIP3    H247709   5.532   3.271  12.724  0.7715 -1.1334  0.2223
 8740TIP3   OH247710   0.843   4.934   3.449  0.3289 -0.3650  0.0663
 8740TIP3    H147711   0.841   4.842   3.423 -1.1312 -0.3501  0.0769
 8740TIP3    H247712   0.781   4.977   3.391 -1.0420  0.1267  1.8455
 8741TIP3   OH247713   6.741   1.961  14.714  0.5511  0.2271  0.2831
 8741TIP3    H147714   6.663   2.015  14.706  0.9205  0.9088  1.1197
 8741TIP3    H247715   6.714   1.887  14.767  0.8068  1.1778  1.7808
 8742TIP3   OH247716   2.701   5.694  15.407  0.1940 -0.3937  0.1112
 8742TIP3    H147717   2.723   5.617  15.460 -0.2339 -1.6637 -1.4933
 8742TIP3    H247718   2.783   5.718  15.365  0.7846  1.2958  2.1629
 8743TIP3   OH247719   3.098   0.574   5.348 -0.6041 -0.6600 -0.1462
 8743TIP3    H147720   3.132   0.663   5.346 -0.3050 -0.7901 -1.9498
 8743TIP3    H247721   3.144   0.530   5.276 -0.4112 -2.3825  1.0176
 8744TIP3   OH247722   6.331   5.473  15.613 -0.3781 -0.0503 -0.3330
 8744TIP3    H147723   6.241   5.498  15.595  0.2690  1.7542 -1.1990
 8744TIP3    H247724   6.326   5.416  15.690 -2.1106  1.1060  0.4218
 8745TIP3   OH247725   6.448   5.694  11.530 -0.1272 -0.3040  0.0304
 8745TIP3    H147726   6.447   5.700  11.625  1.5366 -0.4185  0.0691
 8745TIP3    H247727   6.368   5.645  11.508  0.3865 -1.8239  1.4830
 8746TIP3   OH247728   5.312   6.555   5.052  0.1118  0.5132 -0.5773
 8746TIP3    H147729   5.274   6.636   5.017  0.1595  0.2002 -1.3618
 8746TIP3    H247730   5.248   6.525   5.117  0.4769  1.5995  0.2966
 8747TIP3   OH247731   2.876   0.144   0.206 -0.0379  0.5659 -0.0169
 8747TIP3    H147732   2.787   0.169   0.181 -0.1696  0.0071 -0.1234
 8747TIP3    H247733   2.863   0.087   0.283  0.1270 -0.7616 -0.9573
 8748TIP3   OH247734   0.549   5.833  12.523 -0.3218  0.3427  0.8592
 8748TIP3    H147735   0.505   5.750  12.541  0.9021  0.1662  3.2656
 8748TIP3    H247736   0.540   5.883  12.604 -0.1857  2.1836 -0.2311
 8749TIP3   OH247737   4.403   6.248   2.743  0.0863  0.5342 -0.1544
 8749TIP3    H147738   4.440   6.317   2.798 -1.4299  0.4976  0.9719
 8749TIP3    H247739   4.402   6.285   2.655  1.9031  0.8647 -0.0588
 8750TIP3   OH247740   2.102   0.908   2.740  0.2683  0.0627 -0.5824
 8750TIP3    H147741   2.050   0.891   2.662  2.3282  0.3258 -2.0590
 8750TIP3    H247742   2.077   0.996   2.767 -2.0503 -0.8665  0.3545
 8751TIP3   OH247743   2.644   5.947  11.635  0.1182 -0.2820  0.0217
 8751TIP3    H147744   2.729   5.913  11.661  0.6240  2.0503  1.5355
 8751TIP3    H247745   2.664   6.012  11.567 -0.4341  0.3470  0.4553
 8752TIP3   OH247746   0.488   5.462   3.153  0.1066  0.6121  0.2558
 8752TIP3    H147747   0.550   5.446   3.224  0.5288  3.2524  0.5229
 8752TIP3    H247748   0.543   5.470   3.075 -0.2288 -0.6128 -0.1319
 8753TIP3   OH247749   3.670   1.795   0.276 -0.5883 -0.7220 -0.1228
 8753TIP3    H147750   3.580   1.763   0.265 -0.2372 -1.2316 -1.6285
 8753TIP3    H247751   3.667   1.885   0.244 -0.7385 -0.4669  0.5985
 8754TIP3   OH247752   3.980   2.722   3.670 -0.4231  0.1199  0.5706
 8754TIP3    H147753   4.023   2.706   3.755 -1.6295 -0.4865  1.0706
 8754TIP3    H247754   4.051   2.714   3.606  0.1717 -1.1281  1.3604
 8755TIP3   OH247755   6.521   5.181  13.192  0.4624 -0.3195 -0.0161
 8755TIP3    H147756   6.482   5.103  13.153  1.8301 -1.4615  0.8520
 8755TIP3    H247757   6.483   5.186  13.280  0.5222 -0.1186 -0.0006
 8756TIP3   OH247758   6.199   3.328  15.887 -0.1875  0.6451 -0.4045
 8756TIP3    H147759   6.253   3.356  15.813  0.2923  0.9029  0.0406
 8756TIP3    H247760   6.201   3.233  15.883 -0.1997  0.6582 -0.7508
 8757TIP3   OH247761   6.341   1.503   3.553 -0.2277 -0.5243 -0.0225
 8757TIP3    H147762   6.338   1.472   3.644 -0.5018  1.2739  0.5964
 8757TIP3    H247763   6.255   1.482   3.518 -0.5301 -0.1486  0.4943
 8758TIP3   OH247764   3.557   0.736  11.345 -0.2017  0.4229 -0.2445
 8758TIP3    H147765   3.499   0.811  11.334  0.6361  1.2276  0.6547
 8758TIP3    H247766   3.628   0.769  11.401  0.0362 -1.1190  0.3929
 8759TIP3   OH247767   5.027   2.096   0.862  0.0481  0.5753  0.4632
 8759TIP3    H147768   4.978   2.062   0.787 -1.2304 -0.1582  1.6172
 8759TIP3    H247769   4.960   2.136   0.918  1.0399  1.4346  1.0575
 8760TIP3   OH247770   1.013   4.225   4.891 -0.0545  0.4971  0.4939
 8760TIP3    H147771   0.920   4.239   4.879  0.2476  1.3623 -0.8893
 8760TIP3    H247772   1.042   4.182   4.811  0.5021 -0.9751  1.4603
 8761TIP3   OH247773   5.822   3.944  10.812 -0.4985 -0.3283  0.1809
 8761TIP3    H147774   5.876   3.934  10.733 -3.3568  0.7762 -2.0063
 8761TIP3    H247775   5.871   4.005  10.868  1.3564 -0.7730 -0.9188
 8762TIP3   OH247776   5.072   6.476  15.866  0.2336 -0.4544 -0.4437
 8762TIP3    H147777   5.048   6.437  15.782  0.2445 -2.5989  0.5054
 8762TIP3    H247778   5.165   6.455  15.877  0.1817 -0.3792  0.2017
 8763TIP3   OH247779   0.728   0.604  13.617  0.4471 -0.2663 -0.1374
 8763TIP3    H147780   0.731   0.580  13.524  1.7892 -1.3081  0.1559
 8763TIP3    H247781   0.808   0.567  13.654  0.0617  0.3745  1.3909
 8764TIP3   OH247782   5.060   1.984  13.311  0.4780  0.0294 -0.3426
 8764TIP3    H147783   5.151   1.964  13.335 -0.6958 -2.3028  2.3764
 8764TIP3    H247784   5.063   2.075  13.282  3.8510 -0.3001 -1.3101
 8765TIP3   OH247785   4.638   6.088   2.785  0.2813  0.7064 -0.0887
 8765TIP3    H147786   4.648   6.110   2.877  1.0574  1.5691 -0.3799
 8765TIP3    H247787   4.544   6.096   2.768  0.3043  1.7969  0.3063
 8766TIP3   OH247788   3.889   3.341  13.817  0.3733  0.1413 -0.2105
 8766TIP3    H147789   3.893   3.264  13.761 -1.1379 -0.9301  1.1246
 8766TIP3    H247790   3.980   3.354  13.846  0.6237 -1.1640 -0.3965
 8767TIP3   OH247791   3.929   3.619  12.972  0.0984  0.0918 -0.6000
 8767TIP3    H147792   3.915   3.581  12.885 -0.0258  0.0753 -0.5732
 8767TIP3    H247793   3.843   3.654  12.997 -1.0501 -3.7353  1.3751
 8768TIP3   OH247794   4.212   6.355   1.703 -0.7386  0.0617  1.0938
 8768TIP3    H147795   4.214   6.437   1.653 -1.2982 -0.6334 -0.0794
 8768TIP3    H247796   4.304   6.329   1.710 -0.4632  1.3299  2.3824
 8769TIP3   OH247797   3.121   4.828   2.549  0.0835 -0.4525  0.0763
 8769TIP3    H147798   3.068   4.886   2.603 -1.6076 -1.8893  0.0129
 8769TIP3    H247799   3.211   4.842   2.579 -0.5597  0.5058  1.6141
 8770TIP3   OH247800   1.019   1.652  11.278 -0.5109 -0.1021  0.4739
 8770TIP3    H147801   0.939   1.680  11.233 -1.2197 -1.5847  0.7481
 8770TIP3    H247802   1.062   1.592  11.217  0.1944  0.4061  0.4761
 8771TIP3   OH247803   5.566   5.503   3.509 -0.5325 -0.1428 -0.1501
 8771TIP3    H147804   5.551   5.583   3.458  2.0672 -0.6510 -1.7753
 8771TIP3    H247805   5.584   5.436   3.444 -0.1391 -1.4851  1.3171
 8772TIP3   OH247806   6.765   3.935  17.089  0.0864  0.3881 -0.3193
 8772TIP3    H147807   6.848   3.981  17.104  0.2759 -0.2030  0.4905
 8772TIP3    H247808   6.748   3.888  17.171 -0.1540 -0.9213 -1.1038
 8773TIP3   OH247809   1.665   0.128   0.409  0.4926  0.4764  0.3693
 8773TIP3    H147810   1.591   0.185   0.386  0.5628  0.7105  0.7154
 8773TIP3    H247811   1.629   0.065   0.472  0.0665 -0.7728 -1.1125
 8774TIP3   OH247812   0.104   6.373   5.294  0.5877  0.1975  0.0201
 8774TIP3    H147813   0.078   6.283   5.275 -0.5802  0.1789  1.5603
 8774TIP3    H247814   0.050   6.427   5.237 -0.0204 -0.0124  0.3952
 8775TIP3   OH247815   6.543   2.609  16.935  0.1044  0.4580  0.1977
 8775TIP3    H147816   6.529   2.516  16.922 -2.3530  0.9754 -1.1485
 8775TIP3    H247817   6.483   2.632  17.006 -0.4244  1.3066 -0.5193
 8776TIP3   OH247818   6.153   1.989  17.054  0.0451  0.1293 -0.2193
 8776TIP3    H147819   6.198   1.934  17.119  0.4742  0.6402 -0.0820
 8776TIP3    H247820   6.102   1.927  17.002  2.9159 -0.7922 -2.0489
 8777TIP3   OH247821   2.281   6.099   1.210  0.2089  0.7276  0.4160
 8777TIP3    H147822   2.236   6.182   1.198 -1.7157 -0.3662 -0.3125
 8777TIP3    H247823   2.300   6.068   1.121 -1.4799 -0.8184  0.5532
 8778TIP3   OH247824   1.438   6.671   5.777 -0.0748  0.1860  0.2802
 8778TIP3    H147825   1.479   6.601   5.727 -0.0887  0.4103 -0.0491
 8778TIP3    H247826   1.490   6.749   5.756 -0.7875  0.5130 -0.3020
 8779TIP3   OH247827   1.784   0.134  12.274 -0.0476 -0.4143 -0.0483
 8779TIP3    H147828   1.711   0.072  12.281  0.4028 -0.7855  1.5844
 8779TIP3    H247829   1.857   0.090  12.317  0.4249  1.0248  0.6621
 8780TIP3   OH247830   2.566   5.728  14.397 -0.4272 -0.0199  0.3793
 8780TIP3    H147831   2.476   5.696  14.407 -0.4961  0.1849  0.4210
 8780TIP3    H247832   2.586   5.712  14.305 -0.2195 -0.8003  0.5543
 8781TIP3   OH247833   3.912   3.456  11.465  0.1191 -0.1080  0.4535
 8781TIP3    H147834   3.930   3.387  11.529 -0.4809 -0.0918  0.6435
 8781TIP3    H247835   3.851   3.515  11.510 -0.3998 -0.1613 -0.1793
 8782TIP3   OH247836   1.004   6.067  14.921 -0.0307  0.5855 -0.1497
 8782TIP3    H147837   0.931   6.115  14.960 -0.4781 -1.3445  1.4593
 8782TIP3    H247838   1.063   6.136  14.889 -1.8242  2.1783 -0.1395
 8783TIP3   OH247839   2.180   5.325   6.279 -0.4011 -0.0064  0.2561
 8783TIP3    H147840   2.173   5.307   6.185 -0.7140 -2.7239  0.7364
 8783TIP3    H247841   2.273   5.310   6.299 -0.2025  1.2175  0.2710
 8784TIP3   OH247842   5.406   0.364  11.938  0.6450  0.0807 -0.2358
 8784TIP3    H147843   5.331   0.341  11.884 -0.8178  0.5746  1.5088
 8784TIP3    H247844   5.456   0.427  11.886 -0.6916  0.4790 -1.0323
 8785TIP3   OH247845   3.909   0.102  14.426  0.0287  0.0450 -0.3351
 8785TIP3    H147846   3.859   0.178  14.397  0.2018 -0.1989 -1.3084
 8785TIP3    H247847   3.992   0.138  14.456 -0.1440  0.3054 -0.1721
 8786TIP3   OH247848   0.134   5.949  14.516 -0.2692  0.1145 -0.3133
 8786TIP3    H147849   0.220   5.984  14.538 -0.7013  0.6373  0.5585
 8786TIP3    H247850   0.083   6.025  14.489 -0.6178 -0.1164 -0.3108
 8787TIP3   OH247851   1.431   1.774  14.467  0.3716  0.6806 -0.2387
 8787TIP3    H147852   1.472   1.758  14.383  0.0644  1.2975 -0.5104
 8787TIP3    H247853   1.358   1.834  14.448 -0.6786 -0.4148  0.2178
 8788TIP3   OH247854   6.047   6.317   5.025  0.0206 -0.4626 -0.2695
 8788TIP3    H147855   6.090   6.290   4.944  0.6514 -0.8654  0.2018
 8788TIP3    H247856   6.108   6.378   5.066 -0.0448 -0.7180  0.2015
 8789TIP3   OH247857   2.947   6.771   1.778 -0.1565 -0.0755  0.3775
 8789TIP3    H147858   3.041   6.754   1.780 -0.4867 -2.2473 -1.0165
 8789TIP3    H247859   2.927   6.783   1.685 -1.2206  0.6928  0.6975
 8790TIP3   OH247860   1.604   2.707  11.946 -0.0694 -0.3280  0.2489
 8790TIP3    H147861   1.522   2.659  11.956  0.6679 -1.6536  0.0727
 8790TIP3    H247862   1.589   2.767  11.873 -1.6870  1.2056  1.7958
 8791TIP3   OH247863   1.706   3.088   3.161 -0.3786  0.1277  0.2758
 8791TIP3    H147864   1.784   3.111   3.212  2.7103 -2.2998 -3.1392
 8791TIP3    H247865   1.672   3.010   3.204  0.1413  0.1068  0.6614
 8792TIP3   OH247866   2.245   5.687   3.537  0.5232  0.3621  0.1764
 8792TIP3    H147867   2.196   5.710   3.459 -0.9058  0.4856  1.1007
 8792TIP3    H247868   2.253   5.591   3.533  1.2077  0.4400 -0.5457
 8793TIP3   OH247869   2.459   3.315  13.361  0.3597  0.0829  0.2805
 8793TIP3    H147870   2.447   3.389  13.420  0.1950 -0.3895  0.8509
 8793TIP3    H247871   2.370   3.295  13.330  0.4597  0.4022 -0.2201
 8794TIP3   OH247872   1.271   1.822  17.290  0.0238 -0.2280  0.2608
 8794TIP3    H147873   1.214   1.830  17.366  2.5621  1.8214  2.0733
 8794TIP3    H247874   1.285   1.728  17.279 -0.2511 -0.5379  2.4404
 8795TIP3   OH247875   5.215   5.571  17.240  0.6131  0.8894 -0.8745
 8795TIP3    H147876   5.174   5.619  17.168 -0.0781 -0.2791 -1.2735
 8795TIP3    H247877   5.170   5.487  17.241 -0.3250  1.3789  1.8332
 8796TIP3   OH247878   1.072   0.903  14.574  0.5730  0.7085  0.4862
 8796TIP3    H147879   1.063   0.858  14.491  0.9467  2.1734 -0.3761
 8796TIP3    H247880   1.124   0.981  14.553 -0.2928  1.6754  1.8765
 8797TIP3   OH247881   2.265   3.151   0.441  0.0845  0.3445 -0.4822
 8797TIP3    H147882   2.214   3.184   0.368  1.3797  2.2016 -0.5796
 8797TIP3    H247883   2.348   3.198   0.435  0.3945  0.1486  1.8855
 8798TIP3   OH247884   1.229   5.552   4.887  0.0019 -0.2159 -0.3740
 8798TIP3    H147885   1.313   5.582   4.852  0.4482 -1.1858 -0.1454
 8798TIP3    H247886   1.186   5.511   4.812 -0.7410  1.2454 -0.7652
 8799TIP3   OH247887   6.094   1.470   6.218  0.0866  0.0860 -0.1896
 8799TIP3    H147888   6.029   1.524   6.263  0.6994  2.0625 -1.6157
 8799TIP3    H247889   6.158   1.447   6.285 -0.3730  0.8340  0.5133
 8800TIP3   OH247890   1.145   0.190   4.595 -0.8475 -0.0045  0.0441
 8800TIP3    H147891   1.056   0.195   4.631 -0.7166 -0.1883  0.3951
 8800TIP3    H247892   1.163   0.096   4.588 -0.8509  0.0302 -0.4527
 8801TIP3   OH247893   6.537   6.762   5.146 -0.5136  0.2090 -0.1467
 8801TIP3    H147894   6.630   6.782   5.159 -0.0343 -2.2846  0.3967
 8801TIP3    H247895   6.533   6.721   5.060 -1.2223  0.8714 -0.4367
 8802TIP3   OH247896   2.549   1.364  16.746 -0.4587  0.6773  0.5804
 8802TIP3    H147897   2.639   1.375  16.775 -0.4599  0.6391  0.5985
 8802TIP3    H247898   2.543   1.272  16.718 -1.0981  0.0328  2.7157
 8803TIP3   OH247899   1.108   0.898  11.876 -0.1148 -0.3759 -0.2506
 8803TIP3    H147900   1.105   0.847  11.957  0.4109  0.0752  0.0546
 8803TIP3    H247901   1.046   0.853  11.817  1.0066 -1.9096 -0.3086
 8804TIP3   OH247902   5.508   6.203   4.489 -0.4255  0.3653 -0.3432
 8804TIP3    H147903   5.431   6.192   4.545  0.1274 -0.3212  0.2989
 8804TIP3    H247904   5.480   6.170   4.404 -1.0284  0.6744 -0.2700
 8805TIP3   OH247905   0.963   1.103  15.631 -0.0514  0.4276  0.8763
 8805TIP3    H147906   0.939   1.133  15.719 -0.1549  0.6990  0.7558
 8805TIP3    H247907   0.890   1.130  15.576 -0.0953  0.0487  0.7466
 8806TIP3   OH247908   6.291   5.175   0.071 -0.7327 -0.2659 -0.0687
 8806TIP3    H147909   6.264   5.245   0.131 -0.8166  0.2258 -0.6699
 8806TIP3    H247910   6.213   5.122   0.059 -0.7608 -0.2692  0.1345
 8807TIP3   OH247911   2.280   1.810   5.617 -0.1660 -0.1868  0.5200
 8807TIP3    H147912   2.347   1.877   5.607 -1.4469  1.0802  0.3060
 8807TIP3    H247913   2.237   1.830   5.700 -0.3198 -0.9585  0.6332
 8808TIP3   OH247914   5.832   3.493  15.038 -0.5312  0.3332 -0.1265
 8808TIP3    H147915   5.828   3.585  15.064 -0.2271  1.0118 -2.3765
 8808TIP3    H247916   5.814   3.445  15.119 -2.1953  2.3772  0.7724
 8809TIP3   OH247917   3.306   3.994  12.436  0.0742 -0.0592  0.1140
 8809TIP3    H147918   3.310   3.937  12.359  0.0580 -0.9843  0.7772
 8809TIP3    H247919   3.246   4.064  12.411  0.4589 -0.0825 -0.8876
 8810TIP3   OH247920   2.766   5.012  14.693 -0.1292 -0.5876 -0.3599
 8810TIP3    H147921   2.740   4.921  14.679  0.3739 -0.7552 -0.2120
 8810TIP3    H247922   2.689   5.053  14.733 -0.8934 -0.5700 -1.7955
 8811TIP3   OH247923   5.364   2.058   0.602 -0.5399  0.0985 -0.5075
 8811TIP3    H147924   5.330   2.001   0.533 -0.7621  0.9893 -1.1362
 8811TIP3    H247925   5.417   2.000   0.657  0.9900 -0.2990 -2.3480
 8812TIP3   OH247926   5.343   1.512   0.570  0.0323  0.0222 -0.3079
 8812TIP3    H147927   5.297   1.495   0.653  0.0647 -1.2531 -0.5300
 8812TIP3    H247928   5.391   1.593   0.585  2.6677 -1.8825  2.0833
 8813TIP3   OH247929   3.046   5.253  11.585 -0.0260 -0.5490 -0.5803
 8813TIP3    H147930   3.027   5.196  11.510  0.8710 -0.6815 -0.7140
 8813TIP3    H247931   3.067   5.338  11.545  0.9800 -0.7600 -0.5171
 8814TIP3   OH247932   0.528   2.304  17.281 -0.5328 -0.1395 -0.1909
 8814TIP3    H147933   0.536   2.266  17.194  1.6672  0.3509 -0.2249
 8814TIP3    H247934   0.579   2.246  17.337  0.3463  1.0606  0.2720
 8815TIP3   OH247935   5.676   5.245  16.417 -0.2432 -0.2956 -0.2691
 8815TIP3    H147936   5.768   5.266  16.402 -0.1763  0.1625  0.7744
 8815TIP3    H247937   5.669   5.151  16.399  0.2415 -0.1646 -1.1966
 8816TIP3   OH247938   4.571   4.864   1.496  0.0492  0.5478  0.1574
 8816TIP3    H147939   4.560   4.785   1.549  1.2030  0.8819  0.9070
 8816TIP3    H247940   4.642   4.841   1.435 -0.3435  0.6433 -0.3437
 8817TIP3   OH247941   1.521   1.381   3.753  0.4451 -0.3937 -0.0724
 8817TIP3    H147942   1.524   1.301   3.701 -0.3401 -0.0429 -0.6594
 8817TIP3    H247943   1.547   1.451   3.692 -2.2453  0.2685 -0.5023
 8818TIP3   OH247944   0.153   1.481   6.654  0.5084  0.2334  0.2666
 8818TIP3    H147945   0.201   1.414   6.703 -1.5406 -0.4779  1.3342
 8818TIP3    H247946   0.065   1.447   6.645 -0.1957  2.1446 -0.4899
 8819TIP3   OH247947   4.754   0.062   2.333  0.2762 -0.6258 -0.9164
 8819TIP3    H147948   4.844   0.033   2.351 -0.1021 -1.7322 -0.7438
 8819TIP3    H247949   4.713  -0.013   2.290 -0.6076 -0.1793 -0.8698
 8820TIP3   OH247950   4.699   1.812   1.072  0.1283 -0.3209  0.0659
 8820TIP3    H147951   4.614   1.771   1.086  1.1524 -2.1477  1.1158
 8820TIP3    H247952   4.719   1.797   0.979 -0.2719 -0.6982  0.0434
 8821TIP3   OH247953   1.894   6.740  12.996  0.3263 -0.6018  0.4424
 8821TIP3    H147954   1.960   6.718  13.063  0.4106 -0.3025  0.4606
 8821TIP3    H247955   1.940   6.728  12.913  0.4892 -0.1376  0.4601
 8822TIP3   OH247956   3.412   0.073  15.313 -0.5925  0.6294  0.0776
 8822TIP3    H147957   3.421   0.047  15.404  3.4421  2.2222  0.2029
 8822TIP3    H247958   3.391  -0.008  15.267 -0.3895 -0.6060  2.0988
 8823TIP3   OH247959   1.915   4.025   2.572  0.3393 -0.1121  0.7929
 8823TIP3    H147960   1.848   4.047   2.636 -2.3051  0.9770 -2.2020
 8823TIP3    H247961   1.890   3.938   2.540  1.1584 -0.2932  0.6329
 8824TIP3   OH247962   4.522   5.886   0.482 -0.2498  0.7312  0.5876
 8824TIP3    H147963   4.578   5.811   0.500 -2.0283 -0.9113 -0.4364
 8824TIP3    H247964   4.438   5.863   0.522 -1.6224  0.9204 -2.0709
 8825TIP3   OH247965   4.401   4.565   4.501  0.1937 -0.2256 -0.4033
 8825TIP3    H147966   4.395   4.656   4.473 -1.6841  0.1635  1.1209
 8825TIP3    H247967   4.324   4.523   4.463  0.9134 -1.1204 -0.8822
 8826TIP3   OH247968   3.738   6.127  14.049 -0.1027 -0.0875  0.3805
 8826TIP3    H147969   3.827   6.158  14.031  0.1286 -0.5538  0.7326
 8826TIP3    H247970   3.687   6.208  14.059  0.4359  0.1821  0.9486
 8827TIP3   OH247971   2.291   3.048  15.585  0.0144  0.1573 -0.2783
 8827TIP3    H147972   2.321   3.036  15.495  2.0326  2.6849  0.0345
 8827TIP3    H247973   2.219   3.110  15.579 -1.1669 -1.1754 -0.3243
 8828TIP3   OH247974   4.982   4.872   1.589  0.3220 -0.8944  0.3656
 8828TIP3    H147975   4.989   4.885   1.683 -0.0400 -1.6799  0.5050
 8828TIP3    H247976   5.065   4.832   1.563  0.3788 -0.7762  0.3635
 8829TIP3   OH247977   4.694   3.324   3.162 -0.1064  0.4585  0.1926
 8829TIP3    H147978   4.679   3.348   3.254 -0.9574  0.3354  0.0930
 8829TIP3    H247979   4.788   3.310   3.156 -0.3307 -1.8959  1.6163
 8830TIP3   OH247980   3.160   2.644  12.876 -0.3031  0.3341 -0.0811
 8830TIP3    H147981   3.188   2.729  12.912 -1.1918 -0.0855  1.6548
 8830TIP3    H247982   3.185   2.648  12.784  1.3489  1.7586  0.3926
 8831TIP3   OH247983   4.955   5.168  15.072 -0.1394 -0.0909  0.0980
 8831TIP3    H147984   4.999   5.132  15.150 -1.0105 -0.3258  0.4915
 8831TIP3    H247985   4.998   5.252  15.057  1.0387 -0.7189 -0.0477
 8832TIP3   OH247986   1.800   3.359  14.550 -0.3428 -0.2721  0.4816
 8832TIP3    H147987   1.738   3.289  14.527  0.1504 -0.6323  0.2441
 8832TIP3    H247988   1.802   3.359  14.646  0.2545 -1.1175  0.4732
 8833TIP3   OH247989   1.893   6.557  11.657  0.3661  0.3753  0.2001
 8833TIP3    H147990   1.871   6.545  11.564  0.1770 -0.5674  0.3713
 8833TIP3    H247991   1.954   6.487  11.676 -1.0966 -0.6098  1.3103
 8834TIP3   OH247992   4.790   3.020   6.115  0.3048  0.8415  0.1695
 8834TIP3    H147993   4.821   2.964   6.186  1.2719  0.4745 -0.5326
 8834TIP3    H247994   4.760   2.959   6.047 -3.2943  1.1711  1.3738
 8835TIP3   OH247995   3.826   0.911  13.026 -0.2752 -0.8171  0.0223
 8835TIP3    H147996   3.899   0.863  13.066 -0.0864  0.4677  1.2469
 8835TIP3    H247997   3.748   0.874  13.068 -0.2984 -1.7187 -0.7965
 8836TIP3   OH247998   5.666   1.421  10.242  0.3026  0.6281 -0.2176
 8836TIP3    H147999   5.684   1.413  10.335  0.1682  0.4853 -0.2025
 8836TIP3    H248000   5.572   1.439  10.237  0.3720  0.9726 -0.3092
 8837TIP3   OH248001   2.297   6.329   6.837  0.2743 -0.1454 -0.0237
 8837TIP3    H148002   2.231   6.334   6.768  1.4559  0.5463 -1.1159
 8837TIP3    H248003   2.369   6.279   6.798  0.5072 -0.6702  1.0669
 8838TIP3   OH248004   2.575   2.600   5.020 -1.3395  0.2527  0.5206
 8838TIP3    H148005   2.649   2.603   4.959 -1.7553  0.5173  0.0202
 8838TIP3    H248006   2.553   2.692   5.036 -1.7292  0.1733  0.4520
 8839TIP3   OH248007   2.683   5.542  13.205 -0.1784  0.0012 -0.1988
 8839TIP3    H148008   2.671   5.604  13.277  0.2583  1.1228 -1.0687
 8839TIP3    H248009   2.690   5.457  13.248 -2.2056  0.3533  0.9262
 8840TIP3   OH248010   6.306   0.533   4.043  0.2261 -0.6513  0.6665
 8840TIP3    H148011   6.333   0.624   4.059 -2.2660  0.0020  1.2714
 8840TIP3    H248012   6.257   0.537   3.961  0.2963 -1.5063  0.5843
 8841TIP3   OH248013   5.477   5.000   0.142 -0.2999  0.5075  0.0848
 8841TIP3    H148014   5.485   5.069   0.207 -0.2745  0.7517 -0.1780
 8841TIP3    H248015   5.383   4.995   0.123 -0.2892  0.5399  0.0259
 8842TIP3   OH248016   4.248   2.270  17.106  0.0126  0.2073  0.1192
 8842TIP3    H148017   4.241   2.328  17.182  0.6226 -1.1377  1.2279
 8842TIP3    H248018   4.169   2.216  17.110 -0.5018  0.8877 -0.8466
 8843TIP3   OH248019   6.153   0.949  11.791  0.3519  0.4848  0.0720
 8843TIP3    H148020   6.208   0.885  11.746 -0.1510  0.9340 -1.2096
 8843TIP3    H248021   6.144   0.916  11.880  1.8403 -0.1317  0.0064
 8844TIP3   OH248022   0.160   0.476   4.249  0.3281 -0.6684  0.4598
 8844TIP3    H148023   0.182   0.432   4.167 -0.1940  2.4893 -1.4351
 8844TIP3    H248024   0.066   0.462   4.260  0.4714 -1.4240  0.7246
 8845TIP3   OH248025   1.836   2.535  15.021  0.0604 -0.3569  0.2127
 8845TIP3    H148026   1.873   2.543  15.109  1.5599 -0.6199 -0.3802
 8845TIP3    H248027   1.762   2.476  15.031 -0.5524  0.6056  1.5242
 8846TIP3   OH248028   6.576   3.277   3.881 -0.4602 -0.7565 -0.2810
 8846TIP3    H148029   6.584   3.218   3.957  0.0535 -0.1748  0.1251
 8846TIP3    H248030   6.602   3.223   3.806 -1.2456 -1.4179 -0.0846
 8847TIP3   OH248031   5.470   4.394   5.342  0.7258 -0.0204 -0.2761
 8847TIP3    H148032   5.529   4.363   5.411  0.3918  0.7405  0.3548
 8847TIP3    H248033   5.528   4.436   5.279  0.7860  1.4972  0.7678
 8848TIP3   OH248034   1.269   3.664   1.275  0.0840 -0.2510  0.5536
 8848TIP3    H148035   1.204   3.646   1.343  0.0050 -0.6031  0.3840
 8848TIP3    H248036   1.229   3.731   1.220  0.4631  0.6029  1.3054
 8849TIP3   OH248037   0.234   3.952  13.531  0.3891  0.1434  0.5583
 8849TIP3    H148038   0.293   3.893  13.579  1.6637  0.6937 -0.3061
 8849TIP3    H248039   0.288   3.988  13.461 -0.2774  2.5888  1.2644
 8850TIP3   OH248040   6.209   1.614  14.002  0.6356  0.2515 -0.1233
 8850TIP3    H148041   6.175   1.597  14.090 -1.1078  0.9279 -0.6405
 8850TIP3    H248042   6.285   1.556  13.994 -0.1225 -0.9787  1.2521
 8851TIP3   OH248043   6.719   2.286  14.413 -0.2092  0.0914  0.5292
 8851TIP3    H148044   6.752   2.356  14.358  0.9448  0.3710  1.5692
 8851TIP3    H248045   6.661   2.235  14.355  0.1665  0.9831 -0.6390
 8852TIP3   OH248046   3.887   2.862   1.729  0.5178 -0.5032  0.1443
 8852TIP3    H148047   3.819   2.927   1.711  0.7092 -0.1612  0.6200
 8852TIP3    H248048   3.887   2.805   1.653  1.7622  1.2837 -1.2142
 8853TIP3   OH248049   6.237   1.734  13.748 -0.1668 -0.9322  0.9401
 8853TIP3    H148050   6.307   1.798  13.757 -0.5909 -0.4941  1.1420
 8853TIP3    H248051   6.241   1.682  13.828  0.9190 -1.9099  0.2697
 8854TIP3   OH248052   1.662   6.190  11.323 -0.0391  0.1038 -0.0565
 8854TIP3    H148053   1.637   6.140  11.245  1.6528 -1.7969  0.5783
 8854TIP3    H248054   1.715   6.262  11.289  0.3945 -0.5120 -0.7060
 8855TIP3   OH248055   3.900   2.092   1.893  0.5616 -0.3306  0.2898
 8855TIP3    H148056   3.875   2.087   1.985  0.7619  0.7480  0.4016
 8855TIP3    H248057   3.930   2.003   1.872 -2.6793 -1.5227  0.3228
 8856TIP3   OH248058   6.596   4.199  14.937  0.1477 -0.9284  0.4688
 8856TIP3    H148059   6.663   4.241  14.883  0.8721  0.5092  2.4168
 8856TIP3    H248060   6.521   4.190  14.879  0.3811  2.0128 -0.3662
 8857TIP3   OH248061   3.209   5.509  12.200 -0.4185 -0.3315  0.4408
 8857TIP3    H148062   3.124   5.473  12.226 -0.3063 -1.6335 -0.9363
 8857TIP3    H248063   3.273   5.447  12.237 -0.1645 -0.6977 -0.6068
 8858TIP3   OH248064   4.883   6.400  13.615  0.8882 -0.4902  0.5077
 8858TIP3    H148065   4.973   6.391  13.644  0.6419 -0.1990  1.3859
 8858TIP3    H248066   4.830   6.381  13.693  0.1897 -0.9272 -0.0660
 8859TIP3   OH248067   1.238   0.506   4.846 -0.1151  0.1411 -0.3270
 8859TIP3    H148068   1.269   0.554   4.769  1.5786 -0.5145 -0.0609
 8859TIP3    H248069   1.203   0.573   4.904  1.1143  0.9263 -0.4842
 8860TIP3   OH248070   6.523   1.165   5.755 -0.2772  0.2125  0.1229
 8860TIP3    H148071   6.441   1.126   5.786 -0.0736 -1.9765 -1.9905
 8860TIP3    H248072   6.521   1.254   5.789 -2.5579 -0.4540  1.8536
 8861TIP3   OH248073   3.342   5.750   1.866  0.4296 -0.3794 -0.3248
 8861TIP3    H148074   3.262   5.760   1.814 -0.2247  0.2111  0.7803
 8861TIP3    H248075   3.412   5.778   1.807 -0.0953 -1.5385 -1.5298
 8862TIP3   OH248076   5.814   6.075  13.395  0.1434  0.2920  0.2726
 8862TIP3    H148077   5.801   5.983  13.417  1.0227 -0.5726 -2.5863
 8862TIP3    H248078   5.770   6.123  13.466 -0.0283 -2.2849  1.9941
 8863TIP3   OH248079   2.861   3.446   5.378 -0.0324 -0.2506 -0.0111
 8863TIP3    H148080   2.891   3.411   5.294  1.7995  1.6390 -0.1730
 8863TIP3    H248081   2.794   3.510   5.355 -1.7525 -1.9364  0.1682
 8864TIP3   OH248082   4.738   3.813  13.904  0.5044  0.7113 -0.3288
 8864TIP3    H148083   4.739   3.873  13.979 -3.8551  1.5728 -0.8150
 8864TIP3    H248084   4.770   3.730  13.939 -0.6235  1.3445  2.3233
 8865TIP3   OH248085   5.800   1.841   1.556  0.5442  0.5072  0.1313
 8865TIP3    H148086   5.736   1.800   1.615  1.1764  2.7782  2.5042
 8865TIP3    H248087   5.885   1.823   1.597  1.1847  0.1633 -1.3308
 8866TIP3   OH248088   6.302   2.468  11.788 -0.5797 -0.3787  0.1735
 8866TIP3    H148089   6.207   2.476  11.777 -0.8290 -3.1307 -0.0144
 8866TIP3    H248090   6.317   2.479  11.882 -1.1951 -0.7781  0.3187
 8867TIP3   OH248091   4.342   0.504   1.858 -0.2526  0.4262 -0.0134
 8867TIP3    H148092   4.263   0.518   1.910 -0.9361  0.7903 -1.1317
 8867TIP3    H248093   4.392   0.438   1.907 -1.1190  0.3893  0.8307
 8868TIP3   OH248094   3.583   2.118  10.849 -0.3963  0.1419  0.1293
 8868TIP3    H148095   3.531   2.195  10.825  1.3152  0.4889 -2.6688
 8868TIP3    H248096   3.665   2.129  10.801  0.8337 -2.2297  1.6111
 8869TIP3   OH248097   3.511   3.526   1.897 -0.1840 -0.2419 -0.2126
 8869TIP3    H148098   3.583   3.567   1.849  0.3817 -1.0527 -0.0543
 8869TIP3    H248099   3.546   3.513   1.986 -0.1496 -1.6131 -0.4189
 8870TIP3   OH248100   3.194   2.080   4.496  0.2029  0.2420  0.1073
 8870TIP3    H148101   3.249   2.007   4.525  0.5576 -0.1525 -1.5443
 8870TIP3    H248102   3.252   2.136   4.445 -1.2232 -0.9090 -2.8547
 8871TIP3   OH248103   6.408   5.471  14.557 -0.2863 -0.4363  0.8855
 8871TIP3    H148104   6.326   5.517  14.537  0.5238  0.7509  0.1562
 8871TIP3    H248105   6.432   5.502  14.644  0.6196  1.1209  0.1108
 8872TIP3   OH248106   0.064   4.979   5.799 -0.5032 -0.8109  0.8194
 8872TIP3    H148107   0.072   4.955   5.707 -1.2538 -1.1788  0.8439
 8872TIP3    H248108   0.002   4.915   5.835 -0.4814 -0.4582  1.4979
 8873TIP3   OH248109   4.500   6.438   4.018  0.2281 -0.0531 -0.2904
 8873TIP3    H148110   4.483   6.422   4.111 -0.6492 -0.2571 -0.4753
 8873TIP3    H248111   4.458   6.365   3.973  1.2197 -0.3098 -0.8114
 8874TIP3   OH248112   2.848   3.429  15.120  0.2079  0.4633  0.0199
 8874TIP3    H148113   2.786   3.411  15.049 -2.3719  3.0950  1.5013
 8874TIP3    H248114   2.805   3.396  15.199  1.1716  1.3365  0.9284
 8875TIP3   OH248115   1.823   4.136   5.134  0.0173 -0.0602  0.2618
 8875TIP3    H148116   1.918   4.141   5.126 -0.0001 -1.2819 -0.9602
 8875TIP3    H248117   1.790   4.206   5.078  0.1438 -1.9427 -2.2448
 8876TIP3   OH248118   2.361   1.890  11.702 -0.2500  0.2033  0.0585
 8876TIP3    H148119   2.272   1.860  11.723 -0.2854 -0.2416 -0.6945
 8876TIP3    H248120   2.405   1.811  11.670  1.1643 -0.1243  2.6826
 8877TIP3   OH248121   5.024   1.999  16.188 -0.6064 -0.9172 -0.1476
 8877TIP3    H148122   4.991   1.917  16.151 -0.3185 -0.3605 -1.6701
 8877TIP3    H248123   4.959   2.024  16.253 -1.4993 -1.5619 -0.7788
 8878TIP3   OH248124   0.482   2.465  11.965  0.5142 -0.2673 -0.6667
 8878TIP3    H148125   0.391   2.436  11.966  0.3236  0.3021  1.3521
 8878TIP3    H248126   0.530   2.394  12.008  0.6321  0.5609  0.6014
 8879TIP3   OH248127   1.991   3.504  11.589  0.2126  0.0162 -0.2511
 8879TIP3    H148128   2.079   3.511  11.552  0.2895  1.3573  0.1605
 8879TIP3    H248129   1.956   3.423  11.552  0.5270  0.9819 -2.7579
 8880TIP3   OH248130   3.461   4.902  15.920 -0.2218  0.5467 -0.1339
 8880TIP3    H148131   3.447   4.946  16.004 -1.6748  1.1370 -0.6605
 8880TIP3    H248132   3.552   4.923  15.897 -0.4703  2.1729  0.2698
 8881TIP3   OH248133   4.936   4.994   2.329  0.1989  0.9436  1.0567
 8881TIP3    H148134   5.023   5.029   2.308  0.9570  0.3875  3.2259
 8881TIP3    H248135   4.891   4.993   2.245  2.1432  1.6392 -0.0378
 8882TIP3   OH248136   5.812   4.077   2.939 -0.0824 -0.2867  0.2515
 8882TIP3    H148137   5.867   4.141   2.893 -0.8059 -0.0528 -0.2946
 8882TIP3    H248138   5.862   3.995   2.935  0.6788  0.1588  0.6256
 8883TIP3   OH248139   0.804   3.283   5.072  0.1167  0.2790  0.5996
 8883TIP3    H148140   0.826   3.232   5.150  0.9491 -0.0650  0.1533
 8883TIP3    H248141   0.762   3.362   5.105  1.7362  0.7916  1.4830
 8884TIP3   OH248142   4.981   0.346   0.314  0.5173 -0.1588  0.2164
 8884TIP3    H148143   4.970   0.260   0.356  1.0274  0.2870  1.2919
 8884TIP3    H248144   5.017   0.326   0.228  1.0290 -1.0123  0.6183
 8885TIP3   OH248145   0.662   4.429  11.033  0.7348 -0.1914  0.0014
 8885TIP3    H148146   0.644   4.369  10.960  1.1471 -2.0225  1.3709
 8885TIP3    H248147   0.584   4.425  11.087  0.4392  1.1562 -0.3046
 8886TIP3   OH248148   2.100   1.877   0.485  0.1927  0.3403  0.6679
 8886TIP3    H148149   2.163   1.833   0.542 -0.4341 -0.0282  1.0836
 8886TIP3    H248150   2.115   1.838   0.398  0.4803  0.1919  0.7849
 8887TIP3   OH248151   6.454   3.728  14.360 -0.0929 -0.1265  0.4682
 8887TIP3    H148152   6.459   3.795  14.292  0.4099  0.0400  0.6649
 8887TIP3    H248153   6.365   3.736  14.396 -0.6510 -0.7919 -0.7569
 8888TIP3   OH248154   6.572   6.192  14.269 -0.8149 -0.6854  0.1153
 8888TIP3    H148155   6.637   6.122  14.254  0.2597  0.6541 -1.7980
 8888TIP3    H248156   6.575   6.244  14.189 -2.0021  1.2409  1.2886
 8889TIP3   OH248157   5.333   2.122  13.694  0.2684  0.4341  0.1632
 8889TIP3    H148158   5.274   2.195  13.676  0.5351  0.2444 -1.5922
 8889TIP3    H248159   5.421   2.160  13.691  0.3414  0.2964  0.5551
 8890TIP3   OH248160   2.369   6.202  15.511 -0.8216  0.0860 -0.0965
 8890TIP3    H148161   2.328   6.288  15.521 -0.1140  0.1949  2.1466
 8890TIP3    H248162   2.405   6.182  15.597 -0.6895 -2.3301 -0.6707
 8891TIP3   OH248163   4.436   1.939   1.832 -0.1433  0.1477  0.2611
 8891TIP3    H148164   4.463   1.905   1.918 -0.8213 -2.1623 -0.3902
 8891TIP3    H248165   4.372   1.875   1.800  1.0296  0.2665 -2.5061
 8892TIP3   OH248166   0.362   2.946  14.028  0.1550 -0.0281  0.5663
 8892TIP3    H148167   0.410   3.021  13.993 -2.6285  2.0195  0.9850
 8892TIP3    H248168   0.343   2.969  14.119  1.0693 -2.1850  1.3477
 8893TIP3   OH248169   0.325   2.506   6.246  0.2638  0.3746  0.0910
 8893TIP3    H148170   0.366   2.421   6.230  1.5361  1.0102 -0.0723
 8893TIP3    H248171   0.385   2.569   6.207 -1.4120  1.2560 -1.1166
 8894TIP3   OH248172   3.581   5.862   5.821  0.1550  0.0015  0.4488
 8894TIP3    H148173   3.513   5.896   5.880  0.0873 -1.7913  1.4254
 8894TIP3    H248174   3.656   5.848   5.878  0.5680 -0.3214 -0.1779
 8895TIP3   OH248175   6.257   3.318  11.815 -0.3847  0.0772  0.4418
 8895TIP3    H148176   6.340   3.345  11.854  0.0662 -1.6860  0.7165
 8895TIP3    H248177   6.219   3.257  11.877  0.0193 -2.2491 -1.5215
 8896TIP3   OH248178   0.242   1.681   5.674 -0.4127  0.0800  0.7511
 8896TIP3    H148179   0.203   1.601   5.708 -2.6956  1.0603  0.5368
 8896TIP3    H248180   0.224   1.747   5.741  0.1095  0.7562  0.2409
 8897TIP3   OH248181   4.537   1.246   3.662 -0.1049  0.2458  0.0127
 8897TIP3    H148182   4.454   1.224   3.621 -0.4712  0.8349  0.4264
 8897TIP3    H248183   4.580   1.304   3.599 -0.3785  0.6160  0.1620
 8898TIP3   OH248184   0.969   1.779   5.292 -0.1978 -0.4126 -0.1777
 8898TIP3    H148185   0.948   1.870   5.271 -1.4938 -0.6466  0.0476
 8898TIP3    H248186   0.963   1.774   5.387  0.9286 -0.4880 -0.1068
 8899TIP3   OH248187   1.649   1.408  14.168 -0.3691  0.1780 -0.2724
 8899TIP3    H148188   1.744   1.415  14.166 -0.4310  1.5373  0.9936
 8899TIP3    H248189   1.619   1.468  14.100 -0.3694  1.2504  0.6490
 8900TIP3   OH248190   4.280   2.201  11.249 -0.3895  0.5915  0.2537
 8900TIP3    H148191   4.328   2.140  11.306 -0.5770  0.6885  0.5123
 8900TIP3    H248192   4.349   2.242  11.196 -0.2623  0.1445  0.0656
 8901TIP3   OH248193   1.373   6.498  16.046 -0.0555 -0.2030 -0.2911
 8901TIP3    H148194   1.373   6.593  16.038  1.9252 -0.2391 -0.9721
 8901TIP3    H248195   1.408   6.467  15.962  0.0398 -1.5014  0.2161
 8902TIP3   OH248196   3.362   4.081   0.615 -0.2641 -0.2617  0.3478
 8902TIP3    H148197   3.294   4.016   0.633 -1.0376  0.6164  0.6532
 8902TIP3    H248198   3.379   4.072   0.521 -2.1124  0.7343 -0.1129
 8903TIP3   OH248199   2.139   6.193  14.314 -0.3094  0.0950 -0.4096
 8903TIP3    H148200   2.096   6.170  14.232  0.8637 -0.6979 -0.8225
 8903TIP3    H248201   2.200   6.121  14.330 -1.0837 -0.1505  1.5800
 8904TIP3   OH248202   1.898   0.306  14.224 -0.2237  0.0874  0.2574
 8904TIP3    H148203   1.914   0.212  14.216 -0.3504 -0.0007  1.0789
 8904TIP3    H248204   1.805   0.313  14.246 -0.7860  0.5031 -2.0184
 8905TIP3   OH248205   5.221   3.361   5.676 -0.3983  0.1339 -0.1895
 8905TIP3    H148206   5.187   3.394   5.759 -2.8732  0.5786 -1.3590
 8905TIP3    H248207   5.241   3.269   5.694 -1.3158  0.1155  0.7839
 8906TIP3   OH248208   1.193   5.360  13.029  0.5483  0.5969 -0.0890
 8906TIP3    H148209   1.233   5.294  13.087  1.3986  0.0665 -1.2764
 8906TIP3    H248210   1.231   5.443  13.058  1.1737  0.3045 -0.0698
 8907TIP3   OH248211   3.260   2.683  16.252 -0.0430 -0.1765  0.2514
 8907TIP3    H148212   3.202   2.628  16.198 -1.6685  0.4999  1.2713
 8907TIP3    H248213   3.321   2.722  16.189 -0.6377 -0.9618 -0.8331
 8908TIP3   OH248214   5.265   0.789   2.062 -0.1763  0.0470 -0.3466
 8908TIP3    H148215   5.310   0.704   2.059 -1.1608 -0.5279  0.5831
 8908TIP3    H248216   5.306   0.835   2.135 -0.2507  0.0214 -0.2893
 8909TIP3   OH248217   3.800   3.860  15.321 -0.3975 -0.8765 -0.6432
 8909TIP3    H148218   3.796   3.827  15.231 -2.7756 -2.8733  0.1514
 8909TIP3    H248219   3.882   3.825  15.356  0.4904 -0.1776 -1.9678
 8910TIP3   OH248220   6.781   3.528  13.398  0.3904  0.4258  0.6118
 8910TIP3    H148221   6.742   3.594  13.340 -0.9544 -0.8581  0.0149
 8910TIP3    H248222   6.745   3.445  13.367  0.3277 -0.3760  2.7631
 8911TIP3   OH248223   2.567   5.089   3.602  0.5982  0.3177  0.2153
 8911TIP3    H148224   2.519   5.160   3.644 -0.6851 -1.4077  1.7657
 8911TIP3    H248225   2.507   5.055   3.536  1.0039  0.3210 -0.1601
 8912TIP3   OH248226   2.076   5.833  15.764 -0.2944  0.4962 -0.0237
 8912TIP3    H148227   2.135   5.814  15.838 -0.0202 -1.3258 -0.6785
 8912TIP3    H248228   2.134   5.867  15.696 -0.3183  0.6883  0.0505
 8913TIP3   OH248229   6.728   2.308   5.343  0.2199  0.8662  0.5306
 8913TIP3    H148230   6.705   2.350   5.260 -1.2316  2.1024  1.5389
 8913TIP3    H248231   6.824   2.309   5.343  0.2349  1.4661 -0.8293
 8914TIP3   OH248232   6.372   0.004  13.507  0.7166 -0.2779 -0.1954
 8914TIP3    H148233   6.310   0.031  13.439 -1.3011 -0.0096  1.6914
 8914TIP3    H248234   6.421   0.084  13.528  0.8075 -0.1804 -0.7897
 8915TIP3   OH248235   0.558   2.545  14.597  0.0439 -0.2148  0.0244
 8915TIP3    H148236   0.497   2.589  14.656 -0.7244 -1.1678 -0.0411
 8915TIP3    H248237   0.502   2.495  14.537  0.9003 -2.0462  0.7037
 8916TIP3   OH248238   1.270   6.130  12.337 -0.5680 -0.1189  0.3014
 8916TIP3    H148239   1.302   6.172  12.417 -2.8982  0.4082  0.9872
 8916TIP3    H248240   1.175   6.134  12.344 -0.8322  0.5794 -2.8225
 8917TIP3   OH248241   3.068   2.534  16.886  0.3272 -0.6195  0.3390
 8917TIP3    H148242   3.065   2.479  16.807  1.0467  0.8203 -0.7175
 8917TIP3    H248243   2.983   2.577  16.888  0.3228 -0.6264  0.3122
 8918TIP3   OH248244   6.179   3.035  10.665  0.0463  0.0978 -0.3003
 8918TIP3    H148245   6.140   3.109  10.618 -0.4875  0.1983  0.2998
 8918TIP3    H248246   6.167   3.056  10.757  0.7843 -0.2707 -0.1211
 8919TIP3   OH248247   1.836   1.860  11.065 -0.0264  0.0659  0.4049
 8919TIP3    H148248   1.875   1.801  11.000  0.7090  0.8643  0.1116
 8919TIP3    H248249   1.749   1.879  11.031  0.5317  0.8666 -0.6106
 8920TIP3   OH248250   0.764   5.309  11.539  0.0814 -0.3053 -0.1290
 8920TIP3    H148251   0.828   5.277  11.476 -0.4776 -1.0574 -0.3222
 8920TIP3    H248252   0.781   5.403  11.545  2.3984 -0.7615  1.2022
 8921TIP3   OH248253   1.551   3.470   2.071 -0.1046 -0.0383  0.0308
 8921TIP3    H148254   1.564   3.378   2.048  2.6553  1.0493 -3.2869
 8921TIP3    H248255   1.498   3.505   1.999 -0.2417  1.2039  0.7185
 8922TIP3   OH248256   3.825   0.184   2.383  0.5401 -0.0631 -0.5497
 8922TIP3    H148257   3.806   0.278   2.387  2.2633  0.2169  2.1515
 8922TIP3    H248258   3.753   0.147   2.331 -1.8416  2.3230  0.9312
 8923TIP3   OH248259   2.072   6.046  12.734  0.1695  0.5560 -0.1430
 8923TIP3    H148260   2.028   6.128  12.712 -2.1988 -0.2204  1.4966
 8923TIP3    H248261   2.031   6.018  12.816  2.5155 -1.1360  0.4977
 8924TIP3   OH248262   6.401   2.294  11.176  0.0599  0.2361  0.0614
 8924TIP3    H148263   6.336   2.296  11.105 -0.2014 -0.9019  0.2474
 8924TIP3    H248264   6.401   2.383  11.211 -2.6989 -0.1326  1.1913
 8925TIP3   OH248265   3.684   2.318  14.726 -0.3704 -0.0602  0.1717
 8925TIP3    H148266   3.718   2.318  14.816  0.1499 -0.0862 -0.0249
 8925TIP3    H248267   3.755   2.355  14.674 -0.2528 -1.0426 -0.3838
 8926TIP3   OH248268   1.866   4.750  16.128 -0.0283  0.1394  0.1860
 8926TIP3    H148269   1.933   4.776  16.065  0.4986 -1.4048  0.0695
 8926TIP3    H248270   1.784   4.754  16.080  0.1503  0.6863 -0.0793
 8927TIP3   OH248271   2.024   6.642  16.733 -0.1496  0.0449  0.0982
 8927TIP3    H148272   2.102   6.628  16.787  1.5419  1.2497 -1.9496
 8927TIP3    H248273   1.989   6.725  16.763 -0.8456 -0.6631  1.2538
 8928TIP3   OH248274   5.906   5.786  14.654 -0.1193  0.2558  0.2420
 8928TIP3    H148275   5.883   5.869  14.612  0.4042  0.7530  0.9168
 8928TIP3    H248276   5.826   5.735  14.653  0.3962 -0.5811 -3.2807
 8929TIP3   OH248277   3.522   4.367  15.244  0.2807 -0.2834  0.1864
 8929TIP3    H148278   3.571   4.289  15.219  2.3207  1.0922 -0.2426
 8929TIP3    H248279   3.519   4.364  15.340  2.5499  0.3583  0.3175
 8930TIP3   OH248280   5.509   1.618   1.947  0.4647  0.0069  0.4897
 8930TIP3    H148281   5.539   1.648   2.032 -0.6507  0.5253  0.7113
 8930TIP3    H248282   5.419   1.650   1.940  0.8097  0.7024 -1.2265
 8931TIP3   OH248283   3.568   6.369  13.085  0.0918  0.2199 -0.0879
 8931TIP3    H148284   3.635   6.436  13.071 -0.3720  1.0319  1.5222
 8931TIP3    H248285   3.491   6.418  13.112 -1.4231 -0.6330 -2.6913
 8932TIP3   OH248286   6.457   5.484  12.813 -0.0384 -1.2973 -0.2939
 8932TIP3    H148287   6.507   5.515  12.737 -2.0459  0.4468 -0.9711
 8932TIP3    H248288   6.481   5.392  12.822  2.9952 -0.5911 -0.7812
 8933TIP3   OH248289   1.579   3.040  12.726 -0.2323 -0.0785 -0.1770
 8933TIP3    H148290   1.662   3.017  12.768 -0.7053 -0.4481  0.5475
 8933TIP3    H248291   1.559   2.964  12.671  0.6415  0.6090 -1.4915
 8934TIP3   OH248292   2.001   0.262  12.644  0.2836 -0.4867 -0.3670
 8934TIP3    H148293   2.046   0.342  12.619  0.4565 -0.8384 -1.1997
 8934TIP3    H248294   2.023   0.199  12.575  0.4872 -1.3677  0.4865
 8935TIP3   OH248295   5.880   1.059  13.642 -0.9575  0.1288 -0.4300
 8935TIP3    H148296   5.938   1.090  13.712 -2.7566  1.0043  0.7188
 8935TIP3    H248297   5.931   1.070  13.562  1.1486 -0.8739  0.7148
 8936TIP3   OH248298   6.451   0.790   4.403  0.2752  0.4270  0.4891
 8936TIP3    H148299   6.525   0.839   4.438 -0.3103  1.2039  0.6575
 8936TIP3    H248300   6.473   0.699   4.419  1.9849  0.5366 -0.9871
 8937TIP3   OH248301   3.960   3.117  12.386 -0.0350  0.7547  0.3823
 8937TIP3    H148302   3.917   3.039  12.421 -0.9515  1.1487  0.1449
 8937TIP3    H248303   3.918   3.190  12.432 -0.8065  1.2376 -1.0512
 8938TIP3   OH248304   1.564   5.419  14.375 -0.6870 -0.4077 -0.6724
 8938TIP3    H148305   1.624   5.380  14.311  0.3158  2.5031 -1.5666
 8938TIP3    H248306   1.621   5.466  14.435 -1.8480 -0.6635  0.6331
 8939TIP3   OH248307   6.031   1.173   6.186 -0.4025 -0.8238  0.0819
 8939TIP3    H148308   6.054   1.263   6.163 -0.2451 -0.8614  0.0928
 8939TIP3    H248309   6.114   1.126   6.184 -0.8291 -1.4876 -2.2019
 8940TIP3   OH248310   2.372   5.379   0.467 -0.0822  0.2846 -0.1640
 8940TIP3    H148311   2.450   5.330   0.444 -0.0221  0.1573  0.2949
 8940TIP3    H248312   2.404   5.450   0.522 -0.0289  1.5313 -1.7848
 8941TIP3   OH248313   2.847   4.076  12.929  0.0448 -0.0301 -0.6049
 8941TIP3    H148314   2.810   4.049  12.845  0.4892 -0.8316 -0.5483
 8941TIP3    H248315   2.902   4.002  12.956 -0.6137 -0.0507  0.7138
 8942TIP3   OH248316   2.916   4.207   6.133  0.7529  0.3816 -0.0809
 8942TIP3    H148317   2.922   4.124   6.086  1.0586  0.0675  0.5078
 8942TIP3    H248318   2.874   4.184   6.216  0.2557  0.9252 -0.1772
 8943TIP3   OH248319   5.942   4.706  16.228  0.0338 -0.6477  0.3112
 8943TIP3    H148320   5.915   4.774  16.166  0.5405 -1.0750 -0.3914
 8943TIP3    H248321   5.896   4.627  16.198  1.0456 -1.0785 -0.1142
 8944TIP3   OH248322   3.392   5.343  12.326 -0.2410 -0.3437 -0.2482
 8944TIP3    H148323   3.479   5.382  12.340  0.7475 -1.9529 -1.6794
 8944TIP3    H248324   3.351   5.347  12.413  2.3263 -2.0223  1.1367
 8945TIP3   OH248325   6.613   3.967   5.515 -0.0786  0.3977  0.4205
 8945TIP3    H148326   6.665   3.887   5.516  0.0683  0.4635 -0.8000
 8945TIP3    H248327   6.675   4.037   5.494 -0.3363  0.7411  0.7700
 8946TIP3   OH248328   0.092   3.149   4.017 -0.1180 -0.2543 -0.1315
 8946TIP3    H148329   0.163   3.086   4.014 -0.0406 -0.2433  1.1791
 8946TIP3    H248330   0.030   3.113   4.080 -0.3290  0.6976  0.2198
 8947TIP3   OH248331   4.215   3.686  11.947  0.3778  0.1636 -0.5367
 8947TIP3    H148332   4.235   3.779  11.955  1.9026 -0.0888 -1.1253
 8947TIP3    H248333   4.271   3.644  12.012  0.2785 -0.3995 -0.8089
 8948TIP3   OH248334   3.213   3.971  14.733 -0.5803 -0.2633 -0.5737
 8948TIP3    H148335   3.131   3.921  14.735 -0.2371 -0.8146 -0.2242
 8948TIP3    H248336   3.217   4.006  14.644 -0.0448 -2.1779 -1.3226
 8949TIP3   OH248337   6.249   3.331   1.904 -0.2421 -0.2949 -0.0763
 8949TIP3    H148338   6.171   3.379   1.933 -0.7844 -0.4060 -1.3196
 8949TIP3    H248339   6.322   3.389   1.924 -0.9951  1.6240 -2.7483
 8950TIP3   OH248340   1.539   5.382   2.523 -0.6456  0.5342  0.0729
 8950TIP3    H148341   1.585   5.357   2.443  0.2541 -0.3156  0.8579
 8950TIP3    H248342   1.552   5.477   2.530  0.2216  0.4314 -0.1783
 8951TIP3   OH248343   3.703   5.282   4.897 -0.4530  0.2319 -0.3562
 8951TIP3    H148344   3.675   5.200   4.938  0.6478 -0.4439 -0.9386
 8951TIP3    H248345   3.736   5.257   4.811 -1.6845  1.5132 -1.2283
 8952TIP3   OH248346   3.762   0.463   1.129  0.5706  0.5988  0.0596
 8952TIP3    H148347   3.747   0.556   1.112  0.8580  0.6494  0.0951
 8952TIP3    H248348   3.825   0.435   1.062 -0.2741  0.1947 -0.5856
 8953TIP3   OH248349   1.715   5.177   4.213 -0.6319 -0.1065  0.4388
 8953TIP3    H148350   1.700   5.127   4.133  0.4016 -0.9649  0.7728
 8953TIP3    H248351   1.777   5.245   4.187 -2.8703  1.7536 -0.2846
 8954TIP3   OH248352   0.642   5.442  12.323 -0.3981 -0.0228 -0.0735
 8954TIP3    H148353   0.595   5.502  12.382  0.2081  1.1563 -0.7626
 8954TIP3    H248354   0.720   5.418  12.372 -0.0872  0.6492 -0.2320
 8955TIP3   OH248355   3.607   0.824  16.804 -0.1254 -0.2254  0.2382
 8955TIP3    H148356   3.690   0.831  16.850  2.1554 -2.3162 -3.3794
 8955TIP3    H248357   3.590   0.913  16.773  0.7686  0.1991  0.9352
 8956TIP3   OH248358   5.798   2.714   1.253 -0.3048  0.7767 -0.1968
 8956TIP3    H148359   5.750   2.641   1.292 -1.5896  1.3524 -0.6663
 8956TIP3    H248360   5.793   2.699   1.159  0.0885  1.0566 -0.2622
 8957TIP3   OH248361   2.843   5.283  14.650  0.3562  0.1218 -0.3197
 8957TIP3    H148362   2.876   5.266  14.561  0.6171  1.9265 -0.5840
 8957TIP3    H248363   2.826   5.196  14.686  0.9710 -0.6616 -1.8685
 8958TIP3   OH248364   6.795   1.613   6.355 -0.6316 -0.0437 -0.0183
 8958TIP3    H148365   6.748   1.553   6.412  0.8414 -2.0906 -0.8500
 8958TIP3    H248366   6.877   1.631   6.402  0.0942 -0.8519 -0.9415
 8959TIP3   OH248367   4.542   2.772   0.871  0.2478  0.1845  0.3309
 8959TIP3    H148368   4.537   2.715   0.794  0.7161 -0.3332  0.6778
 8959TIP3    H248369   4.483   2.844   0.851  1.8744  1.0869 -1.3960
 8960TIP3   OH248370   6.351   6.084   5.673 -0.0957 -0.2615 -0.2582
 8960TIP3    H148371   6.268   6.043   5.651 -0.3647 -0.0307  0.3372
 8960TIP3    H248372   6.364   6.066   5.766 -0.6461  1.7635  0.2251
 8961TIP3   OH248373   5.659   5.368  13.999 -0.0350 -0.5100  0.3589
 8961TIP3    H148374   5.740   5.418  13.991  1.5565 -3.3283 -2.2226
 8961TIP3    H248375   5.672   5.313  14.077  1.2159 -2.0551 -0.9119
 8962TIP3   OH248376   2.271   3.698  15.359 -0.0149  0.1801 -0.4224
 8962TIP3    H148377   2.304   3.643  15.288  0.7623  1.0550 -0.7477
 8962TIP3    H248378   2.349   3.727  15.406 -0.5821 -1.1376  1.3565
 8963TIP3   OH248379   1.308   4.465   2.784  0.3773 -0.1999 -0.1247
 8963TIP3    H148380   1.382   4.526   2.779 -0.0723  0.5243  1.6263
 8963TIP3    H248381   1.311   4.432   2.873 -2.3531  1.0698  0.4872
 8964TIP3   OH248382   1.820   0.600   5.113 -0.5975 -0.6237  0.3931
 8964TIP3    H148383   1.739   0.571   5.071 -1.5893  2.2380  0.2300
 8964TIP3    H248384   1.807   0.694   5.130  2.6284 -0.1135  0.4686
 8965TIP3   OH248385   6.438   2.008   5.836  0.5232  0.3750  0.4649
 8965TIP3    H148386   6.363   1.958   5.803  0.5279  1.1435 -0.7597
 8965TIP3    H248387   6.400   2.091   5.865  0.7525  0.3254  0.9139
 8966TIP3   OH248388   2.532   6.019   6.786 -0.4307  0.2172 -0.2003
 8966TIP3    H148389   2.475   6.038   6.860  1.3120  2.5540  0.6036
 8966TIP3    H248390   2.595   6.091   6.785  1.3221 -1.2767 -2.2309
 8967TIP3   OH248391   1.076   6.388   3.680 -0.2367  0.2419 -0.9238
 8967TIP3    H148392   1.127   6.446   3.623  0.0393 -1.4138 -2.4165
 8967TIP3    H248393   0.990   6.384   3.639 -0.3539 -0.1133 -0.6441
 8968TIP3   OH248394   1.952   1.976   5.722 -0.1360  0.9102 -0.3174
 8968TIP3    H148395   2.027   1.930   5.759 -1.3878 -0.9041  0.0248
 8968TIP3    H248396   1.979   2.068   5.718  2.4516  0.1513 -1.1179
 8969TIP3   OH248397   0.671   5.180   1.728 -0.0514  0.0640  0.5621
 8969TIP3    H148398   0.643   5.106   1.781 -0.5103  0.4069  0.8024
 8969TIP3    H248399   0.668   5.148   1.638 -0.8703 -0.0092  0.6142
 8970TIP3   OH248400   6.129   1.380   2.764 -0.4429  0.1304  0.4936
 8970TIP3    H148401   6.057   1.444   2.761 -0.4274  0.0809 -0.9747
 8970TIP3    H248402   6.163   1.377   2.675 -0.2533 -1.7257  0.6088
 8971TIP3   OH248403   5.338   4.909   5.883 -0.5300  0.0378  0.1893
 8971TIP3    H148404   5.263   4.912   5.942 -0.2307 -0.5523  0.6142
 8971TIP3    H248405   5.300   4.907   5.795 -0.9671  1.9486  0.3069
 8972TIP3   OH248406   1.137   4.598  16.014  0.2394 -0.3807  0.4516
 8972TIP3    H148407   1.062   4.656  16.012  0.0376 -0.4849  3.0150
 8972TIP3    H248408   1.122   4.536  15.942 -0.3960  1.6433 -1.1938
 8973TIP3   OH248409   3.234   5.672   2.712  0.0099 -0.2660  0.4772
 8973TIP3    H148410   3.306   5.648   2.654 -1.0880 -0.4571 -0.8336
 8973TIP3    H248411   3.260   5.756   2.750  0.0351  0.6757 -1.5516
 8974TIP3   OH248412   6.276   4.599   4.156 -0.6189 -0.3228 -0.0714
 8974TIP3    H148413   6.225   4.642   4.087  0.1538 -0.2571 -0.6080
 8974TIP3    H248414   6.359   4.576   4.114  0.6705  1.5318  1.3762
 8975TIP3   OH248415   3.352   5.510   0.496  0.3239 -0.4915  0.0276
 8975TIP3    H148416   3.264   5.472   0.488  0.1279 -0.5997  2.2440
 8975TIP3    H248417   3.407   5.437   0.524  0.3343  0.3770  2.3890
 8976TIP3   OH248418   3.548   5.581  14.887 -0.2107  0.2438  0.0805
 8976TIP3    H148419   3.630   5.590  14.936  0.1658  1.0303 -0.7027
 8976TIP3    H248420   3.480   5.595  14.953  0.2943  1.0950  0.4302
 8977TIP3   OH248421   0.333   2.125  16.431  0.1033  0.0290  0.2808
 8977TIP3    H148422   0.404   2.061  16.429 -2.1992 -2.5537 -3.2350
 8977TIP3    H248423   0.264   2.083  16.483 -1.4727 -0.4712 -2.1558
 8978TIP3   OH248424   4.382   3.794  10.814 -0.6615  0.3420 -0.0271
 8978TIP3    H148425   4.405   3.854  10.743 -1.2056  0.3991 -0.1571
 8978TIP3    H248426   4.300   3.829  10.849 -1.3453 -0.7100 -0.5502
 8979TIP3   OH248427   5.416   5.319   4.646  0.6331  0.0748 -0.0438
 8979TIP3    H148428   5.381   5.234   4.670 -0.1111  0.8853  1.8599
 8979TIP3    H248429   5.511   5.309   4.656  0.5085 -0.3674  0.7954
 8980TIP3   OH248430   0.002   0.317   0.052  0.0538  1.1212 -0.0784
 8980TIP3    H148431   0.064   0.245   0.062 -0.3197  0.8379  0.2300
 8980TIP3    H248432  -0.069   0.297   0.114 -1.9813 -0.3133 -2.7753
 8981TIP3   OH248433   4.812   1.304  16.118  0.1202  0.4597  0.4588
 8981TIP3    H148434   4.728   1.331  16.155 -0.9801 -0.5226 -1.2260
 8981TIP3    H248435   4.790   1.230  16.061  2.3400 -0.7073  1.0672
 8982TIP3   OH248436   0.660   0.412   4.592  0.7231  0.1945 -0.0750
 8982TIP3    H148437   0.665   0.506   4.574 -0.1133 -0.2257 -2.7689
 8982TIP3    H248438   0.642   0.372   4.507  0.8036 -2.4009  1.0640
 8983TIP3   OH248439   1.182   6.403  10.569 -0.6557 -0.9203  0.3485
 8983TIP3    H148440   1.200   6.428  10.479  0.3172  0.1359  0.8331
 8983TIP3    H248441   1.104   6.453  10.593 -0.0321 -0.0497  0.5805
 8984TIP3   OH248442   4.427   3.350   4.081 -0.5938 -0.5365 -0.2090
 8984TIP3    H148443   4.452   3.331   4.172  0.7881  1.9954 -0.0093
 8984TIP3    H248444   4.506   3.387   4.042 -1.0835 -1.8653 -2.5734
 8985TIP3   OH248445   3.477   5.963   1.052 -1.1249 -0.2151  0.0789
 8985TIP3    H148446   3.471   5.889   1.112  1.8321 -0.0400  0.6870
 8985TIP3    H248447   3.522   6.031   1.102 -5.6324  2.8355  0.2362
 8986TIP3   OH248448   2.714   5.381  16.974 -0.0636 -0.2823  0.3474
 8986TIP3    H148449   2.757   5.321  16.912  0.6031 -0.0076  0.5416
 8986TIP3    H248450   2.696   5.459  16.922 -1.1902 -0.7440  0.0220
 8987TIP3   OH248451   1.065   4.945  16.504 -0.3564 -0.2226 -0.3109
 8987TIP3    H148452   1.109   5.001  16.568  1.3654 -2.3135  0.4081
 8987TIP3    H248453   1.121   4.946  16.427 -1.4861  0.8289 -1.1382
 8988TIP3   OH248454   2.822   2.788   4.499 -0.2226 -0.1858 -0.5575
 8988TIP3    H148455   2.892   2.738   4.457 -0.5309 -0.2771 -0.9677
 8988TIP3    H248456   2.846   2.790   4.591  0.0865 -0.6041 -0.6273
 8989TIP3   OH248457   1.077   3.418  13.413 -0.1135 -0.0116  0.0543
 8989TIP3    H148458   1.162   3.420  13.368  0.1139 -2.5670  0.2851
 8989TIP3    H248459   1.075   3.333  13.456 -1.7806  1.0160  2.0986
 8990TIP3   OH248460   6.341   5.682   4.401 -0.0406 -0.0018 -0.5206
 8990TIP3    H148461   6.372   5.708   4.314 -1.5963  1.4283 -0.6779
 8990TIP3    H248462   6.273   5.747   4.422 -0.0396 -0.6464  1.5347
 8991TIP3   OH248463   5.752   6.261  15.046  0.1000 -0.1271  0.1720
 8991TIP3    H148464   5.836   6.276  15.090  0.3161 -2.6833  0.6991
 8991TIP3    H248465   5.686   6.295  15.107  0.6701  0.4996  0.4317
 8992TIP3   OH248466   3.189   3.947  16.185  0.4199  0.4812 -0.4917
 8992TIP3    H148467   3.236   3.870  16.153 -0.9443 -0.0759 -1.2130
 8992TIP3    H248468   3.231   4.021  16.140  1.9357  0.2071  0.4321
 8993TIP3   OH248469   2.384   4.569  10.933  0.3907 -0.0175  0.1711
 8993TIP3    H148470   2.475   4.545  10.916 -0.0990 -1.5694 -0.4226
 8993TIP3    H248471   2.336   4.486  10.927 -1.1283  0.8439  0.0125
 8994TIP3   OH248472   5.917   1.620   4.568  0.3284  0.1781  0.0527
 8994TIP3    H148473   5.842   1.631   4.626  1.0533  1.1741  0.8344
 8994TIP3    H248474   5.988   1.668   4.612  0.2058  3.3349 -3.0236
 8995TIP3   OH248475   4.112   5.792   2.744 -0.1264 -0.2163 -0.1689
 8995TIP3    H148476   4.139   5.884   2.754 -2.5613  0.6416 -1.1478
 8995TIP3    H248477   4.142   5.769   2.656 -0.3207 -0.0813 -0.2704
 8996TIP3   OH248478   0.234   0.985  10.914  0.1768 -0.3270  0.2450
 8996TIP3    H148479   0.252   1.030  10.996  0.1378 -0.0029  0.0758
 8996TIP3    H248480   0.150   1.020  10.885 -0.1461 -0.9482  0.4148
 8997TIP3   OH248481   1.151   2.126   2.885  0.9048  0.1720  0.2301
 8997TIP3    H148482   1.192   2.048   2.848  1.3893  0.4015  0.2767
 8997TIP3    H248483   1.221   2.192   2.886  1.1445 -0.0760  2.3016
 8998TIP3   OH248484   3.857   0.900   2.401  0.5599 -0.3661 -0.5868
 8998TIP3    H148485   3.896   0.828   2.451  0.2679  0.8021  1.3586
 8998TIP3    H248486   3.770   0.869   2.376  1.4803 -1.7495 -2.1979
 8999TIP3   OH248487   2.675   0.075  13.200 -0.0079  0.2328  0.0462
 8999TIP3    H148488   2.610   0.122  13.148 -0.8916  1.4536  2.2297
 8999TIP3    H248489   2.688  -0.007  13.152 -2.0029  0.6152 -1.2302
 9000TIP3   OH248490   4.394   3.678  12.170 -0.0120 -0.4934 -0.1853
 9000TIP3    H148491   4.366   3.608  12.229  0.8784 -1.4938 -0.9404
 9000TIP3    H248492   4.476   3.647  12.132  0.1363  0.7411 -0.9068
 9001TIP3   OH248493   6.539   2.756  10.755  0.2453 -0.2025  0.0352
 9001TIP3    H148494   6.585   2.681  10.717 -1.5779 -1.6246  0.5716
 9001TIP3    H248495   6.463   2.770  10.698  1.4782  2.4017 -1.0904
 9002TIP3   OH248496   5.148   4.499   1.150  0.4843 -0.3423 -0.6625
 9002TIP3    H148497   5.189   4.414   1.162 -0.5260 -0.9925 -1.7192
 9002TIP3    H248498   5.196   4.539   1.078  1.8747  0.5812  0.7494
 9003TIP3   OH248499   6.181   2.578  14.273 -0.3980 -0.7429  0.1978
 9003TIP3    H148500   6.176   2.594  14.179 -0.2164 -0.1641  0.2850
 9003TIP3    H248501   6.109   2.629  14.310  0.2579 -0.0209  0.4899
 9004TIP3   OH248502   3.518   3.792   5.920 -0.3633  0.3546 -0.4953
 9004TIP3    H148503   3.458   3.770   5.992 -0.1750 -0.0566 -0.4602
 9004TIP3    H248504   3.565   3.869   5.949  0.7298 -0.6388  0.4286
 9005TIP3   OH248505   0.318   1.416  12.870  0.3335  0.0313  0.2109
 9005TIP3    H148506   0.362   1.500  12.862 -2.1280  1.3542  0.0103
 9005TIP3    H248507   0.230   1.438  12.900 -0.1592 -2.5238  0.7575
 9006TIP3   OH248508   6.648   4.756  13.038  0.3570  0.6991  0.5166
 9006TIP3    H148509   6.589   4.710  13.098  0.9236 -0.2516  0.3511
 9006TIP3    H248510   6.673   4.835  13.086 -0.4102  0.7154  0.9097
 9007TIP3   OH248511   6.712   5.742  16.953 -0.6204 -0.0041 -0.3336
 9007TIP3    H148512   6.754   5.675  16.900 -0.6861 -0.5741  0.3324
 9007TIP3    H248513   6.635   5.699  16.990 -0.8011  0.5090 -0.0982
 9008TIP3   OH248514   2.782   1.921  15.857  0.4358  0.3599  0.4256
 9008TIP3    H148515   2.704   1.946  15.907  0.3620 -0.0087  0.4964
 9008TIP3    H248516   2.755   1.842  15.809  0.1004  1.4154 -1.1728
 9009TIP3   OH248517   3.133   4.012  11.871  0.1590 -0.0593 -0.3094
 9009TIP3    H148518   3.099   3.936  11.918  1.3079  0.0831  0.7700
 9009TIP3    H248519   3.131   4.083  11.935 -0.7677  0.8029 -1.2694
 9010TIP3   OH248520   4.776   4.089  14.848 -0.3720  0.2723  0.1530
 9010TIP3    H148521   4.731   4.154  14.902 -0.2529 -0.9443  1.7383
 9010TIP3    H248522   4.791   4.016  14.907 -0.2135 -1.0705 -1.5356
 9011TIP3   OH248523   3.833   4.155   2.445 -0.8524 -0.4602 -0.1488
 9011TIP3    H148524   3.847   4.215   2.518 -1.8552  0.1927 -0.4789
 9011TIP3    H248525   3.740   4.132   2.450 -0.9532 -0.3405 -1.2588
 9012TIP3   OH248526   5.718   6.187   0.697  0.6198 -0.1930 -0.7339
 9012TIP3    H148527   5.791   6.231   0.740  0.1112  0.3363 -0.4165
 9012TIP3    H248528   5.693   6.117   0.757 -1.1440  1.5371  0.6240
 9013TIP3   OH248529   2.776   2.246   5.654 -0.1904 -0.2225 -0.4695
 9013TIP3    H148530   2.825   2.171   5.687 -0.0973 -0.3935 -0.9889
 9013TIP3    H248531   2.746   2.219   5.568 -1.3340 -0.1723 -0.0868
 9014TIP3   OH248532   3.709   1.140   4.911 -0.2719  0.0587  0.1225
 9014TIP3    H148533   3.771   1.089   4.858 -0.0542  0.6637 -0.2063
 9014TIP3    H248534   3.696   1.221   4.862  0.9144  1.1808  1.6109
 9015TIP3   OH248535   0.472   1.526   5.684 -0.0712 -0.3881 -0.4271
 9015TIP3    H148536   0.531   1.601   5.675 -0.4962  0.2032  1.4508
 9015TIP3    H248537   0.390   1.563   5.716 -1.0462 -1.3853 -1.6774
 9016TIP3   OH248538   2.023   6.234  13.284 -1.0082  0.3527  0.1059
 9016TIP3    H148539   2.019   6.139  13.296  0.2281  0.3201  0.3379
 9016TIP3    H248540   1.986   6.270  13.364 -0.7665  0.0656  0.3502
 9017TIP3   OH248541   4.597   1.692  11.521 -0.1456  0.3042 -0.0999
 9017TIP3    H148542   4.522   1.634  11.508 -0.0171 -0.1118  0.9513
 9017TIP3    H248543   4.584   1.728  11.609 -0.0057  1.5452 -0.5900
 9018TIP3   OH248544   2.938   2.582  12.412  0.9530 -0.1214  0.4071
 9018TIP3    H148545   2.912   2.672  12.391 -0.6585  0.1631  3.3637
 9018TIP3    H248546   2.879   2.527  12.360 -0.5440  0.5499  1.3650
 9019TIP3   OH248547   5.828   4.510  12.749 -0.0150 -0.3783  0.6089
 9019TIP3    H148548   5.825   4.418  12.777  0.2811 -0.7882 -0.7091
 9019TIP3    H248549   5.853   4.507  12.657 -1.1915  0.9661  0.2281
 9020TIP3   OH248550   4.952   3.615  12.799  0.0867  0.2923  0.6205
 9020TIP3    H148551   4.875   3.560  12.809  1.6788 -1.9551  0.9530
 9020TIP3    H248552   4.930   3.697  12.844 -2.2913 -0.0903  0.1905
 9021TIP3   OH248553   1.783   4.009   6.466  0.2374 -0.8389  0.4308
 9021TIP3    H148554   1.840   3.964   6.529  0.4935 -0.0485  0.7679
 9021TIP3    H248555   1.696   4.004   6.507  0.4245 -0.2147  0.9168
 9022TIP3   OH248556   2.104   5.536   5.465 -0.3542 -0.5962 -0.7207
 9022TIP3    H148557   2.138   5.528   5.554  1.2563  0.9726 -1.1438
 9022TIP3    H248558   2.035   5.471   5.459 -0.7538 -0.4469  1.8001
 9023TIP3   OH248559   5.486   2.715  12.971 -0.4243  0.5501 -0.4239
 9023TIP3    H148560   5.485   2.679  12.883  0.1888  0.8093 -0.5396
 9023TIP3    H248561   5.574   2.752  12.981 -0.2911 -0.0123  0.5074
 9024TIP3   OH248562   3.935   6.116   6.154 -0.0047 -0.3603  0.6883
 9024TIP3    H148563   3.892   6.040   6.193 -0.9336 -0.7089 -0.9472
 9024TIP3    H248564   4.015   6.127   6.204  0.0652 -2.3374  1.0380
 9025TIP3   OH248565   6.435   1.431  17.117 -0.2243  0.4291  0.7985
 9025TIP3    H148566   6.405   1.416  17.206  0.0297  1.2333  1.0157
 9025TIP3    H248567   6.490   1.509  17.122 -0.1738  0.4572 -0.0521
 9026TIP3   OH248568   3.258   5.493   3.287 -0.1643 -0.2593 -0.2118
 9026TIP3    H148569   3.312   5.571   3.276  0.0045 -0.1364  1.4218
 9026TIP3    H248570   3.174   5.526   3.318 -0.6379 -0.6010 -1.0976
 9027TIP3   OH248571   4.229   6.323  13.414 -0.2995  0.1275 -0.3186
 9027TIP3    H148572   4.306   6.371  13.442  1.1774 -1.8026 -0.9273
 9027TIP3    H248573   4.263   6.241  13.377 -2.6934 -1.4319  0.7297
 9028TIP3   OH248574   0.268   0.176   1.901 -0.0941 -0.0076  0.8167
 9028TIP3    H148575   0.357   0.150   1.923  0.4724 -0.6437 -2.0546
 9028TIP3    H248576   0.218   0.094   1.906  0.0206 -0.1406 -0.0620
 9029TIP3   OH248577   2.612   3.363  13.721  0.0390 -0.1937 -0.0673
 9029TIP3    H148578   2.587   3.379  13.812  0.2068 -0.8255  0.0920
 9029TIP3    H248579   2.590   3.444  13.676 -0.7889 -0.1578  0.3846
 9030TIP3   OH248580   3.973   2.020  15.596 -0.5288 -0.1806 -0.2825
 9030TIP3    H148581   3.893   1.970  15.608 -0.3756 -0.3391  0.1225
 9030TIP3    H248582   4.008   2.030  15.685 -0.2101  0.0649 -0.4335
 9031TIP3   OH248583   5.512   0.597   3.243  0.1216  0.4519 -0.3306
 9031TIP3    H148584   5.427   0.594   3.199  0.2868  0.4878 -0.6566
 9031TIP3    H248585   5.543   0.507   3.243 -0.8104  0.1196  1.5665
 9032TIP3   OH248586   2.059   0.858  12.452  0.0881 -0.4625 -0.0511
 9032TIP3    H148587   2.137   0.913  12.444 -0.2249 -0.1489 -1.0139
 9032TIP3    H248588   2.026   0.876  12.540  0.6390  0.0160  0.0616
 9033TIP3   OH248589   4.428   3.435   4.453 -0.3341  0.5057  0.4880
 9033TIP3    H148590   4.506   3.476   4.491  0.3705 -1.1497  0.8470
 9033TIP3    H248591   4.460   3.355   4.412 -1.4549  1.1104 -1.6303
 9034TIP3   OH248592   0.326   2.125   1.333 -0.7712 -0.2329 -0.1724
 9034TIP3    H148593   0.337   2.053   1.395  0.2359  0.7369  0.8094
 9034TIP3    H248594   0.291   2.084   1.254 -0.6056 -1.7253  0.5100
 9035TIP3   OH248595   4.611   0.527   1.693 -0.5903 -0.2951 -0.0066
 9035TIP3    H148596   4.524   0.489   1.695 -0.3575 -0.8450 -0.4224
 9035TIP3    H248597   4.669   0.455   1.668  0.1727 -0.3067  1.6825
 9036TIP3   OH248598   5.379   1.324   6.733 -0.1482  0.6524 -0.3957
 9036TIP3    H148599   5.363   1.258   6.801  2.4441  0.5111  0.1347
 9036TIP3    H248600   5.471   1.312   6.709  0.1908  3.6225 -0.7697
 9037TIP3   OH248601   5.500   2.998  14.666 -0.2134 -0.7098  0.1388
 9037TIP3    H148602   5.405   2.991  14.674 -0.4086  0.7302 -0.7198
 9037TIP3    H248603   5.518   2.967  14.577  0.1942 -1.5944  0.5288
 9038TIP3   OH248604   4.619   2.955  15.112 -0.4368 -0.3048  0.5043
 9038TIP3    H148605   4.665   2.959  15.028  0.1046 -0.3411  0.7901
 9038TIP3    H248606   4.533   2.991  15.095 -0.2370 -0.0664 -0.0094
 9039TIP3   OH248607   6.247   1.199  10.429  0.0577 -0.7865  0.6823
 9039TIP3    H148608   6.330   1.246  10.442 -0.7199  1.1185 -0.9054
 9039TIP3    H248609   6.272   1.108  10.418  1.8351 -0.4241  1.5184
 9040TIP3   OH248610   2.570   2.014  16.344  0.2507  0.0550 -0.2373
 9040TIP3    H148611   2.514   2.050  16.413  2.2701 -0.3640  1.6829
 9040TIP3    H248612   2.597   2.090  16.292 -1.4423  0.3470 -0.6975
 9041TIP3   OH248613   3.842   3.289   1.243  0.4650  0.1395  0.0045
 9041TIP3    H148614   3.752   3.306   1.216 -0.0630 -1.9243  0.3678
 9041TIP3    H248615   3.841   3.302   1.338 -0.1186 -2.4868  0.3890
 9042TIP3   OH248616   1.173   1.524   4.419  0.0694  0.1823  0.1652
 9042TIP3    H148617   1.170   1.456   4.486 -0.0592  0.5779  0.5626
 9042TIP3    H248618   1.129   1.485   4.343  0.0104 -0.1803  0.3838
 9043TIP3   OH248619   1.958   6.243   0.656 -0.4580 -0.0053 -0.2354
 9043TIP3    H148620   2.013   6.319   0.640  0.3056 -0.3638  0.6915
 9043TIP3    H248621   1.890   6.274   0.717  0.3553 -0.2854  0.8186
 9044TIP3   OH248622   5.970   3.574   0.551  0.2100 -0.2373 -0.5123
 9044TIP3    H148623   5.976   3.515   0.476  2.5140 -0.6070 -0.0788
 9044TIP3    H248624   6.051   3.626   0.547 -1.1895  2.0496 -0.1820
 9045TIP3   OH248625   5.039   4.206   0.716  0.3366 -0.0775 -0.3606
 9045TIP3    H148626   5.071   4.295   0.705  1.0506 -0.1915  0.7940
 9045TIP3    H248627   5.118   4.152   0.716 -0.1026 -0.7449 -1.2436
 9046TIP3   OH248628   1.539   3.375  16.889 -0.1146  0.5821 -0.0339
 9046TIP3    H148629   1.618   3.358  16.837  1.1505  2.4814  1.1792
 9046TIP3    H248630   1.489   3.294  16.884  2.6328 -1.2182  0.4006
 9047TIP3   OH248631   4.570   6.806   4.877  0.3776 -0.1508  0.1734
 9047TIP3    H148632   4.656   6.843   4.857  1.9088 -3.4222  0.4091
 9047TIP3    H248633   4.585   6.748   4.951 -1.8385 -1.4410 -0.3290
 9048TIP3   OH248634   3.229   3.334  11.989 -0.2643 -0.0922  0.0023
 9048TIP3    H148635   3.248   3.240  11.999 -0.3362 -0.1272 -0.1997
 9048TIP3    H248636   3.308   3.369  11.947 -0.9931 -0.3859 -1.6037
 9049TIP3   OH248637   2.559   3.199  12.478 -0.1907  0.3823  0.0560
 9049TIP3    H148638   2.481   3.171  12.526 -1.4867  1.7465 -1.1921
 9049TIP3    H248639   2.525   3.244  12.400  1.8515 -1.2655 -1.8536
 9050TIP3   OH248640   0.076   6.174  13.478  0.2029  0.6440 -0.5600
 9050TIP3    H148641   0.147   6.109  13.484 -2.4489 -2.5529 -2.1110
 9050TIP3    H248642   0.070   6.194  13.384 -3.0605 -1.7355 -0.9576
 9051TIP3   OH248643   5.318   0.843   4.267 -0.2618  0.0090 -0.3334
 9051TIP3    H148644   5.276   0.762   4.239  3.6324 -2.6455  1.1903
 9051TIP3    H248645   5.314   0.900   4.190 -1.4839 -2.2372 -1.9736
 9052TIP3   OH248646   2.240   4.230  12.207  0.2831  0.3061 -0.1055
 9052TIP3    H148647   2.288   4.266  12.282  3.6398 -1.2034 -1.4363
 9052TIP3    H248648   2.277   4.274  12.131  1.3584 -2.6007 -1.3659
 9053TIP3   OH248649   2.836   6.797  17.260 -0.4234 -1.3229  0.0876
 9053TIP3    H148650   2.845   6.707  17.291  2.5779 -0.8241  0.8268
 9053TIP3    H248651   2.841   6.850  17.339 -2.5360 -0.5039 -0.3115
 9054TIP3   OH248652   5.891   2.944   1.000 -0.6877  0.1402  0.5579
 9054TIP3    H148653   5.813   2.945   1.056 -0.0871  1.2675  1.3857
 9054TIP3    H248654   5.863   2.987   0.919 -1.7777 -2.1857 -0.3464
 9055TIP3   OH248655   4.854   3.583   3.744  0.3272 -0.7729 -0.3534
 9055TIP3    H148656   4.905   3.554   3.820 -0.3080 -0.4760  0.1959
 9055TIP3    H248657   4.896   3.664   3.717 -0.5304  0.0761  0.8038
 9056TIP3   OH248658   0.124   2.294  16.621  0.1244 -0.0604 -1.2462
 9056TIP3    H148659   0.160   2.210  16.593  0.8153 -0.3674  0.5434
 9056TIP3    H248660   0.032   2.275  16.640 -0.2770  0.0812 -2.9257
 9057TIP3   OH248661   2.951   5.389  16.647  0.2068  0.1599  0.0865
 9057TIP3    H148662   2.984   5.371  16.559  0.5284 -1.2457  0.4852
 9057TIP3    H248663   2.877   5.448  16.633  1.4179  1.4330 -0.9750
 9058TIP3   OH248664   4.027   4.687  16.307 -0.0850 -0.1608  0.2207
 9058TIP3    H148665   4.120   4.709  16.310  0.0644 -0.8181  0.3723
 9058TIP3    H248666   3.991   4.722  16.388  0.2119 -0.7422  0.6061
 9059TIP3   OH248667   3.468   5.110  12.166  0.4049 -0.5464  0.4241
 9059TIP3    H148668   3.509   5.113  12.080  1.0657 -1.5219  0.6881
 9059TIP3    H248669   3.516   5.174  12.218  0.5357 -0.5340  0.2878
 9060TIP3   OH248670   5.961   5.030   0.369  0.3170 -0.0620  0.0517
 9060TIP3    H148671   5.984   5.123   0.372  3.2381 -0.7221 -0.5717
 9060TIP3    H248672   5.985   4.996   0.455  2.7834 -0.9708 -0.9406
 9061TIP3   OH248673   5.185   2.118   3.040  0.0847  0.0009 -0.3491
 9061TIP3    H148674   5.256   2.059   3.066  1.8658  0.6328 -3.6521
 9061TIP3    H248675   5.208   2.202   3.080  1.4882  0.3360 -1.8335
 9062TIP3   OH248676   4.967   4.612  13.923 -0.5978 -0.4313 -0.2936
 9062TIP3    H148677   4.873   4.597  13.919 -0.5277 -0.9351 -0.0698
 9062TIP3    H248678   4.991   4.637  13.834 -0.8854 -0.6541 -0.4345
 9063TIP3   OH248679   1.132   2.483  15.883 -0.2393  0.1759  0.1581
 9063TIP3    H148680   1.156   2.409  15.939  1.4587 -0.2984 -1.1442
 9063TIP3    H248681   1.037   2.480  15.878 -0.2000 -1.9598  0.0974
 9064TIP3   OH248682   0.383   6.144   5.311  0.6129 -0.5857 -0.3430
 9064TIP3    H148683   0.388   6.105   5.399  0.3144 -0.1210 -0.1173
 9064TIP3    H248684   0.298   6.115   5.277 -0.8002  1.9799  0.8494
 9065TIP3   OH248685   4.449   0.015   5.419  0.6090  0.5823 -0.0928
 9065TIP3    H148686   4.408   0.042   5.337  1.5401  1.1172 -0.3909
 9065TIP3    H248687   4.521  -0.042   5.393  1.6422  1.7043  0.2821
 9066TIP3   OH248688   1.526   4.271  13.998  0.0651 -0.2336  0.4748
 9066TIP3    H148689   1.539   4.301  13.908 -1.5562 -0.2667  0.2093
 9066TIP3    H248690   1.608   4.227  14.020  1.8430  2.8516  0.2719
 9067TIP3   OH248691   3.291   4.929   0.333 -0.4023 -0.4020  0.0630
 9067TIP3    H148692   3.278   4.938   0.239 -1.2817  1.2175  0.3192
 9067TIP3    H248693   3.218   4.873   0.362 -2.4602  2.3092  0.3330
 9068TIP3   OH248694   5.669   1.375  14.623 -0.4882 -0.0047  0.2626
 9068TIP3    H148695   5.607   1.428  14.572 -0.4759 -0.8616 -0.6520
 9068TIP3    H248696   5.752   1.382  14.576 -0.2378 -0.0057  0.7017
 9069TIP3   OH248697   5.999   1.752   1.156  0.2931 -0.2003  0.3749
 9069TIP3    H148698   5.943   1.774   1.231  2.6915  0.1026  2.1238
 9069TIP3    H248699   5.999   1.656   1.154 -0.8963 -0.1957 -0.1099
 9070TIP3   OH248700   0.044   5.302  12.237  0.2316  0.2270 -0.0108
 9070TIP3    H148701   0.047   5.365  12.166 -0.7939  0.1057 -0.1777
 9070TIP3    H248702  -0.048   5.274  12.240  0.2539  0.2584  1.3701
 9071TIP3   OH248703   6.711   0.706  17.065  0.0963 -0.4368  0.1944
 9071TIP3    H148704   6.788   0.714  17.009 -0.6030  1.3289 -0.5600
 9071TIP3    H248705   6.668   0.625  17.036  1.6488 -1.4430  0.6340
 9072TIP3   OH248706   1.186   0.101   0.233 -0.3525 -0.0753 -0.0575
 9072TIP3    H148707   1.189   0.109   0.138 -0.7539  0.5965 -0.0170
 9072TIP3    H248708   1.122   0.166   0.260  1.7480  1.6349  0.9070
 9073TIP3   OH248709   2.200   0.333   2.765  0.4773  0.4796  0.2819
 9073TIP3    H148710   2.185   0.320   2.671  0.8001 -0.8544  0.4025
 9073TIP3    H248711   2.188   0.427   2.778 -0.7584  0.5079 -0.8821
 9074TIP3   OH248712   1.394   2.334  11.511 -0.6371 -0.8291 -0.0761
 9074TIP3    H148713   1.352   2.337  11.425 -0.5499 -0.9961 -0.1246
 9074TIP3    H248714   1.322   2.331  11.573 -0.7007 -0.6944 -0.1431
 9075TIP3   OH248715   4.906   2.823   5.631  0.1415 -0.0985  0.2331
 9075TIP3    H148716   4.948   2.738   5.646 -0.1541  0.0690  2.0764
 9075TIP3    H248717   4.847   2.834   5.705 -0.6749  1.2131 -0.5939
 9076TIP3   OH248718   6.756   3.029  12.442  0.0051 -0.1779  0.2730
 9076TIP3    H148719   6.742   3.105  12.498  0.1257  0.2937 -0.3345
 9076TIP3    H248720   6.841   2.994  12.470  0.1694  0.1891  0.2308
 9077TIP3   OH248721   1.165   3.092  16.538  0.3357  0.0748 -0.3781
 9077TIP3    H148722   1.236   3.071  16.477  0.8715 -0.6758  0.4988
 9077TIP3    H248723   1.166   3.187  16.544  0.3677  0.1502 -1.4298
 9078TIP3   OH248724   1.640   0.092   3.755 -0.0580 -0.1120 -0.6463
 9078TIP3    H148725   1.686   0.027   3.808  1.9227  0.8839 -1.1112
 9078TIP3    H248726   1.597   0.041   3.686  0.9668 -0.9728 -0.6529
 9079TIP3   OH248727   0.270   0.966  13.219  0.4499  0.2288  0.0659
 9079TIP3    H148728   0.361   0.994  13.217  0.9962 -1.5160  0.1474
 9079TIP3    H248729   0.224   1.038  13.264  1.8568  0.8655  0.5077
 9080TIP3   OH248730   6.573   5.932   5.667 -0.4524 -0.4346  0.2716
 9080TIP3    H148731   6.501   5.986   5.633  1.2594  2.0915  0.4699
 9080TIP3    H248732   6.543   5.901   5.752 -1.8049 -0.4717 -0.2178
 9081TIP3   OH248733   1.938   2.346  12.111 -0.0402 -0.0354  0.2165
 9081TIP3    H148734   1.924   2.435  12.078 -0.4648 -0.0496  0.3552
 9081TIP3    H248735   1.883   2.291  12.056  1.4246 -0.4264 -0.9146
 9082TIP3   OH248736   4.272   6.577  14.570 -0.6649 -0.1586  0.3998
 9082TIP3    H148737   4.262   6.672  14.564 -0.7714 -0.2593 -1.5587
 9082TIP3    H248738   4.354   6.565  14.617  0.5190  0.9677 -1.3055
 9083TIP3   OH248739   0.620   1.040   5.722 -0.1070 -0.1937 -0.4346
 9083TIP3    H148740   0.656   0.976   5.783 -0.4303 -2.0239 -2.1266
 9083TIP3    H248741   0.695   1.065   5.667  0.0638  1.0565  0.3392
 9084TIP3   OH248742   1.663   1.690   4.307  0.2329 -0.1600 -0.0175
 9084TIP3    H148743   1.748   1.684   4.351  0.3872  0.7031 -0.1920
 9084TIP3    H248744   1.676   1.648   4.222  0.1629 -1.0815  0.4266
 9085TIP3   OH248745   0.065   0.713   2.891 -0.0105  0.3635 -0.1658
 9085TIP3    H148746   0.101   0.724   2.803 -1.4851 -1.0084 -0.9642
 9085TIP3    H248747   0.120   0.645   2.931 -0.0595  0.1507 -0.4555
 9086TIP3   OH248748   6.769   4.794  11.209  0.2604 -0.5379 -0.0712
 9086TIP3    H148749   6.712   4.744  11.150  0.8075 -1.8573  0.4996
 9086TIP3    H248750   6.844   4.818  11.154  0.4350 -1.1522 -0.1092
 9087TIP3   OH248751   6.373   1.687   3.868  0.1052  0.2495  0.1676
 9087TIP3    H148752   6.346   1.601   3.834  2.4187 -0.6073  0.4180
 9087TIP3    H248753   6.293   1.725   3.903 -1.1285 -1.4321 -0.7580
 9088TIP3   OH248754   3.253   0.908  15.738 -0.6905 -0.3285  0.3583
 9088TIP3    H148755   3.303   0.942  15.812  0.3172  0.0426 -0.4844
 9088TIP3    H248756   3.245   0.982  15.678 -0.5814 -0.9147 -0.3862
 9089TIP3   OH248757   5.930   0.430   2.331 -0.2181  0.0264  0.1465
 9089TIP3    H148758   5.848   0.444   2.379 -1.0213 -0.7572 -0.9908
 9089TIP3    H248759   5.934   0.503   2.269 -0.1499 -0.0366  0.0770
 9090TIP3   OH248760   3.026   4.802  16.562 -0.9769 -0.1312  0.4490
 9090TIP3    H148761   3.090   4.820  16.631 -1.3159  0.6516  0.5673
 9090TIP3    H248762   3.017   4.707  16.561  2.0277 -0.4637 -1.2119
 9091TIP3   OH248763   0.203   0.813  11.195 -0.7201  0.2258  0.2373
 9091TIP3    H148764   0.180   0.770  11.113  0.2572 -0.9394  0.5655
 9091TIP3    H248765   0.202   0.743  11.260 -0.9701  1.0514  1.1276
 9092TIP3   OH248766   3.955   0.465  14.179 -0.1873  0.0866 -0.2978
 9092TIP3    H148767   3.960   0.390  14.120 -0.4941  0.2358 -0.5122
 9092TIP3    H248768   3.894   0.437  14.248  1.7843 -0.8911  1.1086
 9093TIP3   OH248769   2.278   2.563  13.969  0.8854  0.2702 -0.9249
 9093TIP3    H148770   2.227   2.482  13.973 -0.0213  0.9298  1.8653
 9093TIP3    H248771   2.225   2.623  13.918 -0.5189  0.4946  0.7578
 9094TIP3   OH248772   3.280   6.067   3.959 -0.0982  0.3543  0.4901
 9094TIP3    H148773   3.370   6.072   3.928  0.2008  0.7345  1.4229
 9094TIP3    H248774   3.265   5.975   3.978 -0.1500  0.1771 -0.3743
 9095TIP3   OH248775   6.647   0.611  16.310 -0.5783  0.4700 -0.1744
 9095TIP3    H148776   6.624   0.536  16.365 -0.1029 -0.8314 -1.7153
 9095TIP3    H248777   6.728   0.645  16.347 -0.0754 -0.6148 -0.2885
 9096TIP3   OH248778   4.749   5.924   4.046  0.2965 -0.2845 -0.2154
 9096TIP3    H148779   4.774   5.998   4.102  1.8694 -1.3759  0.5699
 9096TIP3    H248780   4.735   5.852   4.108 -1.5010 -0.5780 -0.9461
 9097TIP3   OH248781   0.003   5.405   4.704 -0.2342 -0.5049  0.3019
 9097TIP3    H148782   0.076   5.347   4.682  0.8482 -0.0040  2.4889
 9097TIP3    H248783  -0.066   5.346   4.733 -0.9017 -1.0154 -2.2131
 9098TIP3   OH248784   2.647   3.549   1.833 -0.3300  0.1997 -0.0754
 9098TIP3    H148785   2.736   3.524   1.856  0.1625  1.2779 -0.8048
 9098TIP3    H248786   2.609   3.470   1.795  0.4304 -0.1455 -0.1271
 9099TIP3   OH248787   1.716   1.499  17.023 -0.1333 -0.4559 -0.2718
 9099TIP3    H148788   1.711   1.493  16.928  0.0955 -0.4227 -0.2871
 9099TIP3    H248789   1.664   1.425  17.055  1.6831 -1.8608 -0.4439
 9100TIP3   OH248790   3.542   6.327  12.010 -0.1389 -0.4006 -0.4738
 9100TIP3    H148791   3.542   6.310  11.916  0.3213 -1.1573 -0.3453
 9100TIP3    H248792   3.601   6.402  12.021  0.3148 -0.7158 -0.7254
 9101TIP3   OH248793   2.919   0.420  13.616  0.3855 -0.4058 -0.1886
 9101TIP3    H148794   2.853   0.350  13.621 -0.2474  0.1288 -0.9094
 9101TIP3    H248795   2.969   0.411  13.698 -0.0363 -1.3518 -0.0218
 9102TIP3   OH248796   5.580   6.775   4.723  0.0480  0.2179 -0.1738
 9102TIP3    H148797   5.602   6.685   4.744  2.4651  0.5208 -1.2010
 9102TIP3    H248798   5.576   6.820   4.807  1.3612 -0.3274  0.1888
 9103TIP3   OH248799   2.214   1.110   1.679  0.0111 -0.1648 -0.2432
 9103TIP3    H148800   2.122   1.133   1.666  0.5232  2.7625  0.8325
 9103TIP3    H248801   2.252   1.115   1.591 -0.0192  2.8601 -0.1434
 9104TIP3   OH248802   1.655   6.813  14.023  0.4100  0.0634  0.6290
 9104TIP3    H148803   1.702   6.732  14.042 -0.9813 -1.4588 -2.0363
 9104TIP3    H248804   1.679   6.834  13.933 -0.5020  1.7237  0.7480
 9105TIP3   OH248805   2.863   0.542   4.124 -0.1209 -0.3002 -0.4558
 9105TIP3    H148806   2.883   0.620   4.177  1.0034  0.7052 -2.3098
 9105TIP3    H248807   2.774   0.557   4.093  0.0083  0.1545 -0.6201
 9106TIP3   OH248808   0.401   1.549  10.701 -0.2650  0.3435  1.0380
 9106TIP3    H148809   0.314   1.513  10.686 -0.1107  0.2594  0.2839
 9106TIP3    H248810   0.410   1.618  10.635  0.6316 -0.3439  0.4198
 9107TIP3   OH248811   1.459   0.477  12.118 -0.8385  0.2879  0.1239
 9107TIP3    H148812   1.537   0.440  12.160  0.5799  0.9048 -1.8581
 9107TIP3    H248813   1.399   0.496  12.190  0.7072 -0.5280  1.6593
 9108TIP3   OH248814   2.842   3.821  15.492 -0.3209 -0.3098  0.0849
 9108TIP3    H148815   2.921   3.872  15.510  0.8206 -1.9605 -0.2033
 9108TIP3    H248816   2.785   3.882  15.446  1.6151  0.2941 -1.6006
 9109TIP3   OH248817   0.050   1.530   3.877 -0.4254  0.3193  0.3331
 9109TIP3    H148818   0.055   1.507   3.970 -0.1324  0.0228  0.2462
 9109TIP3    H248819   0.120   1.479   3.836  0.3243  1.4618  0.1592
 9110TIP3   OH248820   3.454   2.039  15.631  0.3688  0.0540 -0.2864
 9110TIP3    H148821   3.524   2.094  15.595  0.4924  0.2277  0.2021
 9110TIP3    H248822   3.402   2.099  15.685  0.8477 -0.4232  0.7143
 9111TIP3   OH248823   3.515   2.488  15.961 -0.3233  0.8162  0.7315
 9111TIP3    H148824   3.535   2.395  15.947 -2.5161  0.3250  0.5597
 9111TIP3    H248825   3.495   2.521  15.873  0.9268  1.5754  0.7284
 9112TIP3   OH248826   5.927   1.011  17.234  0.7751 -0.4029  0.4748
 9112TIP3    H148827   5.841   1.052  17.234 -0.1765 -2.3139 -0.4080
 9112TIP3    H248828   5.988   1.082  17.214 -0.5770  0.9919  1.2430
 9113TIP3   OH248829   5.468   1.258   4.088 -0.5748  0.0173 -0.2346
 9113TIP3    H148830   5.537   1.247   4.154 -0.8437  0.2418  0.0880
 9113TIP3    H248831   5.499   1.330   4.033 -0.5143  0.0644 -0.1391
 9114TIP3   OH248832   3.981   0.988  13.361 -0.0413 -0.2371 -0.0800
 9114TIP3    H148833   3.974   1.077  13.326 -0.5808  0.1521  1.0171
 9114TIP3    H248834   4.006   0.935  13.285  1.3846  1.0225 -0.5110
 9115TIP3   OH248835   3.372   6.377   4.937  0.0023  0.6410 -0.3783
 9115TIP3    H148836   3.315   6.413   4.868 -0.2392 -0.3128 -0.6854
 9115TIP3    H248837   3.351   6.284   4.939  2.2922  0.0591 -1.2272
 9116TIP3   OH248838   5.494   3.460  11.270  0.5025  0.1237 -0.5530
 9116TIP3    H148839   5.501   3.380  11.218  0.3142  0.6444 -1.3964
 9116TIP3    H248840   5.571   3.512  11.244 -0.4267  1.0511 -1.4802
 9117TIP3   OH248841   2.591   6.081  14.399 -0.1210  0.4142 -0.3883
 9117TIP3    H148842   2.540   6.040  14.469 -1.1484  0.1808 -1.2485
 9117TIP3    H248843   2.680   6.049  14.412 -0.1587  0.8622  1.1730
 9118TIP3   OH248844   2.622   0.933   4.713 -0.1005  0.0457 -0.0612
 9118TIP3    H148845   2.635   0.990   4.637 -0.0489 -0.9849 -0.8357
 9118TIP3    H248846   2.703   0.941   4.764 -1.0470  2.5419  1.1191
 9119TIP3   OH248847   5.298   2.994   4.115 -0.1846  0.5171 -0.3651
 9119TIP3    H148848   5.223   2.986   4.056 -0.8699  0.6613  0.4765
 9119TIP3    H248849   5.359   2.926   4.085 -1.5780 -1.0628  0.3063
 9120TIP3   OH248850   6.283   0.677   6.755  0.5237  0.3956  0.0573
 9120TIP3    H148851   6.359   0.624   6.777  0.4791 -0.2681 -1.3293
 9120TIP3    H248852   6.241   0.630   6.683 -1.4231  0.5433  1.0501
 9121TIP3   OH248853   2.877   6.260   2.099 -0.1392  0.0969 -0.0131
 9121TIP3    H148854   2.962   6.304   2.099 -1.0285  1.8614 -1.6231
 9121TIP3    H248855   2.815   6.326   2.129 -1.2094 -0.6472 -0.5442
 9122TIP3   OH248856   1.826   2.148   1.756 -0.5407  0.6960  0.0786
 9122TIP3    H148857   1.872   2.100   1.825 -0.5073  0.5303 -0.0565
 9122TIP3    H248858   1.850   2.240   1.770 -1.0996  0.7475  0.7157
 9123TIP3   OH248859   6.035   0.086   1.990  0.3999  0.7218 -0.1348
 9123TIP3    H148860   5.955   0.116   1.947 -0.3357 -0.8916  0.0701
 9123TIP3    H248861   6.033   0.129   2.076 -0.5993  0.1740  0.1270
 9124TIP3   OH248862   3.424   5.965   0.791  0.0306 -0.1819 -0.0989
 9124TIP3    H148863   3.433   5.954   0.885  0.1873  0.0187 -0.0874
 9124TIP3    H248864   3.484   5.901   0.753  2.4327  1.9191  0.0016
 9125TIP3   OH248865   0.200   3.918  13.151  0.6890  0.4230  0.1436
 9125TIP3    H148866   0.160   3.837  13.181  1.3588  0.4216  1.0580
 9125TIP3    H248867   0.248   3.894  13.072 -3.3739  0.9517 -2.6828
 9126TIP3   OH248868   5.199   4.478   4.407  0.4939 -0.5227  0.0329
 9126TIP3    H148869   5.157   4.456   4.490  0.6909 -2.1310 -0.2794
 9126TIP3    H248870   5.130   4.522   4.356 -0.3042 -1.5945  0.1759
 9127TIP3   OH248871   3.119   3.438   3.123 -0.3852 -0.2558  0.2685
 9127TIP3    H148872   3.180   3.424   3.195  0.8199  1.1794 -0.4477
 9127TIP3    H248873   3.170   3.418   3.045 -0.7697  1.1002 -0.3401
 9128TIP3   OH248874   5.295   4.257   4.309 -0.5552 -0.0966  0.2260
 9128TIP3    H148875   5.215   4.207   4.295 -0.7736 -0.2803  2.0462
 9128TIP3    H248876   5.266   4.348   4.317 -0.3990  0.0441 -0.6490
 9129TIP3   OH248877   1.860   2.619  11.956 -0.2485  0.5491  0.0718
 9129TIP3    H148878   1.770   2.651  11.953 -0.2666  0.5002  0.1090
 9129TIP3    H248879   1.887   2.613  11.864 -0.3535  0.3600  0.0544
 9130TIP3   OH248880   0.772   0.666   3.090  0.3931  0.3831  0.7321
 9130TIP3    H148881   0.859   0.697   3.116  0.3415  0.5058  0.7598
 9130TIP3    H248882   0.785   0.630   3.002  0.0482  2.3870 -0.1706
 9131TIP3   OH248883   5.152   2.340   5.573  0.3321 -0.7408  0.3182
 9131TIP3    H148884   5.099   2.328   5.652 -1.9917  0.4779 -0.9573
 9131TIP3    H248885   5.140   2.259   5.524 -2.3590  0.3939 -1.0293
 9132TIP3   OH248886   4.863   2.870  12.484  0.2225  0.5534 -0.3359
 9132TIP3    H148887   4.782   2.823  12.504  1.3392 -1.1597  0.3241
 9132TIP3    H248888   4.900   2.823  12.409  2.3986 -1.0043  1.6290
 9133TIP3   OH248889   0.440   0.020   1.459 -0.1630  0.0929  0.5004
 9133TIP3    H148890   0.461   0.076   1.533 -0.3941  0.8083  0.0298
 9133TIP3    H248891   0.470   0.069   1.382 -1.0571 -0.0896  0.0257
 9134TIP3   OH248892   6.123   4.920   6.367 -0.2436 -0.1209 -0.0340
 9134TIP3    H148893   6.118   4.831   6.404  0.5811  0.2412  0.9679
 9134TIP3    H248894   6.080   4.913   6.282 -0.7262 -1.3482  0.3001
 9135TIP3   OH248895   0.276   2.785  14.979  0.2790  0.0595 -0.3265
 9135TIP3    H148896   0.203   2.829  14.934  1.2089 -0.6998 -2.6586
 9135TIP3    H248897   0.236   2.745  15.056 -1.0491  2.8692  0.4902
 9136TIP3   OH248898   5.461   5.257   2.401  0.1221  0.0066  0.5398
 9136TIP3    H148899   5.466   5.334   2.344 -1.1971 -1.0801 -1.1012
 9136TIP3    H248900   5.536   5.204   2.376 -0.7682 -0.7369 -0.6451
 9137TIP3   OH248901   3.544   3.357  15.241 -0.1413 -0.0126  0.2847
 9137TIP3    H148902   3.588   3.414  15.304  0.1596  0.9314 -0.7677
 9137TIP3    H248903   3.497   3.417  15.183 -0.7182 -0.8972 -0.1770
 9138TIP3   OH248904   5.772   4.778   0.054 -0.2254  0.3155  0.3085
 9138TIP3    H148905   5.859   4.812   0.074 -0.1795  1.5238 -1.8523
 9138TIP3    H248906   5.780   4.739  -0.032 -1.3093 -1.5387  1.0317
 9139TIP3   OH248907   4.121   6.052   5.599 -0.2801  0.0990  0.0781
 9139TIP3    H148908   4.056   6.086   5.538 -0.5875  0.1082  0.4122
 9139TIP3    H248909   4.087   5.966   5.625  0.0173 -0.0523 -0.0215
 9140TIP3   OH248910   5.006   1.706  12.869  0.2326  0.5842  0.1672
 9140TIP3    H148911   4.911   1.705  12.874  0.1792  0.8028 -0.6501
 9140TIP3    H248912   5.025   1.764  12.795  0.9706 -0.3842 -0.4154
 9141TIP3   OH248913   2.933   0.731  12.494 -0.0860  0.8191 -0.3513
 9141TIP3    H148914   2.866   0.756  12.558  1.6423  1.4244  1.2505
 9141TIP3    H248915   2.933   0.636  12.495 -0.0065  0.8280  0.6139
 9142TIP3   OH248916   2.558   1.399   5.291 -0.1239 -0.2278  0.6464
 9142TIP3    H148917   2.464   1.410   5.307 -0.2562 -0.8101  0.3188
 9142TIP3    H248918   2.583   1.325   5.346  0.2644  0.2695  1.1451
 9143TIP3   OH248919   0.359   1.190  12.996 -0.4671  0.6476  0.1792
 9143TIP3    H148920   0.364   1.274  12.951 -0.4100 -0.2967 -1.6132
 9143TIP3    H248921   0.295   1.139  12.945  0.5347 -0.8883  0.4111
 9144TIP3   OH248922   6.383   4.652  15.795  0.5141  0.3071  1.4907
 9144TIP3    H148923   6.325   4.652  15.872 -0.2794  0.8843  0.9080
 9144TIP3    H248924   6.417   4.563  15.790 -0.9858 -0.2629  1.3458
 9145TIP3   OH248925   5.857   6.583   0.878 -0.0668  0.1392 -0.6111
 9145TIP3    H148926   5.832   6.664   0.835 -2.1005  0.0380  0.2834
 9145TIP3    H248927   5.828   6.594   0.969  2.1189 -0.5102  0.1941
 9146TIP3   OH248928   5.888   1.299   2.323 -0.1359 -0.0643  0.0438
 9146TIP3    H148929   5.893   1.224   2.263  0.6697  0.2442 -0.2777
 9146TIP3    H248930   5.859   1.261   2.406 -0.5388 -0.6093 -0.3403
 9147TIP3   OH248931   0.073   2.341   1.215 -0.2267  0.3165 -0.2982
 9147TIP3    H148932   0.137   2.277   1.183 -0.6917 -1.0366  1.3907
 9147TIP3    H248933   0.013   2.289   1.268 -2.3696  1.6769 -1.3313
 9148TIP3   OH248934   5.964   6.522  13.483  0.0444  0.2737  1.0991
 9148TIP3    H148935   6.015   6.449  13.518 -0.6565 -0.4548  0.6353
 9148TIP3    H248936   6.029   6.589  13.461  0.9011 -0.9623 -0.2588
 9149TIP3   OH248937   4.800   4.569  16.182  0.2729 -0.0037  0.3124
 9149TIP3    H148938   4.714   4.597  16.214  0.8819  1.0963  1.0258
 9149TIP3    H248939   4.813   4.621  16.102  0.1440 -0.3971  0.0326
 9150TIP3   OH248940   1.203   2.228   2.413 -0.0533  1.1170 -0.1018
 9150TIP3    H148941   1.215   2.278   2.494 -1.0068 -0.4568  1.0462
 9150TIP3    H248942   1.120   2.182   2.426  0.5422 -0.3347 -1.3324
 9151TIP3   OH248943   4.872   3.513   5.810  0.1678 -0.0003  0.0434
 9151TIP3    H148944   4.833   3.566   5.880  1.1712 -0.7613  1.2035
 9151TIP3    H248945   4.962   3.498   5.839  0.4773 -0.6535 -1.2407
 9152TIP3   OH248946   3.891   0.605  16.869 -0.4806  0.3154 -0.4003
 9152TIP3    H148947   3.896   0.632  16.777  1.3921  0.2442 -0.3355
 9152TIP3    H248948   3.836   0.526  16.867  0.5718 -0.4189 -1.6395
 9153TIP3   OH248949   2.333   3.562   4.693  0.1881 -0.2907  0.3134
 9153TIP3    H148950   2.269   3.575   4.623  0.7664 -1.4713 -0.4456
 9153TIP3    H248951   2.413   3.603   4.660  0.0605  0.4751  0.9275
 9154TIP3   OH248952   0.824   2.560  10.725 -0.0606 -0.4480  0.0384
 9154TIP3    H148953   0.885   2.549  10.797  1.0517  3.4625 -0.1940
 9154TIP3    H248954   0.876   2.544  10.646  0.3845  1.5509 -0.1034
 9155TIP3   OH248955   3.938   2.829  13.447 -0.5110  0.4353  0.1271
 9155TIP3    H148956   3.842   2.835  13.448 -0.5193  0.2816  0.3066
 9155TIP3    H248957   3.958   2.751  13.499 -0.2038  1.6176  1.7971
 9156TIP3   OH248958   4.347   4.823   1.261 -0.1286  0.3088 -0.3798
 9156TIP3    H148959   4.257   4.844   1.235 -0.2402 -0.1353 -0.3608
 9156TIP3    H248960   4.399   4.898   1.231 -0.7451  1.3716  1.1662
 9157TIP3   OH248961   2.874   5.792   4.930  0.1709 -0.5162 -0.4913
 9157TIP3    H148962   2.893   5.774   5.022  0.4786 -0.4453 -0.5416
 9157TIP3    H248963   2.928   5.730   4.882  0.7025  0.0600 -0.6454
 9158TIP3   OH248964   2.689   2.830  14.392  0.5147 -0.2490  0.3790
 9158TIP3    H148965   2.664   2.742  14.417  0.4285 -0.0105  1.1372
 9158TIP3    H248966   2.748   2.818  14.317 -0.5203 -0.8803 -0.3506
 9159TIP3   OH248967   2.517   1.350  16.069  0.2312 -0.0150 -0.4158
 9159TIP3    H148968   2.563   1.359  15.985 -0.4458 -0.2808 -0.8197
 9159TIP3    H248969   2.468   1.268  16.061 -1.9551  1.2901 -0.7977
 9160TIP3   OH248970   5.141   2.741  13.233  0.8852  0.1817  0.7145
 9160TIP3    H148971   5.182   2.762  13.317  0.7615 -0.6608  0.9853
 9160TIP3    H248972   5.139   2.825  13.186  1.8932  0.4465  1.1408
 9161TIP3   OH248973   2.587   5.409  17.217  0.1303 -0.0392 -0.1823
 9161TIP3    H148974   2.626   5.386  17.133  0.6203 -1.4624  0.4284
 9161TIP3    H248975   2.532   5.334  17.239  1.3654 -0.4399  1.6072
 9162TIP3   OH248976   1.562   2.198   3.625 -0.4256  0.3061  0.3530
 9162TIP3    H148977   1.539   2.180   3.715 -0.8112 -0.4435  0.1016
 9162TIP3    H248978   1.493   2.256   3.593 -1.3057 -0.9336 -0.0219
 9163TIP3   OH248979   4.869   1.995  13.071 -0.2346 -0.7810 -0.1557
 9163TIP3    H148980   4.891   2.070  13.125 -0.0435  0.2785 -1.6836
 9163TIP3    H248981   4.807   1.945  13.124 -0.3415  0.4365  0.8831
 9164TIP3   OH248982   4.381   1.620   5.293  0.5266  0.0322 -0.0241
 9164TIP3    H148983   4.384   1.667   5.210  2.1780 -1.3649 -0.7794
 9164TIP3    H248984   4.322   1.673   5.348 -0.8014  0.8343 -2.1353
 9165TIP3   OH248985   5.918   5.530   2.163 -0.7797 -0.0230  0.2350
 9165TIP3    H148986   5.850   5.574   2.214 -0.4676 -0.3304  0.9301
 9165TIP3    H248987   5.927   5.444   2.204  1.2471  0.6366  1.2735
 9166TIP3   OH248988   4.465   6.716   4.631 -0.1377  0.3068 -0.0361
 9166TIP3    H148989   4.417   6.635   4.646 -1.0219  0.8068 -0.1631
 9166TIP3    H248990   4.504   6.736   4.717  2.3911 -1.7073 -0.6511
 9167TIP3   OH248991   6.286   2.520  10.840  0.2713 -0.0320 -0.3643
 9167TIP3    H148992   6.207   2.473  10.816  0.3909 -0.0116 -0.8079
 9167TIP3    H248993   6.265   2.562  10.923  0.4785 -1.6345  0.5260
 9168TIP3   OH248994   6.779   0.585  11.309  0.2236  0.7172 -0.7145
 9168TIP3    H148995   6.751   0.613  11.222 -0.0599  1.4756 -0.3857
 9168TIP3    H248996   6.698   0.579  11.359  0.3019 -0.5759 -0.7440
 9169TIP3   OH248997   3.243   1.507  13.868 -0.6758  0.1438 -0.4018
 9169TIP3    H148998   3.330   1.544  13.860  0.4252 -2.2209  0.0373
 9169TIP3    H248999   3.242   1.467  13.955 -1.3558 -1.8503 -1.2879
 9170TIP3   OH249000   2.751   0.994  11.060 -0.8594 -0.5104  0.1132
 9170TIP3    H149001   2.845   0.985  11.050 -0.6100  0.8056  1.1732
 9170TIP3    H249002   2.717   0.986  10.971  0.5783  2.5070 -0.7724
 9171TIP3   OH249003   6.627   6.151  12.522  0.3433  0.2460  0.1340
 9171TIP3    H149004   6.628   6.175  12.615  0.7581  0.7161  0.0144
 9171TIP3    H249005   6.549   6.194  12.488  1.4524  2.0305 -0.2257
 9172TIP3   OH249006   5.525   4.266   1.202  0.1128  0.0983 -0.2642
 9172TIP3    H149007   5.500   4.313   1.122 -0.5804  0.9663  0.4605
 9172TIP3    H249008   5.581   4.195   1.171  1.0086  1.2717 -1.3939
 9173TIP3   OH249009   5.833   0.085  17.275  0.8747 -0.2912 -0.8236
 9173TIP3    H149010   5.834   0.019  17.344 -0.9475  0.3975 -0.1270
 9173TIP3    H249011   5.803   0.038  17.197  4.8267 -1.5460 -1.7044
 9174TIP3   OH249012   0.883   3.501   2.712 -0.1813  0.1259  0.4509
 9174TIP3    H149013   0.866   3.522   2.804 -0.9984 -1.5072  0.6919
 9174TIP3    H249014   0.817   3.435   2.690 -0.3138  0.8707 -1.4589
 9175TIP3   OH249015   2.755   5.271   5.898  0.0848  0.0628 -0.1564
 9175TIP3    H149016   2.844   5.252   5.867  0.4503  1.8034 -0.2288
 9175TIP3    H249017   2.763   5.276   5.993 -0.2647 -1.4068 -0.0458
 9176TIP3   OH249018   1.459   2.202   4.269  0.2056  0.1106  0.0490
 9176TIP3    H149019   1.501   2.288   4.278 -2.7711  1.4802  1.8545
 9176TIP3    H249020   1.410   2.191   4.351 -2.0550 -1.8151 -1.5005
 9177TIP3   OH249021   5.925   4.019   1.824 -0.1226  0.4573 -0.2309
 9177TIP3    H149022   5.868   3.993   1.752  0.5233 -0.1413 -0.5302
 9177TIP3    H249023   6.011   4.029   1.784  1.1964 -4.1209  1.1836
 9178TIP3   OH249024   5.929   6.122  15.591 -0.1097  0.2383  0.5525
 9178TIP3    H149025   5.928   6.168  15.507  0.4608  0.3957  0.6252
 9178TIP3    H249026   5.923   6.029  15.568  1.4214  0.1957  0.2533
 9179TIP3   OH249027   0.456   2.712   6.078 -0.1408  0.1760  0.4506
 9179TIP3    H149028   0.495   2.641   6.026 -1.6123 -0.7029  0.5395
 9179TIP3    H249029   0.507   2.790   6.053  1.7252 -0.9558  0.6327
 9180TIP3   OH249030   1.506   3.196  14.880  0.1088  0.0729 -0.0873
 9180TIP3    H149031   1.578   3.212  14.819  0.5774  1.1004  0.7221
 9180TIP3    H249032   1.514   3.265  14.946 -1.2883 -0.1384  0.3203
 9181TIP3   OH249033   1.384   3.169   5.860  0.0564  0.0155 -0.1323
 9181TIP3    H149034   1.478   3.160   5.844 -0.1703 -2.3607 -0.4284
 9181TIP3    H249035   1.372   3.135   5.949 -0.5326  0.1625 -0.1551
 9182TIP3   OH249036   4.141   0.905  15.600 -0.3376 -0.2332 -0.1103
 9182TIP3    H149037   4.138   0.955  15.519 -3.1560  0.5077  0.4179
 9182TIP3    H249038   4.195   0.828  15.579 -0.3650  0.3671 -2.4164
 9183TIP3   OH249039   1.251   4.648   5.404 -0.2809 -0.4402 -0.3458
 9183TIP3    H149040   1.295   4.729   5.431  1.2577 -0.9252 -1.3023
 9183TIP3    H249041   1.176   4.678   5.352  0.9295  0.4007 -1.6706
 9184TIP3   OH249042   5.324   6.659   1.796 -0.5853 -0.1919  0.5552
 9184TIP3    H149043   5.394   6.674   1.859 -0.2080 -0.2245  0.1419
 9184TIP3    H249044   5.348   6.578   1.751  0.6932  1.3810 -1.7123
 9185TIP3   OH249045   6.666   5.538  12.221  0.0420  0.1031  0.4532
 9185TIP3    H149046   6.574   5.550  12.198  0.3709 -0.1220 -1.0192
 9185TIP3    H249047   6.710   5.524  12.137  1.4362  0.3355  1.1365
 9186TIP3   OH249048   2.027   5.353  13.270 -0.3215 -0.0957 -0.2597
 9186TIP3    H149049   1.997   5.272  13.228 -0.6384 -0.0604 -0.1050
 9186TIP3    H249050   2.117   5.334  13.296  0.9767  0.9658 -3.7881
 9187TIP3   OH249051   6.748   6.069   6.054 -0.5778 -0.3828 -0.0470
 9187TIP3    H149052   6.680   6.043   6.115 -0.3664  1.0689  0.8334
 9187TIP3    H249053   6.754   6.165   6.063  0.0303 -0.2345 -1.7209
 9188TIP3   OH249054   4.312   1.654   2.622 -0.1465  0.4166 -0.2177
 9188TIP3    H149055   4.246   1.703   2.574 -1.4210 -1.2498 -0.2383
 9188TIP3    H249056   4.359   1.604   2.554  0.3518  0.6848 -0.0765
 9189TIP3   OH249057   0.486   4.869   3.583  0.3129 -0.5885 -0.2633
 9189TIP3    H149058   0.550   4.897   3.649  0.7634 -1.0144 -0.5190
 9189TIP3    H249059   0.401   4.893   3.621  0.6466  0.4572 -0.1549
 9190TIP3   OH249060   0.586   1.509   2.798 -0.7915 -0.2750  0.3233
 9190TIP3    H149061   0.637   1.555   2.731 -2.0479  0.5431 -0.1021
 9190TIP3    H249062   0.648   1.492   2.868 -0.0238  1.0507 -0.0136
 9191TIP3   OH249063   2.197   5.356  12.877 -0.6169  0.0292 -0.1206
 9191TIP3    H149064   2.128   5.319  12.821 -1.2341 -1.3818  1.5229
 9191TIP3    H249065   2.262   5.286  12.882 -0.3785  0.3032  0.5714
 9192TIP3   OH249066   5.689   2.737  11.530  0.0645  0.3003 -0.2460
 9192TIP3    H149067   5.752   2.681  11.484 -1.5407 -1.4704 -0.3286
 9192TIP3    H249068   5.695   2.709  11.621 -0.6195  0.1072 -0.2587
 9193TIP3   OH249069   2.121   1.630   0.266  0.1308 -0.0223 -0.8895
 9193TIP3    H149070   2.165   1.655   0.185  0.8587  2.8546  0.2906
 9193TIP3    H249071   2.028   1.642   0.249  0.4194  3.1936 -0.5717
 9194TIP3   OH249072   1.800   5.711   2.379 -0.2918 -0.4189  0.5326
 9194TIP3    H149073   1.708   5.707   2.351 -0.8106 -2.4737  2.3760
 9194TIP3    H249074   1.809   5.797   2.419 -0.9674  0.4430 -1.1210
 9195TIP3   OH249075   0.008   0.993   3.447 -0.0690 -0.3252 -0.9310
 9195TIP3    H149076  -0.071   1.040   3.422 -1.1798 -1.7193 -0.1934
 9195TIP3    H249077  -0.019   0.940   3.523  1.6402 -0.6285 -0.5012
 9196TIP3   OH249078   6.775   0.227  15.717  0.0044  0.3720 -0.4366
 9196TIP3    H149079   6.843   0.292  15.737  0.3436 -0.0087 -0.3459
 9196TIP3    H249080   6.808   0.146  15.754 -1.0506  0.4203  0.6374
 9197TIP3   OH249081   4.398   5.034   4.027  0.0181  0.3759 -0.4845
 9197TIP3    H149082   4.337   5.024   4.100  1.6357  0.6979  0.9580
 9197TIP3    H249083   4.412   5.129   4.021  3.0424  0.1344  1.5292
 9198TIP3   OH249084   4.511   4.120   4.102  0.3026  0.4842 -0.5750
 9198TIP3    H149085   4.552   4.043   4.141  0.6684  0.7536 -0.4201
 9198TIP3    H249086   4.583   4.183   4.090 -0.3027  1.5180  1.0682
 9199TIP3   OH249087   3.129   0.201  13.513 -0.3664 -0.3312 -0.3789
 9199TIP3    H149088   3.172   0.285  13.496 -0.1252 -0.4916 -0.5674
 9199TIP3    H249089   3.040   0.225  13.539  0.1941  0.0557  1.2248
 9200TIP3   OH249090   4.089   2.166  13.793  0.4129 -0.5495 -0.2963
 9200TIP3    H149091   4.023   2.101  13.770 -0.4091  0.9854 -2.3889
 9200TIP3    H249092   4.099   2.156  13.888 -2.6906 -0.9456  0.0527
 9201TIP3   OH249093   5.684   0.275   3.903  0.2829 -0.6363  0.2906
 9201TIP3    H149094   5.648   0.328   3.975  0.1821 -1.1970  0.6640
 9201TIP3    H249095   5.731   0.337   3.848  0.1583 -0.1590  0.7164
 9202TIP3   OH249096   3.068   1.521   6.189  0.1085  0.5245  0.0024
 9202TIP3    H149097   3.114   1.445   6.154 -0.2555 -0.1890  1.0737
 9202TIP3    H249098   3.136   1.571   6.235  0.0896  0.1706  0.4169
 9203TIP3   OH249099   0.856   2.791  14.326  0.2738 -0.5511  0.1497
 9203TIP3    H149100   0.773   2.826  14.295  0.2172 -1.8520 -1.2326
 9203TIP3    H249101   0.920   2.819  14.260  0.7147 -0.6266  0.5398
 9204TIP3   OH249102   5.998   6.701   2.760  1.3100 -0.6068  0.2661
 9204TIP3    H149103   5.963   6.731   2.845  0.9990  0.8213 -0.3469
 9204TIP3    H249104   6.076   6.651   2.783  0.1168 -1.9474  1.5241
 9205TIP3   OH249105   1.698   0.581  16.675  0.2957 -0.1273 -0.4004
 9205TIP3    H149106   1.711   0.486  16.673 -0.4666 -0.2532  0.5591
 9205TIP3    H249107   1.756   0.612  16.744  1.1580  0.2165 -1.2581
 9206TIP3   OH249108   5.417   3.244   4.258  0.2271 -0.3299 -0.3378
 9206TIP3    H149109   5.510   3.240   4.236  0.3453  0.2351  0.0303
 9206TIP3    H249110   5.392   3.154   4.277  1.1925 -0.2139  1.5706
 9207TIP3   OH249111   2.127   1.510   3.993 -0.3730 -0.2221 -1.4593
 9207TIP3    H149112   2.122   1.440   4.058  0.7137  0.5292 -0.5448
 9207TIP3    H249113   2.139   1.465   3.910 -0.6508 -1.1542 -0.9979
 9208TIP3   OH249114   3.288   5.429  16.326 -0.2993 -0.0486 -0.2223
 9208TIP3    H149115   3.350   5.495  16.296 -0.4088 -1.8444 -4.7532
 9208TIP3    H249116   3.343   5.354  16.351 -0.4993 -0.8555 -2.1486
 9209TIP3   OH249117   1.655   4.018   0.945 -0.0857 -0.5654 -0.5407
 9209TIP3    H149118   1.575   4.021   0.997  0.3997 -0.9267  0.2392
 9209TIP3    H249119   1.723   3.994   1.007  0.8535  1.0163 -0.9339
 9210TIP3   OH249120   1.485   0.877  11.480 -0.3910 -0.6076 -0.9885
 9210TIP3    H149121   1.572   0.852  11.510 -0.0179 -0.3673 -1.8415
 9210TIP3    H249122   1.428   0.865  11.556  0.2688 -1.3897 -0.6120
 9211TIP3   OH249123   0.511   3.887  14.952 -0.0171  1.0166 -0.0440
 9211TIP3    H149124   0.422   3.854  14.937  0.6070 -0.5212 -0.4253
 9211TIP3    H249125   0.539   3.920  14.867 -0.0018  0.9492 -0.0659
 9212TIP3   OH249126   4.619   6.802  14.795  0.6450  0.4078  0.2024
 9212TIP3    H149127   4.709   6.779  14.821  0.6582  0.6648  0.3828
 9212TIP3    H249128   4.617   6.897  14.798  0.2497  0.3881  0.5978
 9213TIP3   OH249129   0.450   0.886   3.857  0.2165 -0.3810  0.1503
 9213TIP3    H149130   0.361   0.883   3.893  0.4045  0.4298  0.7092
 9213TIP3    H249131   0.442   0.850   3.769 -0.4754 -1.2777  0.5775
 9214TIP3   OH249132   1.948   6.007   3.260  0.2896 -0.0059  0.5083
 9214TIP3    H149133   1.885   5.989   3.330  0.5458  1.2618  1.0852
 9214TIP3    H249134   1.902   6.067   3.201  0.0680 -1.0864 -0.4405
 9215TIP3   OH249135   4.844   2.027   2.742  0.3436 -0.0737 -0.8531
 9215TIP3    H149136   4.843   2.036   2.838  1.7925  0.3218 -0.8698
 9215TIP3    H249137   4.760   1.985   2.721 -0.7485  1.3967  0.4380
 9216TIP3   OH249138   6.387   5.799  14.283 -0.3920 -0.2773  0.6075
 9216TIP3    H149139   6.375   5.747  14.363 -1.1494  1.2551  1.5076
 9216TIP3    H249140   6.479   5.788  14.261 -0.5707 -2.1370  0.6777
 9217TIP3   OH249141   5.035   0.192  16.104  0.5957 -0.3092 -0.3122
 9217TIP3    H149142   4.974   0.197  16.031 -4.0444 -2.8572  3.1186
 9217TIP3    H249143   5.020   0.273  16.154 -0.6618 -1.3162  0.9788
 9218TIP3   OH249144   0.454   4.173   5.000 -0.1486 -0.4814 -0.1971
 9218TIP3    H149145   0.415   4.226   4.930 -0.9821  0.7869  1.1999
 9218TIP3    H249146   0.460   4.233   5.074 -1.1970 -2.3836  1.4558
 9219TIP3   OH249147   0.205   5.363  10.900 -0.5412 -0.2226  0.1649
 9219TIP3    H149148   0.173   5.401  10.819  0.8008  0.4336 -0.0718
 9219TIP3    H249149   0.281   5.417  10.924  1.2869 -2.6008 -0.0792
 9220TIP3   OH249150   1.810   4.940  16.645 -1.0640 -0.8945  0.0432
 9220TIP3    H149151   1.879   4.877  16.664 -0.0620  0.6689  1.8542
 9220TIP3    H249152   1.823   5.010  16.710 -2.0715  1.2128 -1.9579
 9221TIP3   OH249153   5.274   0.021   2.544  0.2522 -0.0278  0.0186
 9221TIP3    H149154   5.341   0.088   2.528  0.3130 -0.1656 -0.3049
 9221TIP3    H249155   5.324  -0.055   2.573  0.5142 -1.0374 -2.8731
 9222TIP3   OH249156   6.554   2.838  15.690 -0.2779 -0.4479 -0.0899
 9222TIP3    H149157   6.572   2.928  15.662  0.3944 -0.8644 -1.0289
 9222TIP3    H249158   6.542   2.845  15.785  2.6387  0.2381  0.3027
 9223TIP3   OH249159   1.462   4.111   2.312 -0.0285 -0.1631  0.2323
 9223TIP3    H149160   1.396   4.180   2.322 -0.2608  0.0288 -2.4247
 9223TIP3    H249161   1.448   4.054   2.388 -2.4896  0.4838  0.3100
 9224TIP3   OH249162   4.129   1.209   3.976 -0.3363 -0.2517  0.7932
 9224TIP3    H149163   4.137   1.146   3.904 -1.3636  0.6598 -0.1279
 9224TIP3    H249164   4.052   1.181   4.024 -0.7241  0.2221  0.4535
 9225TIP3   OH249165   3.965   2.360   4.080 -0.0269 -0.5914 -0.0559
 9225TIP3    H149166   3.870   2.374   4.085  0.0750  0.3394 -0.5874
 9225TIP3    H249167   3.983   2.351   3.986  0.7724  1.9242 -0.1645
 9226TIP3   OH249168   2.100   4.492   5.879  0.2799 -0.0582 -0.1353
 9226TIP3    H149169   2.104   4.415   5.937  0.0579 -1.4773 -1.9463
 9226TIP3    H249170   2.191   4.511   5.859  0.4268  1.1998  1.6250
 9227TIP3   OH249171   3.334   2.689  12.185  0.5146 -0.1181 -0.2445
 9227TIP3    H149172   3.321   2.629  12.259 -1.2659 -1.4294 -1.5835
 9227TIP3    H249173   3.427   2.681  12.164  0.7955 -0.5898  1.1220
 9228TIP3   OH249174   6.194   5.133   2.750  0.5118 -0.1873 -0.8697
 9228TIP3    H149175   6.208   5.162   2.660  1.1364 -0.8856 -0.9961
 9228TIP3    H249176   6.174   5.040   2.742  0.6009 -0.2548 -0.2803
 9229TIP3   OH249177   2.484   3.121   0.981  0.2828 -0.3078  0.5107
 9229TIP3    H149178   2.487   3.154   1.071  2.8914  0.0936  0.3344
 9229TIP3    H249179   2.563   3.157   0.941 -1.3438  0.2901 -2.2310
 9230TIP3   OH249180   4.458   3.008   4.817  0.3492 -0.1570 -0.4093
 9230TIP3    H149181   4.478   2.936   4.757 -2.2276  0.0300 -1.5508
 9230TIP3    H249182   4.371   3.038   4.790  1.4684  3.5631 -0.1285
 9231TIP3   OH249183   0.195   5.611  12.909  0.8838  0.1252 -0.1548
 9231TIP3    H149184   0.190   5.544  12.841 -0.2918 -0.8775  0.8923
 9231TIP3    H249185   0.244   5.569  12.980  3.0175  1.5217 -0.7507
 9232TIP3   OH249186   3.819   4.788  16.140 -0.0263 -0.1730 -0.0816
 9232TIP3    H149187   3.765   4.731  16.084  0.7679 -0.3514 -0.6614
 9232TIP3    H249188   3.898   4.737  16.157  0.1215  0.2407  0.4729
 9233TIP3   OH249189   2.482   6.647  12.140 -0.3013  0.1967  0.4798
 9233TIP3    H149190   2.407   6.682  12.093 -0.1859  1.3827  1.1753
 9233TIP3    H249191   2.556   6.658  12.081 -0.6171 -0.7626 -0.1121
 9234TIP3   OH249192   2.590   3.906  14.581 -0.5197 -0.4942 -0.1882
 9234TIP3    H149193   2.618   3.815  14.581 -0.3416 -0.4456  0.8516
 9234TIP3    H249194   2.636   3.946  14.655 -1.0842  0.2887 -0.2479
 9235TIP3   OH249195   3.093   5.565  15.831  0.7170 -0.0027 -0.0494
 9235TIP3    H149196   3.091   5.658  15.854 -1.3013  0.0257 -0.2154
 9235TIP3    H249197   3.184   5.539  15.843  1.1464  1.8002  0.7874
 9236TIP3   OH249198   6.071   4.647   2.578  0.2657  0.3403 -0.6492
 9236TIP3    H149199   6.043   4.717   2.519  0.7315 -1.1427 -2.6979
 9236TIP3    H249200   6.157   4.621   2.544  1.2878  0.5627  1.7079
 9237TIP3   OH249201   6.606   0.041   5.428 -0.3580  0.3582  0.0026
 9237TIP3    H149202   6.550   0.119   5.438  0.3907  0.5966  2.8538
 9237TIP3    H249203   6.645   0.029   5.514  1.4333 -1.7778 -1.0628
 9238TIP3   OH249204   2.948   4.887   2.952 -0.5787 -0.6199  0.1753
 9238TIP3    H149205   3.013   4.819   2.934 -0.8767 -1.1987  1.1940
 9238TIP3    H249206   2.971   4.959   2.894  0.2668 -1.2680 -0.3046
 9239TIP3   OH249207   3.194   6.454  10.424 -0.3019 -0.3112  0.5870
 9239TIP3    H149208   3.193   6.365  10.459  0.8464 -0.0503  1.3068
 9239TIP3    H249209   3.285   6.468  10.397 -1.1279 -0.5117 -2.5363
 9240TIP3   OH249210   6.157   4.835   4.292 -0.5635  0.1903  0.0969
 9240TIP3    H149211   6.196   4.755   4.329 -0.5495 -0.0640 -0.4572
 9240TIP3    H249212   6.221   4.865   4.228 -0.2500  1.0442  0.8070
 9241TIP3   OH249213   2.795   5.498  15.575 -0.2735  0.4399  0.1537
 9241TIP3    H149214   2.890   5.494  15.591 -0.3569 -0.6897  0.4042
 9241TIP3    H249215   2.757   5.502  15.663 -0.5144 -0.3555  0.0812
 9242TIP3   OH249216   6.448   4.368  15.724 -0.3986 -0.3739 -0.0316
 9242TIP3    H149217   6.501   4.354  15.803 -2.2004  0.9956  1.4502
 9242TIP3    H249218   6.450   4.283  15.679  1.2167 -0.9744  1.1195
 9243TIP3   OH249219   0.759   1.028   1.265  0.3979 -0.3255 -0.1943
 9243TIP3    H149220   0.769   0.941   1.304 -0.8031 -0.0227  0.8260
 9243TIP3    H249221   0.805   1.087   1.325  0.6320 -0.1739 -0.5240
 9244TIP3   OH249222   0.016   3.404   4.112  0.2012  0.6643  0.5392
 9244TIP3    H149223  -0.031   3.453   4.045 -1.5285  0.3215  1.4697
 9244TIP3    H249224   0.040   3.322   4.069  1.9850  1.7584 -0.6302
 9245TIP3   OH249225   3.584   0.642   4.292 -0.1369 -0.2646 -0.1830
 9245TIP3    H149226   3.624   0.617   4.375 -0.2394 -2.2433 -0.7081
 9245TIP3    H249227   3.655   0.639   4.228 -0.3323 -0.0521 -0.4122
 9246TIP3   OH249228   6.149   1.258  12.161 -0.2485  0.1332  0.1211
 9246TIP3    H149229   6.138   1.168  12.194 -1.0209  0.2828  0.2819
 9246TIP3    H249230   6.133   1.251  12.067 -1.1635  0.2440  0.2611
 9247TIP3   OH249231   3.095   4.528  12.978 -0.5480 -0.3489  0.2022
 9247TIP3    H149232   3.132   4.563  12.896 -0.8534  1.1410  0.6882
 9247TIP3    H249233   3.046   4.450  12.951 -1.1446  0.4747 -1.1129
 9248TIP3   OH249234   6.205   5.512  13.197  0.2849  0.7477  0.3112
 9248TIP3    H149235   6.189   5.581  13.134 -3.1204 -0.0867  0.1738
 9248TIP3    H249236   6.282   5.466  13.163  0.5441  2.3589 -1.3796
 9249TIP3   OH249237   0.297   2.931  11.845 -0.3655  0.1379  0.0163
 9249TIP3    H149238   0.309   2.885  11.762 -0.9519  2.0715 -1.1844
 9249TIP3    H249239   0.233   3.000  11.825  1.0010  1.9126  1.5691
 9250TIP3   OH249240   5.262   2.658   4.651 -0.2061 -0.0121  0.7443
 9250TIP3    H149241   5.312   2.599   4.708 -1.3682 -0.1453  1.6587
 9250TIP3    H249242   5.174   2.621   4.650 -0.7112  1.1715  0.5293
 9251TIP3   OH249243   3.679   0.443   0.433  0.4078 -0.3112  0.3119
 9251TIP3    H149244   3.767   0.410   0.417  0.8533  2.1223 -2.9041
 9251TIP3    H249245   3.622   0.385   0.382  0.4661 -0.1961  0.1142
 9252TIP3   OH249246   2.420   6.798  11.696  0.4050  0.0242 -0.1423
 9252TIP3    H149247   2.410   6.738  11.622  0.4244 -0.6449  0.3938
 9252TIP3    H249248   2.410   6.885  11.657 -1.7758 -0.3966 -0.5910
 9253TIP3   OH249249   1.605   6.654  17.158 -0.1741 -0.8730  0.0699
 9253TIP3    H149250   1.526   6.613  17.194  0.2641 -3.0797 -1.4049
 9253TIP3    H249251   1.671   6.642  17.226 -0.8985  0.3163  1.0013
 9254TIP3   OH249252   6.671   3.217  14.068 -0.0175 -0.2100 -0.1070
 9254TIP3    H149253   6.680   3.312  14.081 -1.6584 -0.1941  1.0022
 9254TIP3    H249254   6.608   3.210  13.997 -0.4981 -0.4941  0.3532
 9255TIP3   OH249255   5.824   0.608   3.810 -0.5153 -0.1280 -0.3515
 9255TIP3    H149256   5.906   0.599   3.761 -1.5442 -0.1005 -2.1305
 9255TIP3    H249257   5.850   0.646   3.894  1.6039 -2.4524  0.0872
 9256TIP3   OH249258   5.004   2.557  11.123  0.3268 -0.3914 -0.1208
 9256TIP3    H149259   5.079   2.598  11.166 -1.1954  0.4702  1.7799
 9256TIP3    H249260   5.017   2.575  11.030  2.2280  0.1306  0.2273
 9257TIP3   OH249261   6.061   1.181  14.530  0.1013 -0.1385 -0.3499
 9257TIP3    H149262   6.071   1.241  14.604  0.7417 -1.5474  0.7242
 9257TIP3    H249263   5.991   1.121  14.558  0.0287 -0.3873 -1.0716
 9258TIP3   OH249264   0.349   2.981  12.821  0.9243 -0.0496  0.0766
 9258TIP3    H149265   0.380   2.933  12.743  0.0234  2.1378 -1.6849
 9258TIP3    H249266   0.428   3.019  12.859  1.2380 -0.1397 -0.4795
 9259TIP3   OH249267   5.999   4.106  10.947  0.2054 -0.1187  0.2438
 9259TIP3    H149268   6.092   4.085  10.946 -0.4521 -3.2085 -0.3812
 9259TIP3    H249269   5.985   4.150  11.031  1.6098 -2.7079  1.8632
 9260TIP3   OH249270   5.523   5.557  10.966  0.4153  0.4777 -0.2305
 9260TIP3    H149271   5.612   5.538  10.934 -0.1094 -2.0909 -0.2478
 9260TIP3    H249272   5.532   5.555  11.061  0.9941  3.3686 -0.1883
 9261TIP3   OH249273   6.146   0.168  11.912 -0.6446 -0.1863 -0.2232
 9261TIP3    H149274   6.131   0.080  11.877 -1.8954 -0.4930  1.0142
 9261TIP3    H249275   6.152   0.224  11.835 -2.4891 -0.9695 -0.9668
 9262TIP3   OH249276   6.038   5.306  11.130  0.1693  0.7924 -0.0705
 9262TIP3    H149277   5.949   5.275  11.110 -0.2708  2.0531 -0.0831
 9262TIP3    H249278   6.095   5.249  11.078 -0.3867 -2.3933  2.6134
 9263TIP3   OH249279   1.214   0.248  16.512  0.6575 -0.4559 -0.0958
 9263TIP3    H149280   1.182   0.195  16.585  0.3965  0.7530  0.6719
 9263TIP3    H249281   1.175   0.207  16.434 -1.4370 -0.0001  0.6872
 9264TIP3   OH249282   4.815   6.731  16.239 -0.1600 -0.8304  0.4776
 9264TIP3    H149283   4.887   6.733  16.176 -0.6930  0.6725 -0.1107
 9264TIP3    H249284   4.836   6.801  16.301 -2.3354  1.2974 -1.1137
 9265TIP3   OH249285   3.966   5.238   2.544 -0.0439 -0.3584 -0.0261
 9265TIP3    H149286   3.963   5.301   2.616  0.0674 -0.8113  0.3821
 9265TIP3    H249287   3.897   5.175   2.565 -0.7672  0.1434 -0.9143
 9266TIP3   OH249288   1.362   5.762   5.831  0.0135 -0.2271 -0.4830
 9266TIP3    H149289   1.365   5.835   5.892  1.0218  0.2373 -1.0746
 9266TIP3    H249290   1.270   5.754   5.806 -0.2846  0.0355  0.5453
 9267TIP3   OH249291   3.860   4.192   1.001 -0.0049  0.1109 -0.0113
 9267TIP3    H149292   3.813   4.116   0.968  2.3030 -0.7699 -1.4078
 9267TIP3    H249293   3.934   4.156   1.050  0.6908  1.4272 -0.0623
 9268TIP3   OH249294   3.028   1.502   0.930 -0.5084 -0.0103  0.1017
 9268TIP3    H149295   3.007   1.586   0.888 -0.5506  0.3638  0.8747
 9268TIP3    H249296   2.985   1.506   1.015 -1.1950 -1.1569 -0.1793
 9269TIP3   OH249297   6.517   3.999  17.179 -0.2319  0.3749 -0.1793
 9269TIP3    H149298   6.488   4.085  17.150 -1.6386 -0.0336  0.0042
 9269TIP3    H249299   6.609   3.994  17.152 -0.2725  1.7493 -0.5842
 9270TIP3   OH249300   1.429   5.308  13.813  0.2572  0.3606 -0.4104
 9270TIP3    H149301   1.457   5.388  13.768 -0.0972 -0.2140 -1.6956
 9270TIP3    H249302   1.354   5.335  13.866 -0.1681  0.7941 -1.2088
 9271TIP3   OH249303   5.614   1.455  15.371  0.0801 -0.1631 -0.3176
 9271TIP3    H149304   5.626   1.382  15.431 -0.5227 -0.1052 -0.1213
 9271TIP3    H249305   5.674   1.437  15.298 -1.3911 -1.7875 -1.1480
 9272TIP3   OH249306   2.175   4.329  11.122  0.0189 -1.0061 -0.2748
 9272TIP3    H149307   2.080   4.318  11.121 -0.1213  0.1612 -2.4074
 9272TIP3    H249308   2.206   4.273  11.051  0.5498  1.4974 -2.0763
 9273TIP3   OH249309   0.880   5.269   2.566  0.4476  0.0360  0.0606
 9273TIP3    H149310   0.875   5.285   2.472  1.8454 -0.5713 -0.1335
 9273TIP3    H249311   0.803   5.312   2.602 -0.0390  0.3669 -1.3515
 9274TIP3   OH249312   0.025   4.339   2.554  0.5273 -0.0032  0.1205
 9274TIP3    H149313   0.064   4.259   2.521 -0.3592 -0.4560  0.1361
 9274TIP3    H249314   0.079   4.409   2.520  0.9721 -0.5841 -0.3676
 9275TIP3   OH249315   4.163   5.244  11.432  0.2209 -0.4864 -0.4144
 9275TIP3    H149316   4.070   5.226  11.423 -0.1109  0.7973  0.4948
 9275TIP3    H249317   4.194   5.178  11.494 -0.5666  0.6592  1.2029
 9276TIP3   OH249318   5.563   3.606  15.156 -0.2837 -0.3151  0.0738
 9276TIP3    H149319   5.475   3.568  15.156  0.5842 -2.3973 -0.9922
 9276TIP3    H249320   5.621   3.533  15.180  1.2322  0.8301 -0.0122
 9277TIP3   OH249321   3.003   0.309  16.332 -0.4606 -0.1412 -0.2000
 9277TIP3    H149322   2.970   0.328  16.420  2.3251  4.2120  0.0909
 9277TIP3    H249323   2.952   0.367  16.275  1.5273  1.1695 -0.6830
 9278TIP3   OH249324   3.583   1.625  12.851  0.1270 -0.2864 -0.9484
 9278TIP3    H149325   3.487   1.622  12.854  0.1656 -0.5805  0.0084
 9278TIP3    H249326   3.610   1.535  12.868  0.5837 -0.1203 -0.8009
 9279TIP3   OH249327   4.540   1.096  13.267 -0.0017  0.1894  0.0913
 9279TIP3    H149328   4.573   1.161  13.330 -0.2693 -3.4874  4.2434
 9279TIP3    H249329   4.450   1.124  13.250  0.5952  2.1714  0.0234
 9280TIP3   OH249330   3.510   1.584   5.803 -0.6564  0.0371 -0.0079
 9280TIP3    H149331   3.477   1.588   5.893 -0.2897  1.5200  0.0821
 9280TIP3    H249332   3.503   1.492   5.778 -1.1876 -0.3060  1.3797
 9281TIP3   OH249333   0.349   6.002  11.973 -0.2507  0.0801  0.1425
 9281TIP3    H149334   0.285   5.933  11.991 -1.6176  1.0752 -0.7529
 9281TIP3    H249335   0.302   6.063  11.916  1.3905  1.0298 -0.2132
 9282TIP3   OH249336   5.995   3.874  10.525 -0.0155 -0.0416  0.0309
 9282TIP3    H149337   6.089   3.888  10.534 -0.0690  0.4327 -0.1817
 9282TIP3    H249338   5.987   3.800  10.464  0.2660 -1.3184  1.5042
 9283TIP3   OH249339   4.030   2.958  11.978 -0.1692 -0.4695  0.2001
 9283TIP3    H149340   4.063   3.041  12.013  1.7784 -0.7074 -0.9572
 9283TIP3    H249341   4.056   2.961  11.885 -1.6912 -1.5801 -0.2675
 9284TIP3   OH249342   4.904   2.745  11.436 -0.4903 -0.2964  0.4152
 9284TIP3    H149343   4.893   2.661  11.391  1.9569  0.7792 -2.4129
 9284TIP3    H249344   4.984   2.734  11.487  0.7324  0.7303 -1.2025
 9285TIP3   OH249345   3.886   2.043   3.370 -0.1172  0.0506  0.4671
 9285TIP3    H149346   3.849   2.056   3.458 -2.0719  2.4652 -0.6406
 9285TIP3    H249347   3.925   2.128   3.348  3.9360 -1.6755  0.5333
 9286TIP3   OH249348   3.890   0.657   2.918 -0.3145  0.2117 -0.2385
 9286TIP3    H149349   3.861   0.744   2.946  0.5916  0.7372 -0.8910
 9286TIP3    H249350   3.838   0.638   2.840 -0.5833  0.1301 -0.0380
 9287TIP3   OH249351   1.487   3.837  12.514  0.0358  0.3447  0.4051
 9287TIP3    H149352   1.471   3.747  12.541  1.6651  0.1734  0.8343
 9287TIP3    H249353   1.472   3.836  12.419  0.7329 -0.5278  0.3061
 9288TIP3   OH249354   4.657   5.231  13.466 -0.6987 -0.1759  0.0465
 9288TIP3    H149355   4.608   5.153  13.491 -1.0925  0.5124  1.4780
 9288TIP3    H249356   4.694   5.210  13.381 -1.1125 -1.7817  0.2513
 9289TIP3   OH249357   5.864   2.889  12.416 -0.0346  0.0873 -0.4249
 9289TIP3    H149358   5.898   2.801  12.428 -0.7712 -0.2623 -0.8703
 9289TIP3    H249359   5.882   2.910  12.325 -0.3274  0.1937 -0.4583
 9290TIP3   OH249360   0.082   4.555  17.166 -0.7935  0.0555  0.5027
 9290TIP3    H149361   0.060   4.622  17.231 -0.9690 -0.9066  1.4662
 9290TIP3    H249362   0.086   4.474  17.217  2.1297 -0.2635 -0.1242
 9291TIP3   OH249363   2.295   4.750   4.289  0.3895  0.2926 -0.5503
 9291TIP3    H149364   2.281   4.656   4.301  0.5737  0.3272 -0.0229
 9291TIP3    H249365   2.222   4.780   4.236 -1.0818  0.3189  1.4304
 9292TIP3   OH249366   4.557   6.201  12.304  0.1345  0.6962  0.4686
 9292TIP3    H149367   4.565   6.151  12.385  0.5353 -0.2785 -0.1629
 9292TIP3    H249368   4.468   6.184  12.273 -0.1217  1.3141  0.8603
 9293TIP3   OH249369   1.315   6.079  15.549  0.4166 -0.0069  0.4595
 9293TIP3    H149370   1.284   5.991  15.529  1.5474 -0.1208 -0.9163
 9293TIP3    H249371   1.244   6.137  15.523  0.8566 -0.3338 -1.5628
 9294TIP3   OH249372   4.757   5.660   1.133 -0.2020  0.0700  0.2302
 9294TIP3    H149373   4.849   5.672   1.111  0.2468 -0.6620  1.6388
 9294TIP3    H249374   4.712   5.732   1.089  1.0558  0.5336 -0.3251
 9295TIP3   OH249375   6.744   4.386  14.285  0.3203  0.3224  0.0572
 9295TIP3    H149376   6.751   4.317  14.219  1.2846 -0.6136  1.1111
 9295TIP3    H249377   6.829   4.429  14.283  0.4171  0.1796  0.7900
 9296TIP3   OH249378   4.478   0.013   3.800  0.6757  0.5327 -0.1394
 9296TIP3    H149379   4.394   0.057   3.809 -0.0737 -0.5371 -1.6450
 9296TIP3    H249380   4.529   0.070   3.743  1.0990  1.3454  1.0395
 9297TIP3   OH249381   2.304   2.237   3.145 -0.0755  0.1959 -0.5217
 9297TIP3    H149382   2.389   2.213   3.183 -0.0849 -0.3003 -0.8065
 9297TIP3    H249383   2.250   2.159   3.157 -1.1212  1.1943  1.4651
 9298TIP3   OH249384   1.913   3.956  14.451  0.2620  0.1151 -0.6261
 9298TIP3    H149385   1.977   3.911  14.506 -2.4391 -0.5688  2.0628
 9298TIP3    H249386   1.943   3.939  14.361  1.7844 -3.3324  0.4537
 9299TIP3   OH249387   3.544   3.572   0.075 -0.2226  0.6039 -0.4568
 9299TIP3    H149388   3.559   3.485   0.111 -1.0438  1.0101  0.8869
 9299TIP3    H249389   3.459   3.598   0.109  0.1330  2.0447 -0.6234
 9300TIP3   OH249390   0.391   1.221  13.860 -0.1907 -0.3224  0.1607
 9300TIP3    H149391   0.304   1.186  13.843 -0.9336  1.6104 -0.0682
 9300TIP3    H249392   0.402   1.292  13.797 -0.0314  2.0384  2.7173
 9301TIP3   OH249393   5.898   4.909  16.014  0.3543  0.4663 -0.0178
 9301TIP3    H149394   5.974   4.882  15.963  0.9897 -1.2321  1.7476
 9301TIP3    H249395   5.920   4.998  16.044  1.4329  0.1934  0.0416
 9302TIP3   OH249396   4.173   6.571   3.882  0.3448 -0.0992  1.0225
 9302TIP3    H149397   4.220   6.614   3.953  0.9382  0.6663  0.1759
 9302TIP3    H249398   4.103   6.522   3.925  1.7813 -1.0701  2.2960
 9303TIP3   OH249399   5.060   4.484   0.057 -0.0592  0.0709 -0.1948
 9303TIP3    H149400   5.023   4.463  -0.028  0.7635  0.8692 -0.7567
 9303TIP3    H249401   4.991   4.535   0.101 -0.1370  0.4321 -0.7303
 9304TIP3   OH249402   2.843   4.645   5.624 -0.0896 -0.0409  0.1896
 9304TIP3    H149403   2.877   4.725   5.664 -0.9105  0.3117  0.1859
 9304TIP3    H249404   2.906   4.577   5.649  1.2222  0.8054 -0.7603
 9305TIP3   OH249405   5.643   4.869   4.309  0.1822  0.1563  0.2229
 9305TIP3    H149406   5.637   4.806   4.238  0.6523  0.4351 -0.0731
 9305TIP3    H249407   5.606   4.824   4.386 -2.7214  0.7501 -0.7644
 9306TIP3   OH249408   0.882   5.984  12.563 -0.5327 -0.2421 -0.0769
 9306TIP3    H149409   0.961   5.943  12.529 -0.8795  0.6072 -1.9759
 9306TIP3    H249410   0.814   5.917  12.553 -0.4754 -0.2591 -0.3544
 9307TIP3   OH249411   1.949   1.796   6.119 -0.3621  0.1265  1.0240
 9307TIP3    H149412   2.039   1.778   6.146  0.4938  0.0942 -1.7230
 9307TIP3    H249413   1.947   1.891   6.105 -1.1755  0.3399  2.4579
 9308TIP3   OH249414   1.775   0.679   4.559 -0.3533 -0.6427 -0.4537
 9308TIP3    H149415   1.775   0.593   4.516  2.7191 -1.0600  0.3078
 9308TIP3    H249416   1.826   0.735   4.501 -0.5037  0.1194  0.1462
 9309TIP3   OH249417   4.913   0.575  15.446 -0.5285  0.0055  0.7393
 9309TIP3    H149418   4.887   0.667  15.436 -0.4906 -0.0038  0.5568
 9309TIP3    H249419   4.990   0.566  15.391 -0.0601  0.0608  1.3698
 9310TIP3   OH249420   0.130   2.050  15.372 -0.5067  0.0688  0.2761
 9310TIP3    H149421   0.191   2.107  15.420  0.8976 -0.0844 -1.2537
 9310TIP3    H249422   0.125   2.090  15.285 -0.8680 -1.1727 -0.2688
 9311TIP3   OH249423   6.323   4.788   3.678  0.5310 -0.4734 -0.0614
 9311TIP3    H149424   6.253   4.741   3.634  0.6796  0.1560 -0.9827
 9311TIP3    H249425   6.403   4.759   3.635  0.7624 -0.5036  0.3771
 9312TIP3   OH249426   4.618   5.400   1.193 -0.4203  0.1847 -0.3416
 9312TIP3    H149427   4.643   5.433   1.279  0.3343  0.2505 -0.5783
 9312TIP3    H249428   4.652   5.466   1.132  1.6179 -1.2766 -0.8586
 9313TIP3   OH249429   4.165   2.900  17.198  0.6331  0.1952  0.2832
 9313TIP3    H149430   4.132   2.905  17.288 -3.9400 -1.5296 -1.1539
 9313TIP3    H249431   4.194   2.809  17.188  0.1360  0.0945 -0.2876
 9314TIP3   OH249432   3.429   3.249   3.438 -0.0222  0.4677  0.2953
 9314TIP3    H149433   3.421   3.274   3.530 -2.3639 -0.5741  0.3990
 9314TIP3    H249434   3.417   3.155   3.437  1.0340  0.3253 -0.9947
 9315TIP3   OH249435   0.140   1.636   5.972  0.2084 -0.5946  0.0869
 9315TIP3    H149436   0.097   1.712   5.932 -1.0650 -1.1203  0.4181
 9315TIP3    H249437   0.104   1.561   5.924  2.0227 -0.9520 -0.7481
 9316TIP3   OH249438   3.671   0.558   4.518 -0.4293 -0.5779  0.4363
 9316TIP3    H149439   3.747   0.590   4.568  0.9806 -2.9566 -0.0968
 9316TIP3    H249440   3.595   0.586   4.570  0.8143  1.2742  1.3276
 9317TIP3   OH249441   2.948   1.914  10.980  0.1287  0.6494 -0.5657
 9317TIP3    H149442   2.921   1.822  10.976  0.4756  0.5779 -1.4548
 9317TIP3    H249443   2.993   1.922  11.064 -1.7156  0.5170  0.4592
 9318TIP3   OH249444   5.849   1.221  12.248  0.8843 -0.0062 -0.5484
 9318TIP3    H149445   5.763   1.263  12.238  0.4033 -0.0963  2.5143
 9318TIP3    H249446   5.853   1.157  12.177 -2.0362 -0.7166 -0.1435
 9319TIP3   OH249447   4.037   3.262  16.945 -0.3274 -0.2306 -0.5178
 9319TIP3    H149448   4.130   3.283  16.949 -0.3923 -0.1085  0.7252
 9319TIP3    H249449   4.019   3.215  17.027 -0.4093 -4.3443 -2.7985
 9320TIP3   OH249450   0.073   5.671  14.577  0.6894  0.0215  0.2420
 9320TIP3    H149451   0.159   5.660  14.619  0.3351  1.9310  1.5403
 9320TIP3    H249452   0.073   5.761  14.546 -0.4156 -0.3236 -0.8063
 9321TIP3   OH249453   6.192   1.969   3.869  0.5617  0.0877  0.5490
 9321TIP3    H149454   6.240   1.987   3.788  0.5532  0.5879  0.6539
 9321TIP3    H249455   6.145   2.050   3.887  0.4472 -0.0742  0.9780
 9322TIP3   OH249456   3.059   0.383  11.639  0.6719  0.6235 -0.1319
 9322TIP3    H149457   2.967   0.405  11.658  0.3446 -1.1804  0.4805
 9322TIP3    H249458   3.055   0.330  11.559  0.9911 -0.9329  0.8660
 9323TIP3   OH249459   4.333   5.757   0.638 -0.1246 -0.4171 -0.4794
 9323TIP3    H149460   4.367   5.785   0.723  0.6493 -2.7321  0.0318
 9323TIP3    H249461   4.238   5.763   0.647 -0.0115  0.7496  0.0367
 9324TIP3   OH249462   0.968   3.702   6.417  0.3394  0.1291 -0.0183
 9324TIP3    H149463   0.922   3.631   6.461  1.5487  0.2630  1.5001
 9324TIP3    H249464   0.898   3.762   6.390 -0.5528 -0.8133  0.1614
 9325TIP3   OH249465   5.933   0.231   0.900 -0.0348  0.3620  0.0320
 9325TIP3    H149466   6.013   0.216   0.950 -0.7587  1.6501  1.6110
 9325TIP3    H249467   5.916   0.325   0.910 -3.1858 -0.3553  1.9281
 9326TIP3   OH249468   4.282   0.743  13.359  0.0174 -0.0615 -0.1977
 9326TIP3    H149469   4.339   0.787  13.296  0.7657 -0.2958  0.3170
 9326TIP3    H249470   4.226   0.813  13.393 -0.5423  0.0280 -1.2794
 9327TIP3   OH249471   3.360   0.288   1.413  0.5284  0.1681  0.4058
 9327TIP3    H149472   3.268   0.261   1.414  0.2669  0.9699 -1.5803
 9327TIP3    H249473   3.404   0.223   1.468 -0.7866 -1.7975 -0.7981
 9328TIP3   OH249474   0.936   0.364   5.178  0.3019 -0.3438 -0.1593
 9328TIP3    H149475   1.028   0.385   5.160  0.4065 -1.0256 -0.4267
 9328TIP3    H249476   0.932   0.351   5.272  0.6080 -0.9246 -0.2247
 9329TIP3   OH249477   6.412   2.881   3.863 -0.3684 -0.1598  0.3778
 9329TIP3    H149478   6.322   2.865   3.836 -1.0982  0.1225  2.5188
 9329TIP3    H249479   6.406   2.899   3.957  1.6220  2.1599  0.1343
 9330TIP3   OH249480   3.841   5.669  14.945 -0.1500  0.0753  0.3734
 9330TIP3    H149481   3.866   5.632  15.030 -0.1326 -0.0238  0.3264
 9330TIP3    H249482   3.924   5.701  14.908 -0.2990  0.8871  0.7603
 9331TIP3   OH249483   2.966   0.418   3.759  0.2496 -0.3225  0.2123
 9331TIP3    H149484   2.951   0.496   3.706  1.6866 -0.6858 -0.7463
 9331TIP3    H249485   2.923   0.347   3.710 -1.4656 -0.0783  1.3172
 9332TIP3   OH249486   6.667   1.001   1.316 -0.2178 -0.3851  0.2678
 9332TIP3    H149487   6.632   0.912   1.322  2.6537 -1.4313  2.6879
 9332TIP3    H249488   6.721   1.000   1.237  0.5082 -1.0558  0.7712
 9333TIP3   OH249489   3.334   6.221  11.150  0.5160  0.3558 -0.2458
 9333TIP3    H149490   3.250   6.265  11.133 -0.2040 -1.1523 -0.6927
 9333TIP3    H249491   3.309   6.137  11.190  1.8016 -0.2702 -0.7426
 9334TIP3   OH249492   3.248   4.648  13.633 -0.0827 -0.0334  0.2566
 9334TIP3    H149493   3.166   4.657  13.585 -0.7348  0.0007  1.3694
 9334TIP3    H249494   3.306   4.712  13.593 -0.5515 -0.1524 -0.6276
 9335TIP3   OH249495   2.684   1.638   5.521 -0.1482 -0.1655  0.4877
 9335TIP3    H149496   2.702   1.713   5.578  1.8756 -0.0910 -0.1919
 9335TIP3    H249497   2.611   1.593   5.562  0.8656  0.2309  2.8090
 9336TIP3   OH249498   5.783   2.577   3.752  0.5852  0.2442  0.3441
 9336TIP3    H149499   5.702   2.552   3.797  1.2943  0.5577  1.8101
 9336TIP3    H249500   5.801   2.666   3.783  0.8225  0.6584 -0.9423
 9337TIP3   OH249501   0.523   1.956   5.287 -0.0126 -0.0491  0.7117
 9337TIP3    H149502   0.463   1.952   5.362  0.5783 -2.0011  1.0819
 9337TIP3    H249503   0.585   2.026   5.310  0.2133 -0.6863  2.0699
 9338TIP3   OH249504   5.113   2.756  10.691  0.1944  0.2905 -0.5982
 9338TIP3    H149505   5.118   2.732  10.598 -2.5547  1.0257 -0.9871
 9338TIP3    H249506   5.032   2.806  10.698  0.1139 -0.1706  2.3141
 9339TIP3   OH249507   2.107   2.157  14.769  0.4346 -0.0131  0.4052
 9339TIP3    H149508   2.155   2.079  14.796 -0.1121  0.1964  2.0394
 9339TIP3    H249509   2.036   2.165  14.834 -0.1753  1.2053 -0.3951
 9340TIP3   OH249510   6.513   6.657   3.731  0.4303  0.2158 -0.0274
 9340TIP3    H149511   6.595   6.614   3.756 -0.3245 -0.7451  0.8580
 9340TIP3    H249512   6.492   6.714   3.806  0.8326  1.2758 -0.7085
 9341TIP3   OH249513   0.757   2.931   6.309 -0.3262  0.6449  0.0615
 9341TIP3    H149514   0.707   2.925   6.391  0.5833  1.4443  0.6886
 9341TIP3    H249515   0.849   2.929   6.337 -0.0112  1.4341 -0.8963
 9342TIP3   OH249516   1.411   3.913  12.232 -0.0377 -0.3224 -0.2743
 9342TIP3    H149517   1.458   3.994  12.252  1.7685 -0.9320 -1.8551
 9342TIP3    H249518   1.322   3.941  12.212  0.4834  1.2363 -0.4820
 9343TIP3   OH249519   5.256   3.765  14.929  0.1374 -0.6256  0.0924
 9343TIP3    H149520   5.326   3.720  14.881 -0.1947 -0.5677 -0.4522
 9343TIP3    H249521   5.255   3.854  14.893 -1.3040 -1.0930 -1.0819
 9344TIP3   OH249522   1.144   3.271   5.756 -0.1104  0.4306 -0.4318
 9344TIP3    H149523   1.224   3.225   5.780  0.2961  0.6605 -1.3296
 9344TIP3    H249524   1.089   3.266   5.834  0.5287 -0.2708 -0.0242
 9345TIP3   OH249525   0.515   2.795   2.137 -0.3779  0.3171 -0.1441
 9345TIP3    H149526   0.495   2.882   2.174 -1.9552 -1.0921  2.4423
 9345TIP3    H249527   0.433   2.767   2.097 -0.2083 -0.4822  0.0691
 9346TIP3   OH249528   4.721   3.210   2.906  0.0472 -0.2518  0.1703
 9346TIP3    H149529   4.771   3.129   2.912  1.5513  0.7333  1.1954
 9346TIP3    H249530   4.723   3.247   2.994 -0.1463  1.1721 -0.4050
 9347TIP3   OH249531   0.171   5.490  12.654  0.0491 -0.4518 -0.3426
 9347TIP3    H149532   0.183   5.398  12.630  0.4775 -0.2595 -0.8834
 9347TIP3    H249533   0.077   5.505  12.643  0.1319 -0.5575 -1.2385
 9348TIP3   OH249534   5.036   5.547  14.474  0.0818 -0.3238 -0.2726
 9348TIP3    H149535   4.951   5.589  14.460 -0.3280 -0.5870  1.3062
 9348TIP3    H249536   5.027   5.461  14.432  0.6775  0.8255 -2.8852
 9349TIP3   OH249537   4.208   1.508  14.324 -0.7478 -0.0218  0.2592
 9349TIP3    H149538   4.155   1.433  14.350  0.4024 -0.6651  0.8319
 9349TIP3    H249539   4.275   1.515  14.393 -0.5133  1.1858 -0.0791
 9350TIP3   OH249540   0.808   3.728   3.213 -0.1593  0.0249 -0.3766
 9350TIP3    H149541   0.790   3.783   3.137 -0.2877 -1.7943 -1.6721
 9350TIP3    H249542   0.896   3.694   3.197 -0.3787 -0.7435  0.0684
 9351TIP3   OH249543   1.651   2.135   0.395  0.0894  0.1483  0.3517
 9351TIP3    H149544   1.737   2.098   0.375 -0.3742 -0.6520 -0.1848
 9351TIP3    H249545   1.613   2.074   0.459 -1.3558 -1.2370 -1.7883
 9352TIP3   OH249546   5.320   0.126   4.763  0.5754 -0.2121  0.0932
 9352TIP3    H149547   5.412   0.151   4.770  0.7434 -0.3163 -1.6912
 9352TIP3    H249548   5.273   0.209   4.753  0.7080 -0.2922 -1.3039
 9353TIP3   OH249549   5.804   2.430   4.039 -0.4146  0.5197 -0.4186
 9353TIP3    H149550   5.728   2.442   3.982  0.6351  0.7897 -1.7988
 9353TIP3    H249551   5.828   2.518   4.066  0.3467  0.5846 -1.2665
 9354TIP3   OH249552   2.596   2.562  14.293 -0.2297 -0.1114  0.0085
 9354TIP3    H149553   2.518   2.605  14.258 -0.1654 -1.7117 -2.1712
 9354TIP3    H249554   2.572   2.539  14.383 -1.3738  1.6036  0.1694
 9355TIP3   OH249555   3.843   1.653   1.290  0.0366  0.1060  0.5254
 9355TIP3    H149556   3.825   1.653   1.384 -1.8616  0.5562  0.1648
 9355TIP3    H249557   3.857   1.561   1.269 -0.1272 -0.0591  1.1221
 9356TIP3   OH249558   0.267   4.214  12.422 -0.3117  0.3171  0.6015
 9356TIP3    H149559   0.362   4.218  12.431 -0.4133  0.3385  1.7035
 9356TIP3    H249560   0.236   4.301  12.448 -0.5485  0.7350 -0.9927
 9357TIP3   OH249561   4.688   1.180   4.892 -0.2347  0.0660  0.3686
 9357TIP3    H149562   4.594   1.197   4.903 -0.1604  1.1299 -0.5273
 9357TIP3    H249563   4.693   1.120   4.818 -0.1040  1.7748 -1.0514
 9358TIP3   OH249564   6.335   1.057  11.237  0.0570 -0.2481  0.3300
 9358TIP3    H149565   6.395   1.038  11.310 -0.5813  0.2294  0.9907
 9358TIP3    H249566   6.249   1.065  11.279 -0.1460  1.1180 -0.3183
 9359TIP3   OH249567   2.039   1.417  16.787  0.2084  0.5364  0.3626
 9359TIP3    H149568   2.123   1.380  16.760 -0.4370 -0.4895 -0.2313
 9359TIP3    H249569   2.009   1.468  16.712 -0.2127  0.0298  0.1862
 9360TIP3   OH249570   0.753   0.644   0.295 -0.5162 -0.3668 -0.3080
 9360TIP3    H149571   0.697   0.717   0.268  0.2201  0.4322  0.2950
 9360TIP3    H249572   0.693   0.582   0.336 -1.0135  0.3421  0.0579
 9361TIP3   OH249573   1.492   3.221  12.250  0.1394 -0.1346  0.4343
 9361TIP3    H149574   1.565   3.259  12.202 -1.4714  1.0001 -1.1768
 9361TIP3    H249575   1.532   3.184  12.329  2.4885  0.0971 -0.6024
 9362TIP3   OH249576   3.002   0.932   6.456 -0.3288  0.0409 -0.4758
 9362TIP3    H149577   2.920   0.893   6.484 -0.8558  0.7373 -1.0183
 9362TIP3    H249578   3.067   0.862   6.465 -0.8393 -0.2852  0.6594
 9363TIP3   OH249579   3.883   0.184   1.293  0.7018  0.2020 -0.1611
 9363TIP3    H149580   3.791   0.184   1.267  0.8075  1.6621 -0.5734
 9363TIP3    H249581   3.907   0.091   1.296 -0.7758 -0.1918 -0.0370
 9364TIP3   OH249582   6.468   3.002  17.087  0.9131  0.0700 -0.0540
 9364TIP3    H149583   6.467   3.096  17.071  0.9975 -0.0562 -0.8557
 9364TIP3    H249584   6.474   2.963  16.999  1.6793 -0.6676  0.3227
 9365TIP3   OH249585   3.085   0.047   7.042  0.3113 -0.0469 -0.5943
 9365TIP3    H149586   3.151   0.073   7.106  0.2809  1.1148 -1.0217
 9365TIP3    H249587   3.133  -0.011   6.982  1.1562  1.3813 -1.3331
 9366TIP3   OH249588   5.665   1.376   4.328  0.1430 -0.3724  0.0473
 9366TIP3    H149589   5.711   1.390   4.245  0.1938 -0.7778  0.0047
 9366TIP3    H249590   5.582   1.423   4.317 -0.5387 -1.7448 -0.8635
 9367TIP3   OH249591   4.730   6.772   1.622 -0.0111 -0.1145  0.8483
 9367TIP3    H149592   4.791   6.771   1.548 -0.0658  1.2048  0.7643
 9367TIP3    H249593   4.786   6.763   1.699  0.1363 -0.5807  0.6844
 9368TIP3   OH249594   4.231   6.588   5.008 -0.5943 -0.0521  0.5013
 9368TIP3    H149595   4.198   6.586   4.918  0.8393  0.0023 -0.0409
 9368TIP3    H249596   4.173   6.530   5.056 -1.0803 -0.4676 -0.5700
 9369TIP3   OH249597   6.313   6.128  11.950 -0.0153 -0.4341  0.1646
 9369TIP3    H149598   6.247   6.178  11.997  1.4126  0.8466  0.8664
 9369TIP3    H249599   6.329   6.179  11.870  0.2512 -0.6449  0.0834
 9370TIP3   OH249600   5.651   2.995   1.122 -0.2344  0.1840 -0.7791
 9370TIP3    H149601   5.584   3.053   1.158 -0.8850 -0.5901 -0.7440
 9370TIP3    H249602   5.603   2.929   1.073  0.5716  0.3967 -1.8936
 9371TIP3   OH249603   5.671   6.114   3.273  0.5088 -0.2525 -0.0051
 9371TIP3    H149604   5.635   6.055   3.207  0.3873 -1.0346  0.7478
 9371TIP3    H249605   5.709   6.186   3.223 -1.8624  0.4633 -0.8294
 9372TIP3   OH249606   4.312   3.646   5.631 -0.3278  0.2866 -0.2532
 9372TIP3    H149607   4.386   3.588   5.646 -0.5631 -0.5177 -2.0543
 9372TIP3    H249608   4.351   3.733   5.619  0.1436  0.2442  0.9369
 9373TIP3   OH249609   6.466   0.441   4.735 -0.2384  0.1428 -0.1735
 9373TIP3    H149610   6.375   0.435   4.764 -0.1494  2.2880  0.6804
 9373TIP3    H249611   6.470   0.391   4.654 -1.8066 -1.3061  0.6399
 9374TIP3   OH249612   0.091   3.183   4.902  0.2446  0.3676 -0.4418
 9374TIP3    H149613   0.078   3.175   4.996  0.4938  0.1220 -0.4286
 9374TIP3    H249614   0.164   3.243   4.892  0.1830  0.4365 -0.4817
 9375TIP3   OH249615   5.666   0.484  12.257  0.0149  0.4384 -0.5404
 9375TIP3    H149616   5.725   0.408  12.253 -0.5039  0.1202 -2.7337
 9375TIP3    H249617   5.725   0.560  12.260  0.5434  0.0381 -0.6076
 9376TIP3   OH249618   1.351   2.052  12.792  0.0910 -0.0897  0.2182
 9376TIP3    H149619   1.313   2.130  12.830 -0.1159  0.0216 -0.2097
 9376TIP3    H249620   1.327   1.981  12.852 -2.3787 -0.3267 -0.9791
 9377TIP3   OH249621   3.175   0.539  16.294  0.1791 -0.3763  0.3201
 9377TIP3    H149622   3.116   0.487  16.348 -0.4037 -0.4141 -0.3529
 9377TIP3    H249623   3.121   0.610  16.260  0.7311  0.0958  0.4251
 9378TIP3   OH249624   5.312   6.011  10.925 -0.0900 -0.3237 -0.0795
 9378TIP3    H149625   5.316   6.107  10.927  0.1545 -0.3393  0.2609
 9378TIP3    H249626   5.397   5.984  10.890  0.4202 -0.4576  1.2426
 9379TIP3   OH249627   3.372   4.826  13.099  0.1882 -0.0486  0.0789
 9379TIP3    H149628   3.324   4.909  13.091  0.0181 -0.2460 -1.0328
 9379TIP3    H249629   3.345   4.775  13.023 -0.3224 -1.4523  1.1708
 9380TIP3   OH249630   0.862   2.322   4.538 -0.5092 -0.2355  0.1249
 9380TIP3    H149631   0.897   2.243   4.496  1.4487  0.5103  0.2851
 9380TIP3    H249632   0.873   2.307   4.631 -1.6206 -0.4338  0.2275
 9381TIP3   OH249633   3.174   5.543   1.568  0.0538  0.6183  0.6933
 9381TIP3    H149634   3.166   5.605   1.641  0.9226  2.4275 -0.6925
 9381TIP3    H249635   3.157   5.596   1.490  1.3200 -0.7973 -0.5787
 9382TIP3   OH249636   4.812   5.796  15.685 -0.0265  0.0438 -0.4296
 9382TIP3    H149637   4.771   5.767  15.766  0.9595 -1.0326 -0.3043
 9382TIP3    H249638   4.826   5.890  15.697 -1.8159  0.2912 -0.2028
 9383TIP3   OH249639   2.619   5.024  13.711  0.4164 -0.1965  0.5213
 9383TIP3    H149640   2.645   5.055  13.798 -1.2506 -1.9495  1.7051
 9383TIP3    H249641   2.698   4.985  13.674  0.6181 -1.4111  2.1779
 9384TIP3   OH249642   0.569   0.683   3.360 -0.2038  0.0070 -0.5925
 9384TIP3    H149643   0.591   0.627   3.286 -1.7594 -1.9832  0.3817
 9384TIP3    H249644   0.615   0.645   3.434  0.2044  1.1302 -0.2569
 9385TIP3   OH249645   2.736   3.637  11.876 -0.0901 -0.1962  0.2345
 9385TIP3    H149646   2.683   3.683  11.811  0.8619 -0.1510 -0.5164
 9385TIP3    H249647   2.680   3.565  11.905 -1.0933  0.6707  0.4774
 9386TIP3   OH249648   3.688   2.825  14.338  0.3424 -0.2027  0.4531
 9386TIP3    H149649   3.744   2.789  14.407  0.5780 -0.8609 -0.0777
 9386TIP3    H249650   3.714   2.778  14.259 -0.0727  0.3992 -0.0472
 9387TIP3   OH249651   6.021   1.300   3.893 -0.3047  0.8188  0.2943
 9387TIP3    H149652   6.027   1.223   3.951  1.4969  0.3357 -0.5043
 9387TIP3    H249653   6.042   1.374   3.950  0.5312  0.4464  0.4756
 9388TIP3   OH249654   1.033   0.927   2.349  0.5350 -0.1636 -0.9363
 9388TIP3    H149655   1.120   0.903   2.319  0.4835 -1.4327 -0.1349
 9388TIP3    H249656   0.977   0.854   2.323 -0.0172 -0.0140 -0.2063
 9389TIP3   OH249657   5.579   0.308   2.829 -0.6225  0.3781 -0.7592
 9389TIP3    H149658   5.665   0.349   2.841 -0.6838  0.2659  0.1069
 9389TIP3    H249659   5.524   0.349   2.896 -1.1505  0.1927 -1.0825
 9390TIP3   OH249660   0.641   0.457  12.819 -0.4683 -0.5724  0.4128
 9390TIP3    H149661   0.569   0.398  12.796 -0.5748 -0.2979  0.0333
 9390TIP3    H249662   0.677   0.486  12.735  0.3385 -1.0108  0.6016
 9391TIP3   OH249663   4.756   3.359  15.412  0.1024  0.8166 -0.1083
 9391TIP3    H149664   4.796   3.427  15.465 -1.9888  1.1820  1.0513
 9391TIP3    H249665   4.755   3.282  15.469  1.7354 -0.0048 -1.1374
 9392TIP3   OH249666   4.343   0.755   0.288  0.0657  0.5334 -0.4202
 9392TIP3    H149667   4.282   0.810   0.239  0.5846 -0.7113 -2.4998
 9392TIP3    H249668   4.429   0.778   0.254  0.1446 -2.9956 -2.8627
 9393TIP3   OH249669   5.575   0.686   0.350  0.2450  0.2093  0.4145
 9393TIP3    H149670   5.546   0.754   0.411  1.3773  0.9863  0.1101
 9393TIP3    H249671   5.521   0.698   0.272  0.5041  0.8233  0.3290
 9394TIP3   OH249672   4.703   2.315  10.879 -0.0342 -0.3385  0.4764
 9394TIP3    H149673   4.624   2.260  10.882  0.6356 -1.2880  1.1045
 9394TIP3    H249674   4.771   2.256  10.847  0.4138  0.4943 -0.0991
 9395TIP3   OH249675   5.299   5.141   1.017  0.1076 -0.0503  0.3364
 9395TIP3    H149676   5.340   5.067   0.973 -1.2170 -0.6862  0.1477
 9395TIP3    H249677   5.253   5.188   0.947 -0.9304 -0.3320  0.8216
 9396TIP3   OH249678   2.527   1.403   3.938 -0.2598 -0.6293  0.0898
 9396TIP3    H149679   2.526   1.462   4.014  1.0646  1.4300 -1.4175
 9396TIP3    H249680   2.534   1.315   3.975  2.8525  0.4901  2.3107
 9397TIP3   OH249681   4.617   2.106   1.682 -0.4991  0.8068  0.5040
 9397TIP3    H149682   4.551   2.046   1.716 -0.1709  0.0279 -0.2395
 9397TIP3    H249683   4.625   2.085   1.589  0.5325  1.1359  0.5044
 9398TIP3   OH249684   4.958   0.643  13.167  0.4091 -0.0248 -0.2439
 9398TIP3    H149685   5.053   0.642  13.178  0.4998  0.3066 -0.9864
 9398TIP3    H249686   4.927   0.567  13.216  1.1205 -0.5430 -0.6046
 9399TIP3   OH249687   0.610   5.111  12.438  0.0902 -0.3849 -0.6763
 9399TIP3    H149688   0.672   5.182  12.418 -1.3877  1.4990  1.2096
 9399TIP3    H249689   0.626   5.046  12.370  1.9593  1.4602 -2.0783
 9400TIP3   OH249690   3.511   0.212   0.552 -0.5980  0.2848  0.1667
 9400TIP3    H149691   3.529   0.198   0.460 -1.5018 -0.5279  0.1054
 9400TIP3    H249692   3.552   0.296   0.572 -0.2805  0.3981 -0.9369
 9401TIP3   OH249693   5.945   2.045  13.549  0.0025  0.3258  0.2975
 9401TIP3    H149694   5.945   2.125  13.603 -0.6304  1.6638 -1.6387
 9401TIP3    H249695   5.927   1.975  13.611 -0.0280  1.7534  1.9560
 9402TIP3   OH249696   3.987   1.152   2.447 -0.6862 -0.0822  0.2535
 9402TIP3    H149697   3.979   1.058   2.460  1.5102 -0.6410 -2.1099
 9402TIP3    H249698   3.972   1.165   2.354  1.8951  1.5324  0.0190
 9403TIP3   OH249699   3.480   3.494  12.088 -0.3548  0.1330 -0.3474
 9403TIP3    H149700   3.496   3.400  12.088  0.2136  0.2287 -0.3187
 9403TIP3    H249701   3.567   3.533  12.095 -0.6585  0.6467  0.6055
 9404TIP3   OH249702   1.307   1.056  15.812 -0.2280  0.4695  0.0757
 9404TIP3    H149703   1.373   1.036  15.878  1.0193  0.2384 -1.2036
 9404TIP3    H249704   1.350   1.118  15.753 -1.3774  0.8058 -0.4366
 9405TIP3   OH249705   5.462   0.411   1.276 -0.4138  0.1834  0.3210
 9405TIP3    H149706   5.534   0.460   1.314  0.3253 -0.6985  0.0644
 9405TIP3    H249707   5.414   0.376   1.351  0.8684 -1.3080  0.4531
 9406TIP3   OH249708   3.126   5.763  16.783 -0.4468  0.3142  0.2932
 9406TIP3    H149709   3.155   5.797  16.868  1.1208 -1.0318  0.3228
 9406TIP3    H249710   3.081   5.681  16.803  0.4129 -0.2885 -0.2119
 9407TIP3   OH249711   0.759   3.373  16.468 -0.5258  0.0531 -0.2675
 9407TIP3    H149712   0.741   3.397  16.377 -0.2935 -1.3669 -0.7021
 9407TIP3    H249713   0.781   3.455  16.511 -3.9890  1.2676 -0.7006
 9408TIP3   OH249714   3.328   3.442  16.116  0.2299  0.1309 -0.2569
 9408TIP3    H149715   3.339   3.357  16.158 -0.7542 -0.6076 -1.4490
 9408TIP3    H249716   3.409   3.489  16.136  0.0696 -0.4324  1.8521
 9409TIP3   OH249717   3.718   5.670  17.273 -0.0497 -0.3480 -0.0585
 9409TIP3    H149718   3.761   5.709  17.350 -2.9083 -0.4132  1.6630
 9409TIP3    H249719   3.689   5.746  17.222  0.3376 -0.2834 -0.1816
 9410TIP3   OH249720   4.302   5.800   1.065 -0.2325  0.1215  0.6795
 9410TIP3    H149721   4.298   5.884   1.110  1.3380  0.2749  0.5330
 9410TIP3    H249722   4.336   5.739   1.130 -2.2583 -0.6224  1.0816
 9411TIP3   OH249723   5.627   1.569   5.712  0.2152 -0.9153  0.5709
 9411TIP3    H149724   5.536   1.582   5.685  0.7345 -0.2315 -0.9403
 9411TIP3    H249725   5.668   1.654   5.698  0.5799 -0.5662  3.4498
 9412TIP3   OH249726   5.257   2.146   5.950  0.0944  0.0280 -0.5598
 9412TIP3    H149727   5.177   2.156   5.899  0.0159  1.3469 -0.2016
 9412TIP3    H249728   5.280   2.236   5.975  2.4532 -0.1635 -1.8791
 9413TIP3   OH249729   5.853   1.077   2.184 -0.3474  0.0362 -0.6965
 9413TIP3    H149730   5.780   1.078   2.122 -0.2020  0.0591 -0.8671
 9413TIP3    H249731   5.931   1.091   2.130 -0.2344  0.2126 -0.4909
 9414TIP3   OH249732   3.637   6.131   1.195  0.3257  0.1711  0.3137
 9414TIP3    H149733   3.673   6.214   1.163  0.9627  0.3785  1.5338
 9414TIP3    H249734   3.713   6.084   1.230 -0.6015  0.8011  3.3424
 9415TIP3   OH249735   5.745   0.573   0.575 -0.1803 -0.4460  0.4115
 9415TIP3    H149736   5.699   0.506   0.625 -0.5869 -1.0894 -0.7824
 9415TIP3    H249737   5.694   0.582   0.494  1.8255 -1.2448 -0.9920
 9416TIP3   OH249738   2.694   6.594   1.462 -0.8611 -0.2033  0.5628
 9416TIP3    H149739   2.730   6.634   1.383  1.2414 -0.7067  1.2429
 9416TIP3    H249740   2.700   6.499   1.447  0.8194 -0.3299  1.8458
 9417TIP3   OH249741   0.559   1.691   5.262 -0.2988 -0.7954  0.2515
 9417TIP3    H149742   0.469   1.673   5.237  0.0883 -1.7059 -0.5068
 9417TIP3    H249743   0.560   1.785   5.283 -1.3044 -0.6807 -0.2082
 9418TIP3   OH249744   4.647   5.590  10.390 -0.4881 -0.5708  0.2284
 9418TIP3    H149745   4.580   5.548  10.444 -0.1988 -1.7083 -0.2596
 9418TIP3    H249746   4.674   5.521  10.328  3.7576 -1.4017  2.7853
 9419TIP3   OH249747   6.005   4.305  14.830 -0.3698 -0.5988  0.4465
 9419TIP3    H149748   5.914   4.308  14.799 -0.3066 -0.2367  0.2939
 9419TIP3    H249749   6.004   4.240  14.900 -0.6254 -1.0227  0.0481
 9420TIP3   OH249750   5.616   2.781  12.503  0.8109 -0.0974  0.0810
 9420TIP3    H149751   5.697   2.831  12.508  0.1518  1.1339 -1.0923
 9420TIP3    H249752   5.549   2.842  12.534  0.0170 -0.2624 -1.2518
 9421TIP3   OH249753   4.733   1.102   2.163 -0.6264  0.7777  0.1819
 9421TIP3    H149754   4.737   1.094   2.067 -1.2985  0.1633  0.1962
 9421TIP3    H249755   4.822   1.084   2.193 -0.8980 -1.2819 -0.1772
 9422TIP3   OH249756   5.435   0.215   4.222 -0.2251 -0.0190  0.2446
 9422TIP3    H149757   5.469   0.287   4.170 -0.2334 -0.8446 -0.9250
 9422TIP3    H249758   5.443   0.244   4.313  0.5470  1.1036 -0.1835
 9423TIP3   OH249759   3.949   1.096  15.728  0.9731 -0.0097  0.0971
 9423TIP3    H149760   4.024   1.043  15.700  0.4238 -1.5596  1.5242
 9423TIP3    H249761   3.977   1.186  15.711  2.7342 -0.6249 -0.4174
 9424TIP3   OH249762   1.312   0.152   1.942 -0.7398 -0.0324 -0.3710
 9424TIP3    H149763   1.395   0.194   1.919 -0.5956  1.0168  1.9172
 9424TIP3    H249764   1.256   0.224   1.971 -0.9041 -1.2071  2.4270
 9425TIP3   OH249765   5.712   3.977   0.281 -0.5191  0.5806  0.6167
 9425TIP3    H149766   5.737   3.896   0.325  1.3597  1.1109  0.5722
 9425TIP3    H249767   5.709   3.955   0.188 -2.1609  0.0512  0.7692
 9426TIP3   OH249768   4.927   4.428   0.950  0.1162  0.2029  0.7900
 9426TIP3    H149769   4.958   4.404   1.037  2.0573  1.2725  0.4358
 9426TIP3    H249770   5.007   4.430   0.896 -1.0325 -0.3193 -0.9833
 9427TIP3   OH249771   6.149   1.333   4.768  0.1243  0.2539 -0.5862
 9427TIP3    H149772   6.087   1.273   4.727  0.1534  0.1685 -0.5054
 9427TIP3    H249773   6.232   1.285   4.768 -0.0416 -0.0355  0.2358
 9428TIP3   OH249774   2.160   1.077  15.963  0.1587  0.1123  0.2943
 9428TIP3    H149775   2.106   1.008  15.924  0.3576 -0.0142  0.2411
 9428TIP3    H249776   2.220   1.030  16.021  1.6606  0.0359 -1.2765
 9429TIP3   OH249777   2.701   1.171  13.277 -0.5590  0.3067 -0.0557
 9429TIP3    H149778   2.761   1.238  13.244  0.8291 -0.4264  0.9307
 9429TIP3    H249779   2.756   1.111  13.326 -2.4251  0.9710  3.0207
 9430TIP3   OH249780   6.404   0.443   2.978 -0.7739 -0.1019 -0.1835
 9430TIP3    H149781   6.448   0.377   3.032  2.3585  0.2332 -2.1969
 9430TIP3    H249782   6.400   0.521   3.034 -0.3851 -0.6479  0.6198
 9431TIP3   OH249783   5.904   1.637  13.325 -0.2989  0.0842 -0.3345
 9431TIP3    H149784   5.861   1.674  13.248 -2.2948  0.0648  0.7406
 9431TIP3    H249785   5.960   1.707  13.357 -1.8757  1.1942  0.0314
 9432TIP3   OH249786   0.687   5.112  11.916 -0.2076  0.6024  0.2195
 9432TIP3    H149787   0.679   5.205  11.938  0.3847  0.7950 -0.3785
 9432TIP3    H249788   0.605   5.091  11.871  0.2505  1.1835 -0.8945
 9433TIP3   OH249789   0.074   4.357  15.411  0.3831  0.5329 -0.0528
 9433TIP3    H149790   0.077   4.283  15.351 -0.2777 -1.3474  2.1429
 9433TIP3    H249791  -0.018   4.362  15.438  0.7422  1.0675  1.1252
 9434TIP3   OH249792   2.381   6.479  14.839 -0.1375 -0.1515  0.3799
 9434TIP3    H149793   2.369   6.410  14.904 -0.0614 -1.3412 -0.8447
 9434TIP3    H249794   2.475   6.497  14.840  0.3874 -2.3615 -1.5252
 9435TIP3   OH249795   6.337   3.111  15.693  0.3659  0.1417 -0.1849
 9435TIP3    H149796   6.429   3.113  15.666  0.2118  1.0886 -0.6681
 9435TIP3    H249797   6.288   3.126  15.612 -0.1497  1.5843  0.3760
 9436TIP3   OH249798   2.284   0.866  16.217 -0.2695 -0.3423  0.3721
 9436TIP3    H149799   2.320   0.932  16.276  1.0099  0.9119 -1.7432
 9436TIP3    H249800   2.314   0.782  16.252 -0.9685  0.2482  2.4456
 9437TIP3   OH249801   6.421   2.861  13.793 -0.2930  0.0900 -0.1400
 9437TIP3    H149802   6.458   2.821  13.714  0.9523  0.9279  0.0071
 9437TIP3    H249803   6.410   2.953  13.770 -2.4804 -0.1580 -0.2337
 9438TIP3   OH249804   4.336   1.783  15.837  1.5131  0.0659 -0.1864
 9438TIP3    H149805   4.406   1.759  15.776 -1.5882 -2.3133 -3.0679
 9438TIP3    H249806   4.305   1.699  15.871  0.9355  1.1777  2.1118
 9439TIP3   OH249807   3.445   5.634   2.920  0.1029  0.2068  0.2284
 9439TIP3    H149808   3.389   5.567   2.881  1.0893 -1.3279  1.3377
 9439TIP3    H249809   3.403   5.717   2.899 -2.3186 -0.8793  0.6208
 9440TIP3   OH249810   2.133   5.803  13.842  0.0840  0.3877 -0.1212
 9440TIP3    H149811   2.151   5.745  13.916  1.7416  0.3355 -0.5464
 9440TIP3    H249812   2.038   5.804  13.836 -0.0550 -0.2845  1.4780
 9441TIP3   OH249813   1.563   0.742  15.935  0.3808 -0.4614 -0.3590
 9441TIP3    H149814   1.643   0.747  15.987 -0.7525  2.3165  1.2246
 9441TIP3    H249815   1.497   0.709  15.996 -0.7925  2.1299 -0.1760
 9442TIP3   OH249816   4.139   1.888   5.589  0.0764 -0.5039  0.3105
 9442TIP3    H149817   4.198   1.872   5.515 -1.3842 -3.5595 -0.2738
 9442TIP3    H249818   4.081   1.958   5.559 -0.7133 -1.9362 -1.5798
 9443TIP3   OH249819   6.413   1.868  15.586 -0.0214 -0.0492 -0.5089
 9443TIP3    H149820   6.376   1.950  15.552  0.9237  0.4805 -0.2616
 9443TIP3    H249821   6.475   1.896  15.653  0.6233 -0.9600 -0.7238
 9444TIP3   OH249822   2.648   1.209   2.167  0.7603 -0.2652  0.2606
 9444TIP3    H149823   2.554   1.204   2.184  0.1771  0.2962 -2.5341
 9444TIP3    H249824   2.655   1.262   2.088  3.5418  0.8568  1.2025
 9445TIP3   OH249825   3.838   6.129   3.871 -0.3496  0.1492 -0.0876
 9445TIP3    H149826   3.821   6.221   3.851 -1.2702  0.0909  0.4243
 9445TIP3    H249827   3.911   6.130   3.933 -1.7367  0.6459  1.5635
 9446TIP3   OH249828   3.236   5.187  16.948  0.3466 -0.0957  0.2331
 9446TIP3    H149829   3.304   5.206  16.883 -1.4148 -0.6280 -1.8321
 9446TIP3    H249830   3.245   5.093  16.965 -0.3298 -0.3261 -0.6225
 9447TIP3   OH249831   4.276   4.280   0.740  0.0050  0.8063 -0.3467
 9447TIP3    H149832   4.205   4.250   0.684 -0.2413 -0.1046  0.4402
 9447TIP3    H249833   4.320   4.200   0.768  0.4389  1.2772  0.3379
 9448TIP3   OH249834   0.368   4.334   1.672 -0.1583 -0.5214 -0.6848
 9448TIP3    H149835   0.303   4.404   1.664  1.6907  0.9749 -3.2497
 9448TIP3    H249836   0.388   4.331   1.766 -0.9520  1.7559 -0.4139
 9449TIP3   OH249837   4.054   3.831  12.721 -0.2817 -0.0136 -0.1246
 9449TIP3    H149838   4.144   3.855  12.740 -0.6064  0.3451  1.0074
 9449TIP3    H249839   4.029   3.772  12.792 -0.8623 -0.3000 -0.5563
 9450TIP3   OH249840   4.227   3.260   6.259 -0.3153  0.5098 -0.3080
 9450TIP3    H149841   4.281   3.182   6.249  1.9729  1.7429  1.8038
 9450TIP3    H249842   4.138   3.227   6.269  0.8045 -1.9446  2.1226
 9451TIP3   OH249843   2.312   3.101  11.553  0.1835 -0.8266  0.2086
 9451TIP3    H149844   2.291   3.099  11.647 -2.5495  1.0424 -0.3197
 9451TIP3    H249845   2.262   3.029  11.516  0.2937 -0.7983  0.0038
 9452TIP3   OH249846   3.553   0.952   1.700 -0.2921 -0.1024 -0.1892
 9452TIP3    H149847   3.458   0.956   1.685 -0.1490  0.7454 -0.8858
 9452TIP3    H249848   3.576   1.040   1.731  0.0485 -0.7060  1.3356
 9453TIP3   OH249849   0.581   2.840   5.827 -0.7854  0.5925  0.2630
 9453TIP3    H149850   0.645   2.815   5.893 -1.2470 -0.9890  0.1588
 9453TIP3    H249851   0.627   2.827   5.744 -0.6479  1.2335  0.2422
 9454TIP3   OH249852   4.657   0.497   2.082  0.9200 -0.5702 -0.9688
 9454TIP3    H149853   4.598   0.457   2.018  1.5059 -0.8315 -1.3545
 9454TIP3    H249854   4.643   0.447   2.163  0.3707 -0.4143 -0.9705
 9455TIP3   OH249855   2.095   5.430  14.345 -0.1448  0.0868 -0.2506
 9455TIP3    H149856   2.060   5.388  14.424  0.2621  0.8776  0.3551
 9455TIP3    H249857   2.176   5.384  14.327 -0.2084 -0.0555 -0.1734
 9456TIP3   OH249858   6.346   1.750  16.204 -0.7228 -0.0028 -0.5175
 9456TIP3    H149859   6.383   1.760  16.292  1.2811  0.2768 -1.3492
 9456TIP3    H249860   6.374   1.663  16.176 -2.1864 -0.4841 -0.5095
 9457TIP3   OH249861   1.187   0.492   5.510  0.6110 -0.0790  0.4204
 9457TIP3    H149862   1.205   0.569   5.565  0.3257  0.5136 -0.3061
 9457TIP3    H249863   1.245   0.424   5.545 -0.5902 -0.1492  2.3819
 9458TIP3   OH249864   3.661   3.388  15.963 -0.3845  0.2928  0.3802
 9458TIP3    H149865   3.678   3.294  15.975  0.0806  0.6725  3.0389
 9458TIP3    H249866   3.739   3.431  15.998 -0.4299  1.6847 -1.1814
 9459TIP3   OH249867   4.607   4.854   5.721  0.5742  0.3902  0.6289
 9459TIP3    H149868   4.638   4.764   5.730  1.1897  0.3813 -1.3656
 9459TIP3    H249869   4.676   4.907   5.759  0.6428  0.0588  0.9667
 9460TIP3   OH249870   5.754   0.239   2.532  0.2853  0.3371 -0.0140
 9460TIP3    H149871   5.847   0.220   2.519  0.5291  0.6812  1.1313
 9460TIP3    H249872   5.722   0.164   2.582 -0.3462 -0.3757 -1.4573
 9461TIP3   OH249873   6.555   3.944  14.160 -0.0705  0.3799 -0.2477
 9461TIP3    H149874   6.475   3.947  14.212  0.8646  0.1059  1.2290
 9461TIP3    H249875   6.525   3.929  14.070 -1.6707  0.3654  0.2797
 9462TIP3   OH249876   1.669   5.261  15.832  0.8496  0.1205  0.2548
 9462TIP3    H149877   1.682   5.172  15.801  0.3170 -0.5009  1.7241
 9462TIP3    H249878   1.678   5.254  15.927 -1.5710  1.1749  0.6029
 9463TIP3   OH249879   3.787   0.986   4.406  0.4292 -0.4761 -0.2400
 9463TIP3    H149880   3.824   1.069   4.437 -0.4075 -0.6178  1.1492
 9463TIP3    H249881   3.738   0.952   4.480 -1.4196 -0.9358 -1.6371
 9464TIP3   OH249882   0.013   3.998   2.616 -0.0531  0.4397  0.1224
 9464TIP3    H149883   0.020   3.902   2.616  1.6454  0.5437 -0.1522
 9464TIP3    H249884   0.068   4.026   2.543  1.6651  1.7400  1.8378
 9465TIP3   OH249885   2.749   3.214  12.014 -0.4649 -0.5495  0.5275
 9465TIP3    H149886   2.823   3.208  11.953  0.7745 -0.1012  1.9383
 9465TIP3    H249887   2.707   3.297  11.993  1.0970  0.5178  1.4924
 9466TIP3   OH249888   0.938   5.159  17.046  0.7620 -0.7614  0.1133
 9466TIP3    H149889   1.015   5.104  17.057  0.5722 -1.5673 -2.1509
 9466TIP3    H249890   0.887   5.114  16.979 -0.6354  0.8717  0.0503
 9467TIP3   OH249891   1.197   5.446   1.729 -0.5316 -0.3093  0.1786
 9467TIP3    H149892   1.284   5.477   1.705  0.1613 -1.5214  1.1198
 9467TIP3    H249893   1.147   5.526   1.746  0.2577  0.3993 -0.8141
 9468TIP3   OH249894   4.559   2.170  13.498  0.1049  0.0439  0.3048
 9468TIP3    H149895   4.555   2.159  13.403 -1.1444  2.7227  0.0065
 9468TIP3    H249896   4.652   2.170  13.519  0.3875 -0.5721 -0.9192
 9469TIP3   OH249897   0.743   3.605   5.860 -0.8692  0.1860  0.5324
 9469TIP3    H149898   0.831   3.638   5.841  0.2731 -1.9171  2.0346
 9469TIP3    H249899   0.727   3.629   5.951 -1.7880  0.4171  0.3139
 9470TIP3   OH249900   4.260   2.688   4.218 -0.5811  0.6957  0.3304
 9470TIP3    H149901   4.233   2.769   4.176 -1.3063  1.0052  1.3493
 9470TIP3    H249902   4.339   2.661   4.172 -0.5513  1.7816 -0.2619
 9471TIP3   OH249903   6.725   0.681   1.814 -1.1544  0.7901  0.1396
 9471TIP3    H149904   6.770   0.601   1.789 -1.1056  0.8283  0.1039
 9471TIP3    H249905   6.775   0.751   1.772 -2.0657  0.7330 -1.0966
 9472TIP3   OH249906   5.012   6.464  10.867  0.3750 -0.1063 -0.6356
 9472TIP3    H149907   5.099   6.467  10.907  0.2733 -0.4156 -0.3887
 9472TIP3    H249908   5.010   6.382  10.818  0.2211 -0.0983 -0.6425
 9473TIP3   OH249909   4.694   4.582  13.850  0.0600 -0.1175 -0.4375
 9473TIP3    H149910   4.607   4.548  13.829  1.4239 -2.0626 -3.2470
 9473TIP3    H249911   4.696   4.669  13.810 -1.2251  0.7869  1.3504
 9474TIP3   OH249912   0.985   2.852   5.885  0.3454 -0.2177  0.4698
 9474TIP3    H149913   1.037   2.864   5.805 -0.4140 -3.5548 -0.6073
 9474TIP3    H249914   1.047   2.871   5.956  0.9698  3.0000 -0.8608
 9475TIP3   OH249915   3.072   4.342  15.574 -0.6112  0.4604 -0.7540
 9475TIP3    H149916   3.021   4.387  15.642  0.8486  1.3271 -0.2007
 9475TIP3    H249917   3.153   4.392  15.568  0.8031 -1.7419 -0.5823
 9476TIP3   OH249918   1.487   5.849  10.750 -0.4411  0.4600 -0.0706
 9476TIP3    H149919   1.449   5.837  10.663 -0.5247 -0.4859  0.0877
 9476TIP3    H249920   1.447   5.780  10.803  0.1051  0.6224  0.5552
 9477TIP3   OH249921   2.112   0.810   1.949 -0.0233  1.0802 -0.5629
 9477TIP3    H149922   2.174   0.757   1.899 -2.0768  1.0118 -3.1338
 9477TIP3    H249923   2.167   0.867   2.003  2.2356 -2.5828  1.1754
 9478TIP3   OH249924   0.427   4.577  14.431 -0.1779  0.1097  0.0118
 9478TIP3    H149925   0.515   4.541  14.423 -0.2417 -0.5690  2.0176
 9478TIP3    H249926   0.433   4.639  14.505 -0.8392  1.7993 -1.2991
 9479TIP3   OH249927   1.556   0.110  16.914  0.4804 -0.3644 -0.6372
 9479TIP3    H149928   1.480   0.059  16.884 -0.7930  1.6103 -0.8369
 9479TIP3    H249929   1.549   0.194  16.869  2.4728  0.0666 -0.1994
 9480TIP3   OH249930   5.381   6.819  14.374 -0.0706  0.0029  0.2497
 9480TIP3    H149931   5.336   6.754  14.319 -0.7881  0.7208 -0.0169
 9480TIP3    H249932   5.321   6.893  14.377  1.0359  0.9113  0.0211
 9481TIP3   OH249933   6.660   4.961  11.397 -0.2479 -0.6938 -0.3392
 9481TIP3    H149934   6.677   4.903  11.323  0.2376 -1.9214  0.7180
 9481TIP3    H249935   6.614   4.905  11.461 -1.7602  0.6681 -0.2026
 9482TIP3   OH249936   3.939   2.743  15.414 -0.1385  0.5030 -0.4189
 9482TIP3    H149937   3.897   2.753  15.499 -1.0161 -2.0248 -0.5109
 9482TIP3    H249938   3.899   2.811  15.359 -3.2188 -1.0056 -0.1544
 9483TIP3   OH249939   4.580   4.242  11.615 -0.0011  0.2395  0.2576
 9483TIP3    H149940   4.641   4.172  11.637 -0.4214  0.2163  1.3683
 9483TIP3    H249941   4.507   4.231  11.675 -0.9370  0.4990 -0.8168
 9484TIP3   OH249942   1.094   5.720   2.663  0.0015 -0.3694 -0.3625
 9484TIP3    H149943   1.096   5.757   2.575 -2.2480  1.0857  0.1467
 9484TIP3    H249944   1.004   5.689   2.674  0.2442 -0.4879  1.4292
 9485TIP3   OH249945   4.615   3.377   0.974  0.3725 -0.1906 -0.3497
 9485TIP3    H149946   4.580   3.289   0.959 -0.7413 -0.1595  1.8103
 9485TIP3    H249947   4.565   3.433   0.914  0.2484 -0.8739 -0.8880
 9486TIP3   OH249948   6.242   2.125   1.176 -0.0660  0.2065 -0.1412
 9486TIP3    H149949   6.190   2.200   1.202 -1.0915 -0.5136 -0.0838
 9486TIP3    H249950   6.301   2.110   1.249 -0.0582  0.7777 -0.0317
 9487TIP3   OH249951   0.354   3.053   1.823  0.2362 -0.1045  0.3766
 9487TIP3    H149952   0.343   3.017   1.735 -0.8028  1.4012 -0.1270
 9487TIP3    H249953   0.397   3.138   1.808  0.5032 -0.0654  1.3602
 9488TIP3   OH249954   1.961   1.496  13.569 -0.6054 -1.2682  0.0864
 9488TIP3    H149955   2.005   1.568  13.613  0.1783 -0.4896 -1.9241
 9488TIP3    H249956   1.881   1.535  13.532 -0.9293 -1.7599  0.2605
 9489TIP3   OH249957   2.145   3.895  16.807 -0.4845 -0.4920 -0.0821
 9489TIP3    H149958   2.075   3.902  16.742 -0.0419 -2.2182 -0.7827
 9489TIP3    H249959   2.203   3.969  16.790 -0.5298 -0.7773 -1.4893
 9490TIP3   OH249960   1.578   0.611   4.925 -0.0093  0.2847 -0.4596
 9490TIP3    H149961   1.529   0.543   4.971  0.2730  0.6801  0.4243
 9490TIP3    H249962   1.563   0.691   4.976  0.9047  0.5741 -0.6423
 9491TIP3   OH249963   5.876   3.442   4.423 -0.4319  0.1068  0.0339
 9491TIP3    H149964   5.820   3.451   4.346  1.0001 -0.5593 -1.1146
 9491TIP3    H249965   5.960   3.414   4.388 -0.2267 -1.9080  1.9839
 9492TIP3   OH249966   5.403   4.171  13.223 -0.1269  0.5859 -0.3169
 9492TIP3    H149967   5.453   4.163  13.304 -0.6466 -0.7729 -0.1189
 9492TIP3    H249968   5.405   4.083  13.185 -2.0331  0.5997 -0.4910
 9493TIP3   OH249969   2.050   1.798  15.604  0.1403 -0.3058  0.1776
 9493TIP3    H149970   1.964   1.767  15.579 -0.2253 -1.4333  2.6368
 9493TIP3    H249971   2.035   1.887  15.638  0.1860  0.0406 -0.6854
 9494TIP3   OH249972   4.801   6.438   0.931 -0.2576 -1.1386  0.3525
 9494TIP3    H149973   4.856   6.454   0.855 -0.4864  1.8914  0.7635
 9494TIP3    H249974   4.725   6.390   0.897 -1.5763  2.3534 -1.8303
 9495TIP3   OH249975   3.874   6.295  11.195  0.1273 -1.0094 -0.3053
 9495TIP3    H149976   3.917   6.221  11.152  0.3324 -0.4778 -1.0430
 9495TIP3    H249977   3.831   6.342  11.123  1.3563  0.4834 -0.1011
 9496TIP3   OH249978   6.045   0.809   4.211  0.0485  0.7456 -0.3994
 9496TIP3    H149979   6.128   0.794   4.164 -0.0289  1.2976 -0.7166
 9496TIP3    H249980   5.979   0.805   4.142 -0.1763  0.4654 -0.1675
 9497TIP3   OH249981   5.455   5.194  13.913 -0.6339  0.1139 -0.1419
 9497TIP3    H149982   5.544   5.221  13.933 -0.4003 -0.3691 -0.5507
 9497TIP3    H249983   5.445   5.207  13.819 -0.6828 -0.7396 -0.2605
 9498TIP3   OH249984   1.025   1.881   0.716 -0.1332  0.3734  0.4128
 9498TIP3    H149985   1.046   1.967   0.681  2.0173  0.5670  2.0452
 9498TIP3    H249986   1.111   1.841   0.733 -1.0872 -2.0936 -0.3015
 9499TIP3   OH249987   2.648   2.100  14.227 -0.5519 -0.0410 -0.0073
 9499TIP3    H149988   2.586   2.039  14.268 -1.2702 -0.4653 -1.6895
 9499TIP3    H249989   2.733   2.074  14.261 -0.7605 -2.4265 -1.1597
 9500TIP3   OH249990   1.400   2.141  16.682  0.9076 -0.5265  0.4444
 9500TIP3    H149991   1.384   2.109  16.771 -0.3652  0.5930  0.6355
 9500TIP3    H249992   1.452   2.220  16.694  0.2731 -0.0685  0.2434
 9501TIP3   OH249993   0.489   2.356  14.173 -0.7507 -0.2244  0.2679
 9501TIP3    H149994   0.525   2.274  14.140 -2.6927 -1.5356  1.2638
 9501TIP3    H249995   0.419   2.378  14.112 -0.3796  0.5887  0.1288
 9502TIP3   OH249996   6.755   1.001   2.714 -0.3032  0.5706 -0.1428
 9502TIP3    H149997   6.767   1.001   2.809 -0.0857  1.4152 -0.1608
 9502TIP3    H249998   6.842   0.986   2.678 -0.2773  0.9061 -0.2185
 9503TIP3   OH249999   0.539   2.634  10.734  0.2745 -0.4811 -0.4696
 9503TIP3    H150000   0.557   2.666  10.822 -0.7204 -0.6913 -0.1793
 9503TIP3    H250001   0.620   2.592  10.706  0.8985  0.4159 -0.0222
 9504TIP3   OH250002   0.313   6.069  12.554  0.6062  0.6257  0.2251
 9504TIP3    H150003   0.234   6.118  12.576 -0.6328 -1.6041  0.8901
 9504TIP3    H250004   0.318   6.000  12.621  3.5578  1.2084  0.6803
 9505TIP3   OH250005   4.493   6.395   1.662  0.0516  0.3118 -0.5156
 9505TIP3    H150006   4.574   6.393   1.713 -0.2829 -0.4814 -0.0122
 9505TIP3    H250007   4.452   6.479   1.685 -0.0960 -0.0419  0.5202
 9506TIP3   OH250008   1.284   1.048   1.274  0.2040  0.1279 -0.2580
 9506TIP3    H150009   1.258   1.063   1.183  0.2253 -0.6578 -0.3960
 9506TIP3    H250010   1.298   1.136   1.309  0.9458  0.4137 -1.2313
 9507TIP3   OH250011   2.299   4.309  10.843 -0.0913  0.3198 -1.0774
 9507TIP3    H150012   2.359   4.235  10.848 -1.2393 -0.5465  0.5414
 9507TIP3    H250013   2.227   4.279  10.788 -2.0209 -0.9324  1.9539
 9508TIP3   OH250014   6.222   1.987  15.797  0.3335  0.2084 -0.4326
 9508TIP3    H150015   6.308   2.011  15.833  0.1506 -0.7219  0.6536
 9508TIP3    H250016   6.215   2.039  15.717  2.2933 -0.3644 -1.0070
 9509TIP3   OH250017   2.378   0.841  13.247  0.2635 -0.4383 -0.1199
 9509TIP3    H150018   2.446   0.899  13.212 -0.5912  1.0050  0.5951
 9509TIP3    H250019   2.427   0.766  13.281  1.5712  0.8714  0.9480
 9510TIP3   OH250020   6.422   1.809   5.636  0.0543  0.1370 -0.0985
 9510TIP3    H150021   6.469   1.750   5.577  0.6576 -0.8807  1.3839
 9510TIP3    H250022   6.490   1.864   5.674 -0.3536  0.8728 -0.4141
 9511TIP3   OH250023   3.680   4.841   3.775 -0.2989 -0.3608  0.0872
 9511TIP3    H150024   3.607   4.813   3.720  1.2513  0.6855 -2.5907
 9511TIP3    H250025   3.742   4.881   3.714  0.3627  3.1891  2.9225
 9512TIP3   OH250026   3.841   4.433  12.116 -0.1410  0.5323  0.6567
 9512TIP3    H150027   3.828   4.404  12.207  2.2821 -0.5898  0.7080
 9512TIP3    H250028   3.924   4.393  12.091 -0.0921  1.9855 -1.6102
 9513TIP3   OH250029   4.988   0.268  15.253 -0.3443  0.3044 -0.5242
 9513TIP3    H150030   5.047   0.210  15.205 -1.6439 -1.7574  0.3033
 9513TIP3    H250031   5.007   0.251  15.345 -2.4759 -0.6869 -0.2440
 9514TIP3   OH250032   5.098   2.928   6.529 -0.6021 -0.5680  0.1651
 9514TIP3    H150033   5.181   2.886   6.507 -0.1798  0.1497  0.3811
 9514TIP3    H250034   5.035   2.891   6.468  0.0110 -0.6275 -0.4301
 9515TIP3   OH250035   0.135   1.249   0.974 -0.1286 -0.2217 -0.0933
 9515TIP3    H150036   0.055   1.200   0.956  1.1978 -2.3324 -0.5521
 9515TIP3    H250037   0.131   1.325   0.916 -2.4245  0.4427  0.9148
 9516TIP3   OH250038   1.219   4.695   0.117  0.2324 -0.0916 -0.1229
 9516TIP3    H150039   1.175   4.658   0.194  0.3734  1.5101  0.7420
 9516TIP3    H250040   1.228   4.788   0.137  1.9875 -0.0029 -1.2767
 9517TIP3   OH250041   4.546   5.201   5.864 -0.3106  0.2739 -0.4699
 9517TIP3    H150042   4.514   5.116   5.895  0.9984 -0.2837 -0.5834
 9517TIP3    H250043   4.590   5.239   5.940 -0.3208  0.5525 -0.6049
 9518TIP3   OH250044   2.774   4.040  15.048  0.0774  0.0370 -0.3683
 9518TIP3    H150045   2.693   4.035  15.098  1.4545 -0.0463  1.8841
 9518TIP3    H250046   2.808   3.951  15.047 -0.4180 -0.1719 -2.3423
 9519TIP3   OH250047   1.160   6.716   2.913 -0.6333  0.0920  0.5026
 9519TIP3    H150048   1.251   6.704   2.938 -0.4174  0.4258 -0.1068
 9519TIP3    H250049   1.164   6.743   2.821 -1.2782  1.2813  0.8096
 9520TIP3   OH250050   5.061   5.093   0.612  0.0463  0.2251 -0.1463
 9520TIP3    H150051   5.072   5.120   0.703 -1.5166  0.7786 -0.1064
 9520TIP3    H250052   4.974   5.123   0.589  0.3610 -0.0863 -1.7772
 9521TIP3   OH250053   3.243   1.962   0.363 -0.6304  0.5747  0.1136
 9521TIP3    H150054   3.321   1.983   0.312 -0.0952 -0.4285  0.5092
 9521TIP3    H250055   3.172   1.962   0.299 -0.2423  1.1114 -0.3171
 9522TIP3   OH250056   2.958   3.664  12.350  0.0494 -0.7281 -0.4962
 9522TIP3    H150057   2.903   3.602  12.303 -0.0862 -2.3816  1.7609
 9522TIP3    H250058   3.033   3.612  12.380  0.8691  0.6101 -0.1572
 9523TIP3   OH250059   5.143   6.519   4.710 -0.4012  0.4551  0.4193
 9523TIP3    H150060   5.125   6.604   4.751  1.3809  0.6515  0.8562
 9523TIP3    H250061   5.198   6.473   4.773 -0.6558 -0.6940 -0.1847
 9524TIP3   OH250062   3.493   2.759   5.567  0.3102 -0.1848 -0.2648
 9524TIP3    H150063   3.442   2.837   5.547 -1.8588 -1.6762 -0.6754
 9524TIP3    H250064   3.573   2.793   5.609 -0.8499  2.2006  0.0963
 9525TIP3   OH250065   6.195   5.033  16.313 -0.0073  0.0656 -0.2123
 9525TIP3    H150066   6.224   5.119  16.283 -0.1945  0.3591  0.4500
 9525TIP3    H250067   6.101   5.043  16.328 -0.0026 -0.2160  0.0088
 9526TIP3   OH250068   6.070   5.262   3.731  0.0142 -0.2659 -0.5459
 9526TIP3    H150069   6.128   5.221   3.667 -0.0071  0.1719 -0.8422
 9526TIP3    H250070   6.084   5.356   3.720 -0.2271 -0.1801 -0.1311
 9527TIP3   OH250071   5.260   6.778  14.810 -0.1117  0.1894 -0.1413
 9527TIP3    H150072   5.305   6.745  14.888 -1.0038  0.9442  0.7210
 9527TIP3    H250073   5.170   6.747  14.820 -0.2461  0.3577 -0.8278
 9528TIP3   OH250074   5.058   6.642  16.438  0.9351 -0.4989 -0.9891
 9528TIP3    H150075   5.066   6.554  16.402  0.5392 -0.1619 -1.9055
 9528TIP3    H250076   5.041   6.628  16.531 -0.5526 -1.4143 -1.3864
 9529TIP3   OH250077   3.442   0.541  14.749  0.2739  0.1543  0.5715
 9529TIP3    H150078   3.421   0.457  14.790 -1.3524  0.0010 -0.5369
 9529TIP3    H250079   3.435   0.605  14.819  0.4162 -0.4947  1.1788
 9530TIP3   OH250080   5.995   4.696  12.922 -0.4840  0.2989 -0.5071
 9530TIP3    H150081   5.908   4.664  12.897 -0.5958  0.5884 -0.4829
 9530TIP3    H250082   6.050   4.618  12.921 -0.5243  0.2737 -1.5067
 9531TIP3   OH250083   6.682   4.427  14.767 -0.3169 -0.3518  0.0118
 9531TIP3    H150084   6.686   4.522  14.761 -1.1452 -0.2875  0.4483
 9531TIP3    H250085   6.695   4.396  14.678 -0.3959  0.1814 -0.1833
 9532TIP3   OH250086   4.212   5.596   2.934 -0.3293 -0.4768  0.2514
 9532TIP3    H150087   4.184   5.619   3.023  1.3877  1.2624  0.3820
 9532TIP3    H250088   4.166   5.658   2.878  0.7504  0.2818  0.1909
 9533TIP3   OH250089   1.625   1.671   0.521  0.0733 -0.2849 -0.1679
 9533TIP3    H150090   1.620   1.589   0.472 -1.0462 -0.3307  0.0161
 9533TIP3    H250091   1.633   1.644   0.612  0.7907 -0.1945 -0.2050
 9534TIP3   OH250092   6.456   6.608   5.430 -0.3791 -0.7860  0.1133
 9534TIP3    H150093   6.434   6.685   5.377  0.1268  0.9796  2.3849
 9534TIP3    H250094   6.495   6.644   5.510 -0.6654 -3.3911  1.4866
 9535TIP3   OH250095   0.480   1.768   2.920  0.8523 -0.9164 -0.1353
 9535TIP3    H150096   0.473   1.790   2.827  1.5534  1.8034  0.4015
 9535TIP3    H250097   0.404   1.714   2.937 -1.2534  1.4654 -1.5458
 9536TIP3   OH250098   3.420   0.144  16.539 -0.1710 -0.1436 -0.0232
 9536TIP3    H150099   3.372   0.078  16.490  0.8809  0.5837 -2.0818
 9536TIP3    H250100   3.478   0.093  16.596  0.4733 -1.0022 -1.4237
 9537TIP3   OH250101   5.147   4.100  12.702 -0.0531 -0.1351 -0.4393
 9537TIP3    H150102   5.057   4.068  12.698  0.3135 -1.0115 -2.6307
 9537TIP3    H250103   5.142   4.187  12.662  0.4505 -1.2177 -2.9955
 9538TIP3   OH250104   4.409   0.868  13.143  0.2510 -0.0835  0.4062
 9538TIP3    H150105   4.477   0.916  13.190  1.0476 -1.7886  1.0563
 9538TIP3    H250106   4.405   0.908  13.057  0.8070  1.2121  0.9822
 9539TIP3   OH250107   0.637   5.395  15.556  0.6069 -0.6135 -0.1297
 9539TIP3    H150108   0.719   5.422  15.514  0.4173 -0.0978 -0.1818
 9539TIP3    H250109   0.569   5.414  15.490  0.7175 -3.8418 -1.2844
 9540TIP3   OH250110   2.391   5.794  13.758 -0.0395 -0.3108  0.3399
 9540TIP3    H150111   2.394   5.707  13.796  0.9642 -1.4657 -2.2527
 9540TIP3    H250112   2.302   5.825  13.777 -1.8702 -3.5968 -2.2516
 9541TIP3   OH250113   6.378   1.224   4.810 -0.0967 -0.0050  0.4040
 9541TIP3    H150114   6.400   1.190   4.897 -0.2617  0.0127  0.4534
 9541TIP3    H250115   6.431   1.173   4.750 -2.4910 -2.3702  0.2341
 9542TIP3   OH250116   4.598   0.641   0.943  0.0377  0.0145  0.2880
 9542TIP3    H150117   4.693   0.632   0.936  0.4069  2.4133  1.8185
 9542TIP3    H250118   4.580   0.637   1.037 -1.2156  1.0681  0.1073
 9543TIP3   OH250119   5.351   2.602  15.339  0.3785  0.6987  0.8315
 9543TIP3    H150120   5.392   2.677  15.296  0.5716 -0.5340 -1.2114
 9543TIP3    H250121   5.258   2.623  15.342  0.6139  1.6914  1.7245
 9544TIP3   OH250122   0.010   2.847  12.072 -0.0824 -0.5287 -0.4236
 9544TIP3    H150123   0.083   2.819  12.127 -0.2419  0.0965  0.1247
 9544TIP3    H250124   0.013   2.790  11.996  0.9518 -0.5283 -0.3827
 9545TIP3   OH250125   2.986   5.717  12.443 -0.1118 -0.7212  0.0220
 9545TIP3    H150126   3.075   5.751  12.449 -0.0705 -0.9940  1.0844
 9545TIP3    H250127   2.944   5.771  12.377  0.1688  0.9279  1.1525
 9546TIP3   OH250128   6.570   6.805  17.288 -0.3345  0.4397 -0.2441
 9546TIP3    H150129   6.496   6.859  17.261 -1.6935 -1.2271  0.0573
 9546TIP3    H250130   6.532   6.739  17.347  1.3989 -0.3722  0.0027
 9547TIP3   OH250131   0.605   5.481  11.735  0.1073  0.0828 -0.6436
 9547TIP3    H150132   0.676   5.450  11.791 -0.6786  0.4408  0.5869
 9547TIP3    H250133   0.599   5.416  11.666  1.7779  0.1664 -0.8938
 9548TIP3   OH250134   1.839   6.521  15.876  0.2911  0.0867  0.3883
 9548TIP3    H150135   1.858   6.481  15.961 -1.1315 -0.3340  0.5211
 9548TIP3    H250136   1.914   6.578  15.859  2.6805 -3.0526 -0.0653
 9549TIP3   OH250137   1.916   3.683  13.175  0.0008  0.1891  0.5425
 9549TIP3    H150138   1.831   3.720  13.197  0.4315  0.6005  1.5105
 9549TIP3    H250139   1.905   3.650  13.086 -0.3720  2.6387 -0.3316
 9550TIP3   OH250140   0.865   5.639  12.443 -0.3845  0.1828 -0.5217
 9550TIP3    H150141   0.820   5.633  12.527  0.0685  0.2621 -0.2719
 9550TIP3    H250142   0.951   5.676  12.465 -0.5761  0.9888 -1.1232
 9551TIP3   OH250143   1.723   2.432   3.527 -0.1214  0.2230  0.6353
 9551TIP3    H150144   1.701   2.339   3.523 -1.5822  0.6103 -1.4361
 9551TIP3    H250145   1.768   2.443   3.610 -0.5523 -2.2058  1.2220
 9552TIP3   OH250146   4.271   4.291   1.168 -0.0169  0.2784  0.0812
 9552TIP3    H150147   4.327   4.363   1.197 -4.3643  3.5297  0.9404
 9552TIP3    H250148   4.225   4.263   1.247 -1.2224 -0.7688 -0.9652
 9553TIP3   OH250149   3.374   4.854   2.655 -0.1250 -0.0762  0.2513
 9553TIP3    H150150   3.396   4.922   2.718 -0.3637  0.5144 -0.2979
 9553TIP3    H250151   3.454   4.842   2.603 -0.5542  0.8506 -0.6270
 9554TIP3   OH250152   3.056   0.861  15.111  0.2413 -0.0744  0.0676
 9554TIP3    H150153   3.046   0.789  15.048 -2.3053  0.7030 -0.5058
 9554TIP3    H250154   3.096   0.821  15.188  3.8211 -0.9671 -2.1556
 9555TIP3   OH250155   3.671   6.168  15.578 -0.1953  0.4030 -0.3233
 9555TIP3    H150156   3.722   6.234  15.531  0.4175 -0.5566 -0.9959
 9555TIP3    H250157   3.608   6.136  15.514 -0.8629  0.7267  0.1652
 9556TIP3   OH250158   0.669   2.042   4.249  0.0786 -0.1280 -0.1186
 9556TIP3    H150159   0.645   1.997   4.168 -1.1879  0.9516 -0.3714
 9556TIP3    H250160   0.721   2.117   4.220  2.2757 -1.4645  0.3054
 9557TIP3   OH250161   4.290   4.200  17.264 -0.0771 -0.4584  0.1506
 9557TIP3    H150162   4.258   4.243  17.185 -0.0643 -0.9516 -0.1233
 9557TIP3    H250163   4.297   4.108  17.240  0.2112 -0.5639  0.6376
 9558TIP3   OH250164   5.407   4.598  12.483  0.5171 -0.1400 -0.3888
 9558TIP3    H150165   5.413   4.578  12.576  2.7476  0.9763 -0.2821
 9558TIP3    H250166   5.385   4.691  12.479  1.4333  0.0503 -0.9913
 9559TIP3   OH250167   1.968   3.929  13.928  0.2206 -0.7799  0.6048
 9559TIP3    H150168   1.967   3.927  14.024 -0.0058 -2.0353  0.5921
 9559TIP3    H250169   1.950   4.020  13.905  0.4546 -0.4344  1.7583
 9560TIP3   OH250170   0.850   2.445   2.324 -0.0798  0.1929  0.5693
 9560TIP3    H150171   0.944   2.462   2.318 -0.3142  1.1390 -0.5862
 9560TIP3    H250172   0.839   2.357   2.288  0.6049 -0.7365  2.5736
 9561TIP3   OH250173   5.585   4.647   5.881 -0.1198  0.4333  0.3532
 9561TIP3    H150174   5.664   4.594   5.894  0.0736  0.0703 -2.0363
 9561TIP3    H250175   5.537   4.601   5.812 -1.3906  1.7751  0.3240
 9562TIP3   OH250176   6.372   5.778  15.422 -0.0876  0.7392 -0.2252
 9562TIP3    H150177   6.283   5.815  15.430 -0.8737 -0.9910 -0.7310
 9562TIP3    H250178   6.404   5.772  15.512  0.3912  3.4004 -0.1763
 9563TIP3   OH250179   1.486   4.165  12.311 -0.9048 -0.2407 -0.3968
 9563TIP3    H150180   1.574   4.128  12.302 -0.4338  0.7175  0.0564
 9563TIP3    H250181   1.499   4.243  12.366 -2.0446 -0.1150 -0.2895
 9564TIP3   OH250182   3.070   4.577   5.020  0.4489  0.5558  0.9753
 9564TIP3    H150183   3.042   4.667   5.037 -1.3440  0.1621  0.2291
 9564TIP3    H250184   3.123   4.582   4.941  0.5163  0.9870  1.0500
 9565TIP3   OH250185   4.185   2.622  10.085  0.0404 -0.3397  0.2035
 9565TIP3    H150186   4.185   2.679  10.162 -0.3565  0.3322 -0.2901
 9565TIP3    H250187   4.194   2.533  10.121  0.2731  0.0011  0.9980
 9566TIP3   OH250188   6.454   4.526   3.849  0.1998 -0.1282  0.3589
 9566TIP3    H150189   6.484   4.489   3.932  0.7232  0.9609  0.6517
 9566TIP3    H250190   6.457   4.620   3.861  0.6020  0.0553 -1.0137
 9567TIP3   OH250191   6.482   5.037   4.781 -0.4613 -0.0882  0.2774
 9567TIP3    H150192   6.497   5.008   4.871 -1.0683 -2.3189 -0.3319
 9567TIP3    H250193   6.505   4.962   4.727 -2.2219  0.4834 -1.3139
 9568TIP3   OH250194   1.690   0.927  16.616 -0.7174  0.6780 -0.1341
 9568TIP3    H150195   1.691   1.012  16.660 -3.3715  0.8320 -0.2718
 9568TIP3    H250196   1.650   0.868  16.679 -1.6624  0.2155 -1.1336
 9569TIP3   OH250197   1.134   5.907  16.275 -0.2305  0.1366 -0.3205
 9569TIP3    H150198   1.221   5.878  16.305 -0.9154 -0.2747  1.3174
 9569TIP3    H250199   1.141   5.905  16.180  2.1730  1.9715 -0.2374
 9570TIP3   OH250200   0.239   5.966   0.750  0.5460  0.4629 -0.2034
 9570TIP3    H150201   0.163   6.023   0.757  1.3745  1.8965 -2.2515
 9570TIP3    H250202   0.272   5.959   0.840  0.0139  2.6740  0.2052
 9571TIP3   OH250203   6.356   2.859  10.549 -0.2855  0.9542 -0.0651
 9571TIP3    H150204   6.302   2.805  10.492 -1.2396  3.4989 -1.6806
 9571TIP3    H250205   6.293   2.914  10.596  0.5340 -0.6249  2.9812
 9572TIP3   OH250206   2.059   0.037   2.813  0.4338  0.9115 -0.1397
 9572TIP3    H150207   2.027   0.002   2.729 -0.7568  0.6962  0.3992
 9572TIP3    H250208   2.081   0.128   2.794 -0.7059  1.1266 -0.4710
 9573TIP3   OH250209   6.631   2.859  12.865  0.6912  0.5150  0.6764
 9573TIP3    H150210   6.672   2.773  12.855  0.2266  0.3961 -0.3064
 9573TIP3    H250211   6.566   2.863  12.795  1.6261  2.1982 -0.1347
 9574TIP3   OH250212   5.901   1.839   0.746  0.0651 -0.0905  0.2854
 9574TIP3    H150213   5.875   1.893   0.821 -1.1065 -0.5963  0.2560
 9574TIP3    H250214   5.841   1.764   0.749  1.2233 -1.0527 -0.0758
 9575TIP3   OH250215   2.034   5.038   0.236  0.4026 -0.1624 -0.1701
 9575TIP3    H150216   2.055   5.087   0.157 -0.3352 -1.8359 -1.4275
 9575TIP3    H250217   2.096   4.964   0.236 -0.8268 -1.2156 -0.1956
 9576TIP3   OH250218   2.160   6.251  13.012  0.6517 -0.1015 -0.2802
 9576TIP3    H150219   2.113   6.271  13.093 -1.3184 -1.5274 -1.0106
 9576TIP3    H250220   2.110   6.179  12.973  0.3740  1.8612 -3.7609
 9577TIP3   OH250221   3.538   1.338   5.738  0.0772  0.8065 -0.9212
 9577TIP3    H150222   3.619   1.291   5.753 -1.2938 -0.6912  2.3222
 9577TIP3    H250223   3.469   1.278   5.768 -1.9543  3.4933  0.0270
 9578TIP3   OH250224   6.572   0.795  15.625  0.8059  0.0604 -0.4039
 9578TIP3    H150225   6.577   0.776  15.719  3.4315  0.5790 -0.4164
 9578TIP3    H250226   6.649   0.849  15.607 -0.0916  0.6167 -2.7196
 9579TIP3   OH250227   5.739   2.176   4.005  0.1347 -0.0363 -0.1297
 9579TIP3    H150228   5.715   2.148   4.094  0.6056  1.3558  0.4598
 9579TIP3    H250229   5.764   2.268   4.016  0.1981  0.1378 -1.7151
 9580TIP3   OH250230   4.212   4.047  15.275 -0.4202 -0.3109  0.2520
 9580TIP3    H150231   4.189   3.967  15.228  1.0024 -0.6412  0.1062
 9580TIP3    H250232   4.140   4.107  15.255 -0.2636 -0.7252 -1.6680
 9581TIP3   OH250233   6.173   5.026   5.330  0.3328 -0.1563  0.3907
 9581TIP3    H150234   6.200   5.081   5.403  0.2013 -0.2568  0.5148
 9581TIP3    H250235   6.097   4.978   5.362  1.1713 -1.3141  0.7161
 9582TIP3   OH250236   6.663   3.309   5.588  0.1233 -0.0741 -0.4298
 9582TIP3    H150237   6.700   3.224   5.609 -0.9363  0.2819  3.0872
 9582TIP3    H250238   6.568   3.295   5.588 -0.0327  0.8795 -1.0063
 9583TIP3   OH250239   5.567   5.746  16.658  0.1501  0.2840 -0.1785
 9583TIP3    H150240   5.564   5.652  16.676 -0.3560  0.4354  0.5249
 9583TIP3    H250241   5.547   5.788  16.742  3.7569  1.0795  0.3645
 9584TIP3   OH250242   1.598   5.183  16.485 -0.2861  0.2972  0.2185
 9584TIP3    H150243   1.506   5.159  16.475 -0.1239 -0.0064 -0.6081
 9584TIP3    H250244   1.639   5.157  16.402  0.7028 -0.2793  0.8803
 9585TIP3   OH250245   6.093   0.557   5.602 -0.2190  0.5959  0.7567
 9585TIP3    H150246   6.105   0.497   5.676  0.2558 -0.1296  0.1048
 9585TIP3    H250247   6.001   0.583   5.606 -0.3205  0.1551  1.2950
 9586TIP3   OH250248   6.091   6.286  12.095 -0.4178 -0.4834 -0.5943
 9586TIP3    H150249   6.001   6.285  12.063 -0.3277 -1.1451 -0.8419
 9586TIP3    H250250   6.083   6.277  12.190 -0.5875 -1.2634 -0.6832
 9587TIP3   OH250251   4.333   5.171   3.093  0.1020  0.4665  0.6681
 9587TIP3    H150252   4.378   5.250   3.123 -2.7039  1.5847  2.1379
 9587TIP3    H250253   4.280   5.200   3.020 -1.8961  0.2323  2.0011
 9588TIP3   OH250254   5.008   2.345   5.820  0.7702  0.0546 -0.4355
 9588TIP3    H150255   5.081   2.403   5.840  0.0096  0.6852  0.5724
 9588TIP3    H250256   4.934   2.404   5.805  1.0113 -0.4561 -3.9134
 9589TIP3   OH250257   3.756   0.979  13.745 -0.3518 -0.0718 -0.0370
 9589TIP3    H150258   3.842   1.020  13.759  0.5555 -1.9506  0.1027
 9589TIP3    H250259   3.762   0.942  13.656 -1.9613  2.0096 -1.0298
 9590TIP3   OH250260   5.120   2.584  14.349 -0.1418  0.6326 -0.7527
 9590TIP3    H150261   5.204   2.609  14.388  0.7128 -0.0930 -2.0664
 9590TIP3    H250262   5.127   2.489  14.337 -0.9024  0.6585 -1.4324
 9591TIP3   OH250263   6.792   4.470   5.264  0.4197 -0.1020 -0.6179
 9591TIP3    H150264   6.764   4.540   5.205 -0.8867 -0.2845 -0.2486
 9591TIP3    H250265   6.729   4.474   5.336  1.0778 -0.8681  0.0072
 9592TIP3   OH250266   5.259   2.244  16.779  0.0548  1.7598 -0.4937
 9592TIP3    H150267   5.249   2.180  16.709  1.5941  0.2331  0.6488
 9592TIP3    H250268   5.351   2.271  16.774  0.2735  1.3450  1.1892
 9593TIP3   OH250269   3.384   4.887  11.642 -0.7754 -0.1513 -0.3598
 9593TIP3    H150270   3.466   4.904  11.594 -0.4418  1.8614  0.8537
 9593TIP3    H250271   3.397   4.801  11.682 -0.1854 -0.8748 -2.0394
 9594TIP3   OH250272   1.751   3.548   1.528  0.5059  0.1304  0.1322
 9594TIP3    H150273   1.662   3.573   1.501  0.5092 -0.0089 -0.0085
 9594TIP3    H250274   1.789   3.506   1.450  1.1039  1.2276 -0.1734
 9595TIP3   OH250275   1.438   3.004  13.499  0.2649 -0.3222  0.0581
 9595TIP3    H150276   1.353   3.033  13.531  0.0747  0.2826 -0.9628
 9595TIP3    H250277   1.448   2.916  13.534  0.2882  0.4811  2.1607
 9596TIP3   OH250278   1.228   5.806  16.048 -0.1432 -0.3401 -0.2086
 9596TIP3    H150279   1.245   5.712  16.044 -0.1030 -0.2870 -1.3277
 9596TIP3    H250280   1.288   5.845  15.985 -0.7818  0.3500 -0.4077
 9597TIP3   OH250281   5.408   4.726   3.395  0.2133  0.3031 -0.3121
 9597TIP3    H150282   5.415   4.651   3.335  0.8520 -0.3277  0.5289
 9597TIP3    H250283   5.393   4.801   3.338  1.4301 -0.1996 -1.3119
 9598TIP3   OH250284   1.089   3.851  10.848 -0.9594  0.7434  0.1625
 9598TIP3    H150285   1.153   3.865  10.919 -1.6192  1.2229  0.6678
 9598TIP3    H250286   1.073   3.757  10.849  0.0348  0.5680 -0.2182
 9599TIP3   OH250287   1.043   5.382   5.592  0.1023  0.1628  0.0320
 9599TIP3    H150288   1.065   5.432   5.513  0.9919  1.5604  1.1482
 9599TIP3    H250289   1.121   5.389   5.647  0.1329 -2.2497  0.3341
 9600TIP3   OH250290   2.989   3.831  14.743 -0.2983  0.0288  0.7875
 9600TIP3    H150291   2.912   3.865  14.697 -0.1478 -0.7570 -0.0608
 9600TIP3    H250292   2.991   3.738  14.719 -1.1565 -0.7708  3.6987
 9601TIP3   OH250293   6.661   1.672  14.230 -0.3399 -0.4378  0.2029
 9601TIP3    H150294   6.680   1.735  14.160 -0.4641 -0.7295 -0.0977
 9601TIP3    H250295   6.659   1.725  14.310  2.4482 -0.5166  0.3529
 9602TIP3   OH250296   1.046   0.372  12.802 -0.2249 -0.1240 -0.1748
 9602TIP3    H150297   0.999   0.436  12.856  0.8166 -1.5671  2.5545
 9602TIP3    H250298   1.031   0.288  12.846  0.3098 -1.4421 -2.4212
 9603TIP3   OH250299   1.621   2.125   5.708  0.2580  0.0877 -0.0445
 9603TIP3    H150300   1.642   2.217   5.725  0.7918  0.1376 -0.8870
 9603TIP3    H250301   1.549   2.128   5.645  0.7629 -0.0509 -0.6467
 9604TIP3   OH250302   4.335   6.658  15.356 -0.0651 -0.2012  0.7884
 9604TIP3    H150303   4.395   6.733  15.359  1.1113 -1.1097  0.4204
 9604TIP3    H250304   4.327   6.638  15.263 -0.8105 -0.1874  0.8534
 9605TIP3   OH250305   6.538   1.982   5.376  0.3772 -0.2476  0.0552
 9605TIP3    H150306   6.498   1.896   5.382 -0.2137  0.0272  0.1480
 9605TIP3    H250307   6.627   1.966   5.344 -0.1758 -0.7783 -1.2597
 9606TIP3   OH250308   1.377   2.698   6.321 -0.3170  0.1979  0.1529
 9606TIP3    H150309   1.425   2.758   6.379 -1.0547 -1.2703  2.3292
 9606TIP3    H250310   1.422   2.615   6.329 -2.1483 -0.7547  0.8739
 9607TIP3   OH250311   1.321   3.524  16.827 -0.0409  0.2445  0.1506
 9607TIP3    H150312   1.320   3.576  16.747 -1.4122 -1.9805 -1.3357
 9607TIP3    H250313   1.410   3.489  16.831  0.0530  0.4232 -0.3440
 9608TIP3   OH250314   2.599   5.243  11.938  0.1065  0.3388 -0.0710
 9608TIP3    H150315   2.627   5.323  11.982 -1.7799  1.3737 -0.6826
 9608TIP3    H250316   2.679   5.208  11.899  1.1029  1.4607  0.9288
 9609TIP3   OH250317   4.653   5.411   0.040 -0.0581 -0.0463  0.2708
 9609TIP3    H150318   4.596   5.346  -0.001 -0.1810  0.5025 -0.4313
 9609TIP3    H250319   4.593   5.471   0.085 -0.0547  0.6682 -0.6684
 9610TIP3   OH250320   5.250   1.096   4.441  0.1870  0.1115 -0.1479
 9610TIP3    H150321   5.241   1.003   4.464  0.2744 -0.1282 -1.0796
 9610TIP3    H250322   5.283   1.095   4.352 -2.4799  1.0758 -1.1772
 9611TIP3   OH250323   3.509   5.632  16.869 -0.5634 -0.1570 -0.0112
 9611TIP3    H150324   3.470   5.717  16.890  0.0779  0.9303 -2.9905
 9611TIP3    H250325   3.587   5.654  16.819  0.7856 -2.4760  1.0524
 9612TIP3   OH250326   1.640   0.375   4.381 -0.0568 -0.0893  0.4912
 9612TIP3    H150327   1.567   0.327   4.421  0.6900 -1.4843  0.1941
 9612TIP3    H250328   1.719   0.331   4.412  0.5927 -0.0649 -1.0481
 9613TIP3   OH250329   0.214   6.544   6.593 -0.2480  0.2976  0.2219
 9613TIP3    H150330   0.143   6.586   6.640  0.5976  0.7885  1.0863
 9613TIP3    H250331   0.204   6.573   6.502 -0.8328  0.7799  0.4414
 9614TIP3   OH250332   0.718   6.425  15.219 -0.3532 -0.3559 -0.6480
 9614TIP3    H150333   0.781   6.406  15.287  0.9399  0.1010 -1.6983
 9614TIP3    H250334   0.645   6.365  15.236  1.0926 -2.0923 -0.4464
 9615TIP3   OH250335   0.641   5.025   3.287 -0.3024 -0.0652 -0.1362
 9615TIP3    H150336   0.653   5.118   3.269  0.4141 -0.3347 -1.0596
 9615TIP3    H250337   0.547   5.016   3.306 -0.3402  0.8688  0.1239
 9616TIP3   OH250338   6.295   0.361  16.935 -0.6538 -0.4619 -0.1596
 9616TIP3    H150339   6.246   0.357  17.018  2.1635 -0.3000  1.5642
 9616TIP3    H250340   6.267   0.443  16.895 -2.6286 -0.9133  0.2550
 9617TIP3   OH250341   6.515   4.712  13.306  0.1228 -0.3377 -0.1470
 9617TIP3    H150342   6.556   4.633  13.342 -2.4512 -1.0133  1.4005
 9617TIP3    H250343   6.424   4.709  13.336 -0.3266  2.6655 -0.9796
 9618TIP3   OH250344   5.190   4.120  11.345  0.3033 -0.1150  0.3493
 9618TIP3    H150345   5.128   4.123  11.271 -2.0250  0.2051  2.2530
 9618TIP3    H250346   5.244   4.044  11.327 -0.5657 -0.3368 -1.4550
 9619TIP3   OH250347   6.237   2.502  13.721  0.2027 -0.5789 -0.1600
 9619TIP3    H150348   6.209   2.435  13.658  0.0344 -1.7032  1.0933
 9619TIP3    H250349   6.191   2.582  13.693 -1.9767 -1.6915  0.1192
 9620TIP3   OH250350   1.740   1.052  13.251 -0.6876  0.1888  0.1171
 9620TIP3    H150351   1.669   0.991  13.234 -0.6804  0.0928  0.4202
 9620TIP3    H250352   1.793   1.009  13.318  0.0444 -0.0484 -0.6034
 9621TIP3   OH250353   5.286   3.290  12.484  0.2193  0.4227  0.2481
 9621TIP3    H150354   5.208   3.234  12.483 -0.4232  1.2934  1.2910
 9621TIP3    H250355   5.317   3.287  12.574 -0.1488  2.2041  0.4537
 9622TIP3   OH250356   4.531   1.070   5.675 -0.0201 -0.5617 -1.0902
 9622TIP3    H150357   4.559   1.161   5.663  0.0155 -0.3585  0.3638
 9622TIP3    H250358   4.534   1.057   5.770  1.6626 -2.6386 -1.3970
 9623TIP3   OH250359   4.887   3.136  17.074 -0.4615 -0.2329  0.6702
 9623TIP3    H150360   4.881   3.155  16.981 -0.7362 -2.1491  0.2815
 9623TIP3    H250361   4.892   3.222  17.116 -3.2904  0.7447 -0.8954
 9624TIP3   OH250362   2.909   1.551   0.208  0.2548 -0.3431  0.3801
 9624TIP3    H150363   2.861   1.531   0.127 -1.4617  1.9930  0.7787
 9624TIP3    H250364   2.851   1.610   0.256  2.0320 -0.3011  2.5280
 9625TIP3   OH250365   4.979   0.631   5.953  0.2022  0.1607 -0.6831
 9625TIP3    H150366   5.063   0.623   5.908  0.0635 -0.3704 -0.8451
 9625TIP3    H250367   4.961   0.544   5.987 -0.4381  0.1916 -0.9237
 9626TIP3   OH250368   6.074   1.864   2.523 -0.4532 -0.3411  0.7516
 9626TIP3    H150369   6.047   1.950   2.557  0.8466 -0.1684  1.3847
 9626TIP3    H250370   6.099   1.881   2.432 -3.5263 -0.7174 -0.1942
 9627TIP3   OH250371   4.612   0.195   2.728  0.7236  0.3036  0.1475
 9627TIP3    H150372   4.662   0.131   2.780  1.6922  1.3542  0.5270
 9627TIP3    H250373   4.679   0.248   2.684 -0.0169  2.3830  1.4461
 9628TIP3   OH250374   5.202   3.243   0.525  0.2589  0.3606 -0.0729
 9628TIP3    H150375   5.179   3.275   0.612  1.9465  0.9873  0.1598
 9628TIP3    H250376   5.212   3.323   0.472  0.8377  0.0699 -0.4126
 9629TIP3   OH250377   3.799   0.210  10.634 -0.1287 -0.3404 -0.5346
 9629TIP3    H150378   3.839   0.292  10.603  0.5399 -0.5226 -0.1727
 9629TIP3    H250379   3.731   0.238  10.694  0.1184 -0.0471 -0.3912
 9630TIP3   OH250380   2.317   6.340  11.205  0.7383  0.1872 -0.0446
 9630TIP3    H150381   2.239   6.284  11.200 -0.7796  2.4106 -2.8843
 9630TIP3    H250382   2.285   6.423  11.239  1.9156  1.0455 -0.9841
 9631TIP3   OH250383   5.056   1.867   2.958  0.0018  0.0143  0.5697
 9631TIP3    H150384   5.005   1.866   3.039 -0.4279 -1.3462  0.2965
 9631TIP3    H250385   5.144   1.891   2.986 -0.8145  2.6331  1.0055
 9632TIP3   OH250386   0.522   2.582  16.690 -0.3681 -0.4952 -0.6392
 9632TIP3    H150387   0.530   2.677  16.683  1.9443 -0.1313  4.7613
 9632TIP3    H250388   0.612   2.550  16.684 -0.5777 -1.8130  2.4144
 9633TIP3   OH250389   4.057   5.913   4.544  0.0095  0.4170  0.0390
 9633TIP3    H150390   4.138   5.865   4.528 -0.6778 -0.8109  0.1964
 9633TIP3    H250391   4.030   5.945   4.458  1.4469  2.1292  0.1945
 9634TIP3   OH250392   3.673   3.027  16.308  0.3050 -0.4706  0.4866
 9634TIP3    H150393   3.591   3.018  16.258 -0.0473 -0.4681  1.0654
 9634TIP3    H250394   3.675   3.119  16.333  1.6197  0.0602 -1.4720
 9635TIP3   OH250395   3.761   2.725   4.891 -0.5975 -0.1077  0.1886
 9635TIP3    H150396   3.820   2.755   4.960  2.8115 -1.1360 -2.1298
 9635TIP3    H250397   3.770   2.789   4.821 -0.8774 -1.2037 -0.8868
 9636TIP3   OH250398   4.613   4.311   3.496 -0.4179  0.1754  0.3025
 9636TIP3    H150399   4.685   4.273   3.547 -0.5390 -0.1230  0.2551
 9636TIP3    H250400   4.653   4.336   3.412 -0.3890 -0.0881  0.2360
 9637TIP3   OH250401   6.721   5.081   2.540 -0.2362 -0.1686  0.0871
 9637TIP3    H150402   6.704   5.112   2.629  0.8227  1.5570 -0.2972
 9637TIP3    H250403   6.775   5.003   2.551  2.8786  2.0018  0.9070
 9638TIP3   OH250404   6.813   1.306   6.189  0.0875 -0.2366  0.3152
 9638TIP3    H150405   6.854   1.350   6.263 -1.4790  0.3833  0.8310
 9638TIP3    H250406   6.842   1.215   6.196 -0.9016 -0.4248  2.3290
 9639TIP3   OH250407   6.446   0.245   5.994 -0.4723 -0.3775 -0.8109
 9639TIP3    H150408   6.477   0.229   6.083 -1.2563  0.6377 -0.3355
 9639TIP3    H250409   6.350   0.242   6.001 -0.5439 -3.4097 -2.2343
 9640TIP3   OH250410   2.790   0.211  13.885 -0.0593 -0.0967  0.3261
 9640TIP3    H150411   2.746   0.263  13.819 -1.6458  0.0163  1.4575
 9640TIP3    H250412   2.797   0.124  13.847 -1.1468 -0.0778  0.0767
 9641TIP3   OH250413   5.027   3.711   1.993 -0.0497  0.4596 -0.7423
 9641TIP3    H150414   5.080   3.633   2.012 -0.6373  0.2041 -0.1112
 9641TIP3    H250415   5.065   3.747   1.913  0.8653  0.0927 -0.4848
 9642TIP3   OH250416   2.407   6.563  13.627  0.3379 -0.2088  0.0854
 9642TIP3    H150417   2.434   6.510  13.552  1.9855  0.9815 -0.1813
 9642TIP3    H250418   2.384   6.499  13.695 -0.5128 -1.2832 -1.1897
 9643TIP3   OH250419   0.484   0.950  11.682  0.0711  0.0260 -0.2093
 9643TIP3    H150420   0.566   0.999  11.671  0.9128 -1.0948  0.9208
 9643TIP3    H250421   0.491   0.877  11.620  0.0581 -0.2186  0.0730
 9644TIP3   OH250422   6.228   3.115  11.607 -0.2962 -0.2250 -0.2236
 9644TIP3    H150423   6.215   3.194  11.660 -0.3726 -1.2110  1.2425
 9644TIP3    H250424   6.156   3.117  11.544  0.2067  1.3338 -0.7767
 9645TIP3   OH250425   3.383   6.711  12.659 -0.3064 -0.7657  0.0622
 9645TIP3    H150426   3.356   6.657  12.584 -0.2637 -1.2188  0.3726
 9645TIP3    H250427   3.412   6.647  12.725  0.4026 -0.3361  0.1677
 9646TIP3   OH250428   3.765   1.849  15.305  0.1014 -0.6787 -0.4002
 9646TIP3    H150429   3.820   1.772  15.296 -0.5629 -1.1488 -0.4177
 9646TIP3    H250430   3.715   1.834  15.385  0.8945  0.3098  0.3075
 9647TIP3   OH250431   5.164   3.461  12.794  0.1317 -0.1918 -0.0243
 9647TIP3    H150432   5.080   3.508  12.798 -0.0152 -0.2185 -2.4326
 9647TIP3    H250433   5.140   3.372  12.767  0.8720 -0.3878 -0.0409
 9648TIP3   OH250434   2.165   5.796   0.563  0.2760  0.4881 -0.4055
 9648TIP3    H150435   2.178   5.890   0.580  0.5957  0.2488  0.7479
 9648TIP3    H250436   2.092   5.792   0.502 -0.3346  1.4515  0.2507
 9649TIP3   OH250437   3.309   5.241  12.649 -0.4712  0.6160  0.2308
 9649TIP3    H150438   3.316   5.336  12.641 -0.7512  0.5972 -0.2844
 9649TIP3    H250439   3.257   5.215  12.573  1.4072 -0.1735 -0.8305
 9650TIP3   OH250440   4.139   4.134   6.225 -0.4680  0.3369  0.5123
 9650TIP3    H150441   4.224   4.139   6.269  0.0350 -0.4999 -0.3419
 9650TIP3    H250442   4.101   4.051   6.253 -0.0821 -0.2683 -0.7220
 9651TIP3   OH250443   4.169   0.535  14.837  0.4961  0.0113  0.2213
 9651TIP3    H150444   4.120   0.496  14.910  0.3323 -0.6214 -0.2245
 9651TIP3    H250445   4.168   0.468  14.769  0.0695  0.8530 -0.6106
 9652TIP3   OH250446   0.216   4.977  13.700  0.4660 -0.2039 -0.7889
 9652TIP3    H150447   0.256   5.060  13.675  2.1813 -1.1230 -1.2144
 9652TIP3    H250448   0.182   4.941  13.618 -2.3884  1.1349 -0.2416
 9653TIP3   OH250449   2.764   0.295  13.350 -0.5458  0.6520 -0.3427
 9653TIP3    H150450   2.777   0.266  13.440 -0.1366 -0.2259 -0.6755
 9653TIP3    H250451   2.738   0.215  13.303  1.8034  0.5563 -1.5371
 9654TIP3   OH250452   1.844   6.207   1.078 -0.1555 -0.1893  0.0373
 9654TIP3    H150453   1.825   6.123   1.120  2.1435 -0.4180  0.6785
 9654TIP3    H250454   1.778   6.215   1.009 -1.6766 -1.5482  1.2892
 9655TIP3   OH250455   4.591   4.436   4.043  0.5189  0.4129 -0.2557
 9655TIP3    H150456   4.497   4.417   4.040  1.0310 -2.0798 -1.7340
 9655TIP3    H250457   4.597   4.531   4.036 -1.8219  0.4547 -2.0611
 9656TIP3   OH250458   2.721   6.208   4.022 -0.3932  0.3104 -0.2295
 9656TIP3    H150459   2.777   6.264   3.968  0.4416  0.1486  0.4684
 9656TIP3    H250460   2.638   6.205   3.974  0.4854 -0.2281 -1.7647
 9657TIP3   OH250461   1.376   3.068   3.027 -0.0519 -0.0890  0.2168
 9657TIP3    H150462   1.358   3.099   2.938 -1.4101 -1.1011  0.1204
 9657TIP3    H250463   1.351   3.142   3.083  0.6000  0.4727 -0.2287
 9658TIP3   OH250464   1.496   0.274  10.799 -0.0548 -0.3514 -0.2464
 9658TIP3    H150465   1.485   0.254  10.706  0.9477  0.8417 -0.6278
 9658TIP3    H250466   1.589   0.293  10.810 -0.2302 -0.0880  0.9222
 9659TIP3   OH250467   3.704   1.296  14.732 -0.3373 -0.4556  0.1519
 9659TIP3    H150468   3.638   1.362  14.751 -0.7180 -1.0068  0.7896
 9659TIP3    H250469   3.756   1.333  14.661  1.0549  1.6222  2.2037
 9660TIP3   OH250470   4.227   4.588  14.419  0.5944 -0.6812  0.4751
 9660TIP3    H150471   4.214   4.676  14.455 -0.7935  0.0191 -1.6662
 9660TIP3    H250472   4.147   4.570  14.370  2.2203 -1.8160 -1.8258
 9661TIP3   OH250473   2.495   2.845   5.067  0.0582  0.4278 -0.1010
 9661TIP3    H150474   2.476   2.906   5.138  0.6235  0.8331 -0.2923
 9661TIP3    H250475   2.522   2.901   4.994  0.3161 -0.0342 -0.3622
 9662TIP3   OH250476   4.113   5.779   4.084 -0.2653  0.2467  0.0047
 9662TIP3    H150477   4.205   5.763   4.065  0.3828  0.2644  2.8639
 9662TIP3    H250478   4.067   5.710   4.037  1.2290  0.0061 -1.1517
 9663TIP3   OH250479   1.020   4.912   0.657 -0.1549  0.1679 -0.1671
 9663TIP3    H150480   1.086   4.843   0.668 -1.0222 -0.7897 -0.9369
 9663TIP3    H250481   1.071   4.993   0.659  0.7338 -0.3923  2.1060
 9664TIP3   OH250482   3.591   4.528  16.180 -0.2141 -0.2501 -0.0311
 9664TIP3    H150483   3.612   4.525  16.273 -0.0985  1.2569  0.0062
 9664TIP3    H250484   3.676   4.531  16.136 -0.2820  1.8233 -0.0531
 9665TIP3   OH250485   3.651   5.394   3.419  0.1024 -0.3503 -0.5923
 9665TIP3    H150486   3.674   5.429   3.505  1.3105 -2.6462  0.0604
 9665TIP3    H250487   3.684   5.459   3.357  2.6104 -0.4652  0.5733
 9666TIP3   OH250488   6.523   5.164  16.881  0.0166  0.0528  0.5288
 9666TIP3    H150489   6.501   5.255  16.860  1.2349 -0.0051 -1.0731
 9666TIP3    H250490   6.587   5.139  16.815  0.4176 -1.6759  1.5491
 9667TIP3   OH250491   6.123   1.998  14.656  0.2318 -0.4731 -0.3497
 9667TIP3    H150492   6.215   1.971  14.646  0.1897 -0.2024 -1.4972
 9667TIP3    H250493   6.127   2.084  14.697  0.4130 -1.5336  1.9436
 9668TIP3   OH250494   0.160   3.966  12.012 -0.8924 -0.4430  0.1714
 9668TIP3    H150495   0.139   4.056  11.987 -0.0409 -0.2406  0.1662
 9668TIP3    H250496   0.223   3.976  12.084  1.3342 -1.0365 -1.6400
 9669TIP3   OH250497   1.338   3.414  16.547 -0.5915  0.0846 -0.1882
 9669TIP3    H150498   1.407   3.437  16.483 -0.2033  1.0302  0.5626
 9669TIP3    H250499   1.256   3.433  16.501 -0.2995  2.4004  0.1523
 9670TIP3   OH250500   2.682   6.794  11.237 -0.1623 -0.0688 -0.2026
 9670TIP3    H150501   2.696   6.841  11.155  0.0106  0.5089  0.1510
 9670TIP3    H250502   2.615   6.844  11.282  0.5861  0.2958  0.5266
 9671TIP3   OH250503   5.797   1.652  16.399  0.2781 -0.1636  0.1086
 9671TIP3    H150504   5.878   1.610  16.426  0.3979  0.1274  0.1989
 9671TIP3    H250505   5.777   1.614  16.313  0.5072 -0.2377  0.0894
 9672TIP3   OH250506   1.639   6.742   0.177 -0.9215  0.2159 -0.0824
 9672TIP3    H150507   1.648   6.723   0.271  3.1837  0.9507 -0.2238
 9672TIP3    H250508   1.608   6.833   0.174  0.9466  0.9127  0.6291
 9673TIP3   OH250509   5.427   1.036  16.031  1.0834 -0.5246 -0.0857
 9673TIP3    H150510   5.382   1.118  16.053  0.2126 -0.3017 -2.5026
 9673TIP3    H250511   5.395   0.973  16.095 -0.2946  0.3855  0.1516
 9674TIP3   OH250512   1.265   2.343  14.752 -0.2405  0.6496 -0.4466
 9674TIP3    H150513   1.196   2.284  14.782 -0.1614  0.6847 -0.1915
 9674TIP3    H250514   1.229   2.385  14.675  0.0039 -0.3264 -1.1027
 9675TIP3   OH250515   4.636   4.707   0.708 -0.8736  0.2871  0.4833
 9675TIP3    H150516   4.597   4.620   0.721  0.0082 -0.1721  0.1544
 9675TIP3    H250517   4.730   4.689   0.699 -0.8862  1.0835 -1.3715
 9676TIP3   OH250518   5.413   5.709  13.721  0.9008 -0.1728 -0.6833
 9676TIP3    H150519   5.401   5.780  13.784 -1.9975 -2.7504  1.8764
 9676TIP3    H250520   5.494   5.666  13.749 -0.6603 -1.6521  1.7913
 9677TIP3   OH250521   4.417   0.732   4.515  0.8091 -0.0005  0.7934
 9677TIP3    H150522   4.479   0.667   4.482  1.4616  0.2708  1.4713
 9677TIP3    H250523   4.430   0.731   4.610 -1.0113 -0.7519  1.0515
 9678TIP3   OH250524   0.817   4.954  15.623  0.1879 -0.0175 -0.1037
 9678TIP3    H150525   0.749   4.913  15.571 -1.9276  0.4250  2.2085
 9678TIP3    H250526   0.867   4.881  15.659  0.5076 -0.3635 -1.2514
 9679TIP3   OH250527   0.298   2.211  12.210 -0.3852  0.4040  0.0997
 9679TIP3    H150528   0.323   2.302  12.224 -0.4121  0.3183  0.7371
 9679TIP3    H250529   0.366   2.160  12.254 -0.6375  0.1312  0.1802
 9680TIP3   OH250530   4.653   2.954   4.407 -0.2437 -0.5153 -0.5027
 9680TIP3    H150531   4.707   2.882   4.442  0.5245 -0.8080 -2.2261
 9680TIP3    H250532   4.563   2.927   4.424  0.0214 -2.1395 -1.5904
 9681TIP3   OH250533   4.178   5.070   3.313 -0.0237 -0.3016 -0.2407
 9681TIP3    H150534   4.239   5.094   3.243  0.3156 -1.0866 -0.2169
 9681TIP3    H250535   4.112   5.016   3.269 -0.7498  0.6048 -0.2822
 9682TIP3   OH250536   5.054   2.792   3.740 -0.0367  0.5102 -0.0091
 9682TIP3    H150537   5.131   2.738   3.756 -0.6409 -0.5495 -0.6194
 9682TIP3    H250538   5.015   2.756   3.660 -0.5071  1.7903 -0.3732
 9683TIP3   OH250539   1.752   2.279  11.928  0.7421 -0.3858  0.1374
 9683TIP3    H150540   1.750   2.356  11.871  0.1426  0.0058  0.6811
 9683TIP3    H250541   1.711   2.210  11.876  1.0344 -0.2682 -0.2507
 9684TIP3   OH250542   5.992   5.890   1.009 -0.2022  0.3272 -0.3495
 9684TIP3    H150543   5.932   5.959   0.981 -3.2691 -1.8250  0.6450
 9684TIP3    H250544   5.951   5.853   1.087  1.3375 -2.6112 -0.8582
 9685TIP3   OH250545   0.183   6.224  12.915  0.0371  0.1747 -0.1304
 9685TIP3    H150546   0.183   6.222  12.819  0.0353 -0.0216 -0.1249
 9685TIP3    H250547   0.203   6.315  12.937 -0.0627  0.2418 -0.3177
 9686TIP3   OH250548   2.053   4.415  12.443 -0.0962  0.1489 -0.3254
 9686TIP3    H150549   2.056   4.429  12.538  0.4371  0.7074 -0.4215
 9686TIP3    H250550   2.103   4.335  12.428  0.8585  0.7330 -0.2631
 9687TIP3   OH250551   0.564   0.722  11.215  0.0943  0.1836 -0.2287
 9687TIP3    H150552   0.600   0.749  11.130  1.0108 -2.8193 -0.8549
 9687TIP3    H250553   0.512   0.645  11.195  0.3515 -0.5890  1.9712
 9688TIP3   OH250554   1.355   0.833   4.543 -0.0367 -0.1657 -0.0804
 9688TIP3    H150555   1.393   0.909   4.588  1.1329 -0.4940 -0.4890
 9688TIP3    H250556   1.385   0.758   4.593  0.3252 -0.4630 -0.7341
 9689TIP3   OH250557   6.507   5.892   3.422  0.1501 -0.0097  0.6707
 9689TIP3    H150558   6.419   5.915   3.452  0.6595  0.5170  1.7914
 9689TIP3    H250559   6.565   5.941   3.480  1.1860 -0.4334 -0.0023
 9690TIP3   OH250560   2.586   3.994   3.285 -0.0420  0.3157 -0.4140
 9690TIP3    H150561   2.651   4.015   3.218 -0.6633  1.7547 -0.5790
 9690TIP3    H250562   2.638   3.984   3.365  0.5149  0.3604 -0.7646
 9691TIP3   OH250563   4.905   6.755   5.207 -0.0518 -0.3711 -0.2525
 9691TIP3    H150564   4.881   6.693   5.137 -1.0170 -3.0242  2.3175
 9691TIP3    H250565   4.985   6.719   5.244  1.0951  1.6652 -0.6876
 9692TIP3   OH250566   5.561   6.339  15.217 -0.0427  0.1303  0.0393
 9692TIP3    H150567   5.520   6.253  15.216 -0.1394  0.1794 -0.2689
 9692TIP3    H250568   5.501   6.394  15.269  0.5117 -0.2265  1.0781
 9693TIP3   OH250569   2.499   2.414  10.893 -0.1966 -0.4133  0.1584
 9693TIP3    H150570   2.489   2.330  10.847  0.3056 -0.3064 -0.1467
 9693TIP3    H250571   2.417   2.460  10.876 -0.0401 -0.3978 -0.5868
 9694TIP3   OH250572   4.581   0.156  11.314 -0.4062  0.3147  0.2487
 9694TIP3    H150573   4.519   0.083  11.314 -0.7039  0.5712  0.4378
 9694TIP3    H250574   4.662   0.117  11.279 -0.8089  0.1037 -0.4788
 9695TIP3   OH250575   5.262   2.622   3.433 -0.0591  0.7365  0.7909
 9695TIP3    H150576   5.309   2.699   3.465  0.1827  1.0748 -0.3584
 9695TIP3    H250577   5.171   2.637   3.460  0.1051  1.1102  1.1486
 9696TIP3   OH250578   0.652   1.345   4.561  0.0161 -0.2976 -0.2718
 9696TIP3    H150579   0.635   1.260   4.602  0.6418  1.1045  3.0199
 9696TIP3    H250580   0.747   1.352   4.556 -0.0381 -0.1231 -1.3536
 9697TIP3   OH250581   3.725   6.528  11.965 -0.3454 -0.0384  0.4376
 9697TIP3    H150582   3.784   6.599  11.989  0.7153 -1.3005  1.7408
 9697TIP3    H250583   3.694   6.550  11.877  1.1666  1.2419  0.2030
 9698TIP3   OH250584   6.690   2.071   1.244 -0.1343  0.0838 -0.1084
 9698TIP3    H150585   6.645   2.119   1.175  0.3254  1.5814  0.6038
 9698TIP3    H250586   6.732   1.997   1.200  0.0323  0.9478 -1.4070
 9699TIP3   OH250587   3.943   6.465   5.030 -0.1886  0.0237  0.8991
 9699TIP3    H150588   3.854   6.460   4.996  0.6691  0.9409 -1.6078
 9699TIP3    H250589   3.947   6.550   5.074 -0.3003  0.3662  0.2521
 9700TIP3   OH250590   2.263   3.014   2.163  0.1271 -0.8501  0.3309
 9700TIP3    H150591   2.336   2.965   2.124 -0.1869 -2.3998  1.6745
 9700TIP3    H250592   2.305   3.083   2.213  0.6952 -1.7663  1.1377
 9701TIP3   OH250593   3.802   3.260  12.706  0.4338 -0.3409 -0.0888
 9701TIP3    H150594   3.870   3.195  12.688  1.2884  0.2996  0.7602
 9701TIP3    H250595   3.793   3.308  12.624  3.1977  1.5727  0.6493
 9702TIP3   OH250596   1.223   5.650  12.701 -0.2606  0.2991  0.3265
 9702TIP3    H150597   1.316   5.666  12.688  0.1907 -1.8234  0.8856
 9702TIP3    H250598   1.196   5.717  12.764  1.8082 -1.5872  3.3282
 9703TIP3   OH250599   6.098   5.332  15.967 -0.1700  0.1582  0.2118
 9703TIP3    H150600   6.138   5.309  16.051 -0.0978 -2.1828 -0.4324
 9703TIP3    H250601   6.166   5.311  15.902 -1.9018 -2.5423 -0.7877
 9704TIP3   OH250602   5.788   1.118   1.717  0.2796  0.1300 -0.5645
 9704TIP3    H150603   5.838   1.194   1.689 -0.6439  1.1073  0.3670
 9704TIP3    H250604   5.722   1.154   1.776  0.6079 -1.5504  0.8536
 9705TIP3   OH250605   2.604   4.239  15.972 -0.5405  0.0107 -0.5535
 9705TIP3    H150606   2.587   4.321  15.926  2.9721  1.3741  0.4821
 9705TIP3    H250607   2.629   4.178  15.903 -0.2469  0.6344 -1.0067
 9706TIP3   OH250608   5.446   2.696  12.195  0.5654  0.5730 -0.1137
 9706TIP3    H150609   5.491   2.725  12.116 -1.0835  2.1653 -0.5067
 9706TIP3    H250610   5.402   2.775  12.227 -0.7317 -0.6083  1.0457
 9707TIP3   OH250611   0.036   2.213  15.640 -0.0143 -0.4570  0.2139
 9707TIP3    H150612   0.059   2.244  15.727  0.9183  0.7607 -0.4435
 9707TIP3    H250613   0.120   2.205  15.594 -0.5214 -0.7232 -0.6904
 9708TIP3   OH250614   6.105   5.913  12.526 -0.6658  0.3631  0.0910
 9708TIP3    H150615   6.094   5.827  12.567  1.4547  0.6567  1.3573
 9708TIP3    H250616   6.072   5.901  12.437 -0.7762 -1.6618  0.3727
 9709TIP3   OH250617   1.667   3.584  17.042 -0.3086 -0.5426 -0.0265
 9709TIP3    H150618   1.612   3.521  16.996 -0.0228 -0.0879 -1.0092
 9709TIP3    H250619   1.748   3.536  17.060  0.1446 -0.2907 -1.3147
 9710TIP3   OH250620   2.215   4.696  17.138 -0.3807  0.1642 -0.0870
 9710TIP3    H150621   2.161   4.618  17.127 -1.0386  0.7745 -1.2863
 9710TIP3    H250622   2.177   4.741  17.213 -0.8990  0.0539 -0.2763
 9711TIP3   OH250623   6.186   1.010   0.753  0.4832 -0.0993  0.7665
 9711TIP3    H150624   6.135   1.064   0.694 -1.3026 -2.6428 -0.1076
 9711TIP3    H250625   6.194   1.062   0.833 -1.2022  1.4106 -0.0199
 9712TIP3   OH250626   2.944   3.550  11.706  0.0979 -0.0277  0.1904
 9712TIP3    H150627   2.931   3.457  11.690 -1.9619 -0.2835  2.8992
 9712TIP3    H250628   2.857   3.582  11.732  0.9936  2.4236  0.2987
 9713TIP3   OH250629   6.758   5.162   2.988  0.2427 -0.2347  0.3452
 9713TIP3    H150630   6.810   5.191   2.913 -2.6442  1.9611 -0.9076
 9713TIP3    H250631   6.813   5.096   3.031  3.5264  1.1188 -1.5552
 9714TIP3   OH250632   5.511   1.713  14.077 -0.2281  0.3125  0.2036
 9714TIP3    H150633   5.595   1.706  14.031  0.1476  0.3994  0.8705
 9714TIP3    H250634   5.465   1.783  14.031  0.3005  0.6634  0.1988
 9715TIP3   OH250635   3.791   2.237   0.806  0.0847 -0.0682 -0.3927
 9715TIP3    H150636   3.740   2.156   0.796  1.3468 -1.0599  0.8869
 9715TIP3    H250637   3.782   2.282   0.722 -1.0901 -1.2694 -0.9308
 9716TIP3   OH250638   3.209   3.388  10.648 -0.5515 -0.0837 -0.6453
 9716TIP3    H150639   3.255   3.371  10.566 -1.3457 -1.7508 -0.7628
 9716TIP3    H250640   3.126   3.342  10.639  0.7143 -3.2553  2.4166
 9717TIP3   OH250641   0.057   1.807  16.278 -0.5898 -0.4336 -0.1702
 9717TIP3    H150642   0.046   1.746  16.205 -0.9820 -0.3939 -0.1405
 9717TIP3    H250643   0.143   1.847  16.263  0.0049 -1.5583  0.2322
 9718TIP3   OH250644   4.725   1.389   3.939 -0.6364 -0.1456 -0.1613
 9718TIP3    H150645   4.655   1.454   3.924 -2.2199 -2.0346 -1.2100
 9718TIP3    H250646   4.797   1.419   3.884 -1.2615  0.8872 -0.4341
 9719TIP3   OH250647   3.423   5.813   3.291 -0.5612  0.3662 -0.0837
 9719TIP3    H150648   3.332   5.837   3.273 -0.3978  0.5136 -0.7052
 9719TIP3    H250649   3.473   5.850   3.219  0.0743  0.8056  0.5783
 9720TIP3   OH250650   4.034   2.063   5.249  1.1893  0.0841  0.1369
 9720TIP3    H150651   4.063   2.131   5.310 -0.7733 -0.0493  1.2581
 9720TIP3    H250652   4.036   2.106   5.163  1.6492  1.0136  0.6007
 9721TIP3   OH250653   5.105   3.639  14.638  0.2894 -0.5908  0.3114
 9721TIP3    H150654   5.059   3.579  14.697  0.4851 -0.7660  0.2877
 9721TIP3    H250655   5.196   3.608  14.639  0.5313  0.1082  0.8168
 9722TIP3   OH250656   1.908   5.221   1.988  1.0012 -0.4345  0.7117
 9722TIP3    H150657   1.889   5.217   1.894  1.2701  4.1180  0.3781
 9722TIP3    H250658   1.839   5.168   2.028 -0.5448 -0.4893 -1.8872
 9723TIP3   OH250659   6.243   4.513  13.682 -0.4930 -0.3337 -0.4332
 9723TIP3    H150660   6.232   4.430  13.636  0.2273 -0.1104 -1.0304
 9723TIP3    H250661   6.166   4.520  13.738 -0.3045 -1.6383  0.0003
 9724TIP3   OH250662   2.955   2.778   2.693  0.4435 -0.1016 -0.0204
 9724TIP3    H150663   2.869   2.807   2.662 -1.0827 -1.4282  2.8220
 9724TIP3    H250664   2.985   2.716   2.626 -1.3784 -0.5882 -0.4031
 9725TIP3   OH250665   2.121   5.467  15.521 -0.0426  0.5082 -0.2335
 9725TIP3    H150666   2.075   5.500  15.599 -0.6017 -0.2205 -0.2499
 9725TIP3    H250667   2.207   5.441  15.554 -0.8456 -1.3493  0.4880
 9726TIP3   OH250668   1.290   5.571  15.336 -0.1407  0.1008 -0.4513
 9726TIP3    H150669   1.361   5.514  15.366 -0.4559 -0.1670 -0.2117
 9726TIP3    H250670   1.316   5.597  15.247 -0.2663 -0.8792 -0.7801
 9727TIP3   OH250671   1.224   3.947   3.696  0.2783  1.0089 -0.0349
 9727TIP3    H150672   1.256   3.959   3.786  0.3415 -0.1852  0.1209
 9727TIP3    H250673   1.157   3.879   3.704 -0.2586  1.4465 -0.7880
 9728TIP3   OH250674   2.017   6.235  15.274 -0.5299 -0.1266  0.4276
 9728TIP3    H150675   2.050   6.190  15.196 -0.8813 -1.0650  0.8061
 9728TIP3    H250676   1.928   6.262  15.250 -0.1520  0.7702  0.0417
 9729TIP3   OH250677   1.015   0.546   3.960  0.4170 -0.2249  0.6613
 9729TIP3    H150678   1.021   0.570   4.053  1.9450 -1.0302  0.7834
 9729TIP3    H250679   1.097   0.501   3.941  0.4303  0.5736 -1.2850
 9730TIP3   OH250680   6.497   4.898  11.125 -0.1001  0.7835 -0.2175
 9730TIP3    H150681   6.413   4.852  11.118 -0.2057  0.9306  0.0990
 9730TIP3    H250682   6.488   4.975  11.070  0.3146  0.0696 -1.2989
 9731TIP3   OH250683   1.230   2.780   1.647  0.1605  0.0648  0.7604
 9731TIP3    H150684   1.308   2.835   1.653 -0.0938  0.2736  2.4371
 9731TIP3    H250685   1.260   2.694   1.678  0.0961 -0.2604 -0.0684
 9732TIP3   OH250686   1.928   5.672  16.875  0.4640 -0.5333  0.1912
 9732TIP3    H150687   2.002   5.733  16.873 -0.5481  0.7049 -0.7787
 9732TIP3    H250688   1.865   5.713  16.934  0.7592 -1.8482  1.4301
 9733TIP3   OH250689   4.082   5.437  12.270  0.1454  0.0744  0.1497
 9733TIP3    H150690   4.111   5.505  12.331  0.9777  0.3681 -0.5760
 9733TIP3    H250691   4.137   5.448  12.193 -0.3795 -0.7983 -0.3586
 9734TIP3   OH250692   5.352   3.245   0.279  0.6303  0.2042  0.6551
 9734TIP3    H150693   5.332   3.303   0.352 -0.6827  0.0780  0.4046
 9734TIP3    H250694   5.433   3.201   0.304  0.5444  0.6593  1.7334
 9735TIP3   OH250695   1.126   2.853   5.643  0.2734 -0.0571 -0.0006
 9735TIP3    H150696   1.182   2.895   5.578 -0.8605 -0.0313 -0.9818
 9735TIP3    H250697   1.165   2.767   5.658  0.8368  0.1457 -0.3108
 9736TIP3   OH250698   4.264   4.319   3.238 -0.1798  0.2071 -0.1792
 9736TIP3    H150699   4.292   4.301   3.328  0.1770 -0.1133 -0.3544
 9736TIP3    H250700   4.169   4.325   3.244 -0.1031  1.0814  0.3801
 9737TIP3   OH250701   3.240   4.054   5.225  0.1159  0.0078  0.1368
 9737TIP3    H150702   3.186   4.079   5.150  0.0559 -1.0803 -0.1967
 9737TIP3    H250703   3.244   3.958   5.220 -0.5218 -0.1290  1.9516
 9738TIP3   OH250704   4.651   4.428  13.480  0.3714 -0.3186 -0.0025
 9738TIP3    H150705   4.579   4.483  13.511  1.3913  0.9094  0.1699
 9738TIP3    H250706   4.677   4.467  13.397  1.3812 -0.2974  0.3290
 9739TIP3   OH250707   1.550   3.804  16.913 -0.2081 -0.4845 -0.3026
 9739TIP3    H150708   1.555   3.758  16.829 -0.5342 -1.6633  0.3002
 9739TIP3    H250709   1.579   3.739  16.977  0.3101  0.4959  0.4690
 9740TIP3   OH250710   3.717   6.308   3.113 -0.2067 -0.0850 -0.1004
 9740TIP3    H150711   3.766   6.226   3.110  0.9497  0.5454  0.7350
 9740TIP3    H250712   3.770   6.369   3.061 -0.8203  0.2447 -0.3377
 9741TIP3   OH250713   2.792   0.814  14.814  0.3802 -0.8054  0.9772
 9741TIP3    H150714   2.710   0.851  14.782 -1.4957 -4.0688  1.8358
 9741TIP3    H250715   2.839   0.787  14.735 -0.3349 -0.9251  0.5939
 9742TIP3   OH250716   2.990   6.601  10.530  0.5728 -0.3974 -1.0589
 9742TIP3    H150717   3.037   6.538  10.474 -0.3631 -0.0022 -2.3262
 9742TIP3    H250718   3.054   6.627  10.596  1.3298 -1.8194 -1.1975
 9743TIP3   OH250719   1.824   5.030   4.000  0.5831 -0.0733  0.4712
 9743TIP3    H150720   1.818   5.014   3.906 -0.0032 -1.2361  0.6876
 9743TIP3    H250721   1.779   4.955   4.039  2.8822 -0.8008  1.7533
 9744TIP3   OH250722   4.912   4.956  12.314 -1.0039  0.2821 -0.0975
 9744TIP3    H150723   4.822   4.984  12.296 -1.6687 -0.8603  1.3296
 9744TIP3    H250724   4.905   4.862  12.330  0.1682  0.4948  1.7925
 9745TIP3   OH250725   6.465   0.208   4.247  0.1815 -0.0238  0.7270
 9745TIP3    H150726   6.433   0.119   4.233  0.5633 -0.1834  0.8662
 9745TIP3    H250727   6.491   0.238   4.160  1.8420 -0.7407  0.9494
 9746TIP3   OH250728   6.357   3.279  14.130 -0.1499 -0.0349 -0.2466
 9746TIP3    H150729   6.426   3.332  14.171  1.1689 -0.8919 -1.2894
 9746TIP3    H250730   6.322   3.334  14.060  0.0269  0.1069 -0.2234
 9747TIP3   OH250731   6.450   5.421  11.700  0.0461  0.9218  0.3619
 9747TIP3    H150732   6.504   5.344  11.681 -0.7759  0.2334  0.7840
 9747TIP3    H250733   6.400   5.436  11.620 -0.4647  0.4640  0.5972
 9748TIP3   OH250734   4.722   4.999  16.710  0.5094 -0.1708 -0.4036
 9748TIP3    H150735   4.684   5.016  16.624 -1.5337 -0.1182  0.5005
 9748TIP3    H250736   4.719   5.083  16.755  1.4482 -0.2297 -0.2173
 9749TIP3   OH250737   2.176   3.244   5.946 -0.0289  0.0195 -0.2881
 9749TIP3    H150738   2.186   3.201   5.861 -2.3259  0.7061 -0.9193
 9749TIP3    H250739   2.206   3.178   6.009 -0.7096 -1.4317 -1.4440
 9750TIP3   OH250740   4.098   0.502  11.182 -0.2119  0.3942 -0.3539
 9750TIP3    H150741   4.123   0.590  11.210 -0.7457  0.2295  0.6461
 9750TIP3    H250742   4.144   0.444  11.241 -1.2345  0.0414  0.1111
 9751TIP3   OH250743   3.056   0.843  14.615 -0.3590 -0.0240 -0.1997
 9751TIP3    H150744   3.112   0.815  14.542 -0.0227  0.6278 -0.1907
 9751TIP3    H250745   3.117   0.856  14.688 -0.8568 -2.2018  0.6658
 9752TIP3   OH250746   3.538   5.405  14.489 -0.4255  0.3686 -0.2068
 9752TIP3    H150747   3.499   5.400  14.576 -0.6146 -0.3124 -0.3229
 9752TIP3    H250748   3.567   5.496  14.480  1.5495 -0.0597  1.4083
 9753TIP3   OH250749   2.380   1.559  16.908  0.0443  0.2581  0.5502
 9753TIP3    H150750   2.421   1.489  16.857  0.8782  1.7265 -0.8604
 9753TIP3    H250751   2.351   1.516  16.989  0.4211 -1.7242 -0.3253
 9754TIP3   OH250752   5.676   4.050  12.235 -0.3820  0.6313  0.0744
 9754TIP3    H150753   5.715   3.967  12.209  0.0006  0.9497 -0.3741
 9754TIP3    H250754   5.582   4.035  12.231 -0.3140 -0.0660  0.9118
 9755TIP3   OH250755   2.621   3.293  14.964  0.6504 -0.2127 -0.1909
 9755TIP3    H150756   2.541   3.248  14.990  0.8487  0.6979  2.1038
 9755TIP3    H250757   2.593   3.381  14.940  0.4578 -1.0624 -3.3125
 9756TIP3   OH250758   6.626   5.146   5.422 -0.0650 -0.5787  0.1570
 9756TIP3    H150759   6.614   5.053   5.403 -1.0595 -0.2818 -0.7547
 9756TIP3    H250760   6.584   5.191   5.348  1.0490  0.5853  0.2072
 9757TIP3   OH250761   2.332   4.317  11.345 -0.3913 -0.7506  0.1504
 9757TIP3    H150762   2.272   4.310  11.419 -0.3248 -0.7523  0.2047
 9757TIP3    H250763   2.276   4.340  11.271 -0.2935  0.5618  0.4670
 9758TIP3   OH250764   5.536   4.581   4.700  0.5211 -0.7182  0.4955
 9758TIP3    H150765   5.453   4.614   4.668  0.9496  0.2618  0.3688
 9758TIP3    H250766   5.585   4.660   4.726  1.0939 -1.3264  1.3224
 9759TIP3   OH250767   0.335   1.621  15.460 -0.0176  0.5009 -0.4642
 9759TIP3    H150768   0.345   1.668  15.377  0.8340  1.2198  0.0337
 9759TIP3    H250769   0.411   1.648  15.511 -0.1999 -0.4551  0.3027
 9760TIP3   OH250770   2.772   6.641  14.978  0.2871  0.4685  0.2374
 9760TIP3    H150771   2.729   6.693  15.046 -2.9939 -2.0355  0.1874
 9760TIP3    H250772   2.822   6.575  15.025  1.2166  1.1647  0.2424
 9761TIP3   OH250773   4.262   6.060   1.160  0.0407  0.3671 -0.3014
 9761TIP3    H150774   4.272   6.030   1.251  1.6046  2.2022  0.1619
 9761TIP3    H250775   4.221   6.147   1.168 -1.8116 -0.3664 -1.4757
 9762TIP3   OH250776   5.684   3.529   2.148 -0.0359 -1.0825  0.0683
 9762TIP3    H150777   5.591   3.517   2.133 -0.6130  2.0293  0.8555
 9762TIP3    H250778   5.710   3.596   2.085  1.3731 -0.9079  0.8124
 9763TIP3   OH250779   0.214   4.823   4.047 -0.2606  0.0300  0.2580
 9763TIP3    H150780   0.138   4.773   4.021 -1.0502  0.6517  1.3419
 9763TIP3    H250781   0.279   4.758   4.072 -1.3141 -0.4571  1.7630
 9764TIP3   OH250782   4.143   1.973  11.453 -0.4825 -0.5644 -0.3282
 9764TIP3    H150783   4.205   1.949  11.521 -0.9395  0.3089  0.4018
 9764TIP3    H250784   4.099   2.052  11.486 -0.2649  0.2455 -1.8863
 9765TIP3   OH250785   2.631   6.695   5.522 -0.1879 -0.0967  0.1781
 9765TIP3    H150786   2.570   6.622   5.517 -0.6343  0.1850  1.4229
 9765TIP3    H250787   2.661   6.707   5.431  0.9857 -2.7490  0.1454
 9766TIP3   OH250788   0.478   6.290   4.000  0.7547 -0.4367 -0.3726
 9766TIP3    H150789   0.450   6.224   3.937  2.2322 -1.4721  0.0119
 9766TIP3    H250790   0.410   6.291   4.067 -0.7989  0.6290 -1.9285
 9767TIP3   OH250791   4.250   5.902   2.224  0.3608  0.7781  0.0825
 9767TIP3    H150792   4.208   5.841   2.164  0.2262  1.2411 -0.3011
 9767TIP3    H250793   4.217   5.877   2.311 -0.4995  0.9603 -0.1853
 9768TIP3   OH250794   4.483   4.884  12.947 -0.3292  1.0309 -0.7009
 9768TIP3    H150795   4.557   4.943  12.959  0.2480  0.2623 -0.3948
 9768TIP3    H250796   4.522   4.796  12.949 -1.2882  0.6061 -0.2807
 9769TIP3   OH250797   3.723   0.359   6.395 -0.0907  0.0275 -0.0780
 9769TIP3    H150798   3.683   0.293   6.451 -0.1645  1.4519  1.5944
 9769TIP3    H250799   3.726   0.438   6.449  2.0988  0.7927 -1.2430
 9770TIP3   OH250800   5.636   0.423   0.285 -0.7782  0.4642  0.2994
 9770TIP3    H150801   5.545   0.403   0.262 -1.4353  0.4805  2.7366
 9770TIP3    H250802   5.634   0.516   0.308 -0.1768  0.4023  0.5949
 9771TIP3   OH250803   6.314   1.827  16.771  0.2379  0.2084  0.4714
 9771TIP3    H150804   6.238   1.814  16.829 -1.4179 -1.0271 -1.8982
 9771TIP3    H250805   6.314   1.921  16.753 -0.9843  0.1535  0.1563
 9772TIP3   OH250806   0.830   1.864  14.168  0.3907  0.1393 -0.0769
 9772TIP3    H150807   0.809   1.941  14.222  2.7066  1.0170 -0.3584
 9772TIP3    H250808   0.924   1.850  14.183  0.0470 -2.4883 -0.2430
 9773TIP3   OH250809   1.691   5.655  12.453 -0.0956  0.5333 -0.0393
 9773TIP3    H150810   1.768   5.624  12.405  0.7171  0.8416  1.0488
 9773TIP3    H250811   1.692   5.750  12.442 -0.3215  0.5365 -0.0292
 9774TIP3   OH250812   0.531   4.876   0.114  0.2549 -0.0770  0.0209
 9774TIP3    H150813   0.626   4.876   0.118  0.3735 -0.6521 -2.2277
 9774TIP3    H250814   0.506   4.965   0.138  1.4625  0.6284 -1.2747
 9775TIP3   OH250815   1.780   2.806  16.249 -0.1021  0.4302  0.2364
 9775TIP3    H150816   1.858   2.844  16.208  1.4442 -1.4665  1.3326
 9775TIP3    H250817   1.707   2.841  16.198  1.5108  1.3776 -1.5090
 9776TIP3   OH250818   6.512   6.774   3.276  0.4799 -0.0410 -0.5963
 9776TIP3    H150819   6.587   6.731   3.318  0.6279  0.7719 -0.0268
 9776TIP3    H250820   6.503   6.857   3.322 -1.9900 -0.9514  0.6234
 9777TIP3   OH250821   4.228   6.404   6.043 -0.3484  0.5370 -0.5895
 9777TIP3    H150822   4.258   6.486   6.082 -0.6005 -0.1311  1.0497
 9777TIP3    H250823   4.169   6.430   5.973 -1.0440  1.7499  0.4307
 9778TIP3   OH250824   0.579   5.882   5.387  0.1920 -0.3380 -0.1690
 9778TIP3    H150825   0.580   5.907   5.480 -0.4804 -0.4075 -0.1442
 9778TIP3    H250826   0.502   5.826   5.378 -1.1695  1.6899 -1.3115
 9779TIP3   OH250827   6.781   2.145   0.250 -0.6660 -0.2182 -0.1815
 9779TIP3    H150828   6.832   2.205   0.305 -1.1293 -0.0837  0.1114
 9779TIP3    H250829   6.808   2.164   0.161  0.1968 -0.5307  0.0093
 9780TIP3   OH250830   6.705   2.516  11.341  0.5116  0.1520 -0.2723
 9780TIP3    H150831   6.679   2.521  11.249  0.3231 -2.0977 -0.3542
 9780TIP3    H250832   6.755   2.435  11.348  1.1455  0.6693  1.4724
 9781TIP3   OH250833   6.250   2.836   1.817 -0.4360  0.5181 -0.0257
 9781TIP3    H150834   6.331   2.792   1.844 -0.9050 -0.2108  0.2229
 9781TIP3    H250835   6.240   2.814   1.725  0.4546  1.8875 -0.4613
 9782TIP3   OH250836   2.994   1.013  16.940  0.3994  0.0984  0.2531
 9782TIP3    H150837   3.012   0.958  17.016  0.7203 -1.1092 -0.6944
 9782TIP3    H250838   3.042   1.094  16.957  0.5015 -0.1747  1.3071
 9783TIP3   OH250839   6.811   3.367  10.499  0.0760 -0.2766 -0.1936
 9783TIP3    H150840   6.788   3.404  10.414 -0.4991 -0.6033 -0.1807
 9783TIP3    H250841   6.747   3.404  10.559  1.4561  1.2122  0.3880
 9784TIP3   OH250842   4.527   6.168   1.487 -0.0668 -0.4281  0.0768
 9784TIP3    H150843   4.534   6.244   1.545 -0.1590  0.2979 -0.8559
 9784TIP3    H250844   4.457   6.115   1.525 -0.1254  0.0437  0.6331
 9785TIP3   OH250845   5.020   5.452  15.477 -0.3613  0.0049  0.2422
 9785TIP3    H150846   5.027   5.546  15.493 -0.3765  0.1494 -0.5696
 9785TIP3    H250847   5.075   5.437  15.400 -3.2881 -0.0172 -1.9553
 9786TIP3   OH250848   4.348   5.260  13.368  0.0127 -0.4718 -0.4526
 9786TIP3    H150849   4.323   5.184  13.316  3.9329 -0.8912 -1.8810
 9786TIP3    H250850   4.404   5.312  13.310  0.1503  1.7884  1.6165
 9787TIP3   OH250851   3.098   5.954  16.978 -0.3750 -0.0195  0.6125
 9787TIP3    H150852   3.009   5.918  16.985  0.2587 -1.7692  0.0547
 9787TIP3    H250853   3.093   6.039  17.021 -2.6506  0.4896 -0.5683
 9788TIP3   OH250854   4.192   5.489   4.218 -0.1917 -0.2697 -0.3887
 9788TIP3    H150855   4.103   5.500   4.253 -0.5628 -1.1876 -1.0281
 9788TIP3    H250856   4.181   5.501   4.123  0.5330  0.5757 -0.3763
 9789TIP3   OH250857   6.047   0.597   4.385  0.6488  0.2740  0.1868
 9789TIP3    H150858   6.049   0.676   4.331 -1.3419  0.3798  0.2411
 9789TIP3    H250859   6.066   0.628   4.473  0.2160  0.6586  0.1491
 9790TIP3   OH250860   6.073   4.631   4.896  0.1398  0.1817 -0.8533
 9790TIP3    H150861   6.105   4.542   4.882  2.1977  0.9536 -1.2514
 9790TIP3    H250862   6.095   4.651   4.987  2.1104  1.2045 -1.5167
 9791TIP3   OH250863   1.080   0.777   0.926 -0.1718 -0.5122 -0.0518
 9791TIP3    H150864   1.032   0.807   1.003  1.6873 -0.4626  1.1379
 9791TIP3    H250865   1.156   0.835   0.922  1.7382 -2.9040  0.3315
 9792TIP3   OH250866   2.312   5.221   1.279  0.3055 -0.1125  0.2935
 9792TIP3    H150867   2.312   5.209   1.374 -0.3054  2.0834  0.6133
 9792TIP3    H250868   2.404   5.232   1.255  0.4315 -0.3697  0.6646
 9793TIP3   OH250869   5.119   5.316  16.086  0.4995 -0.1772 -0.5371
 9793TIP3    H150870   5.159   5.400  16.065  1.2459 -0.2981  0.3424
 9793TIP3    H250871   5.031   5.338  16.118  0.6907  0.2741 -0.3185
 9794TIP3   OH250872   3.553   5.960  15.741 -0.1060 -0.2061  0.1406
 9794TIP3    H150873   3.553   6.001  15.654 -0.6928 -0.2054  0.1392
 9794TIP3    H250874   3.461   5.944  15.760  0.0333 -0.3626  0.6952
 9795TIP3   OH250875   1.161   1.484   1.680 -0.1573  0.4017  0.8796
 9795TIP3    H150876   1.147   1.396   1.717  0.2812 -0.0351  0.0230
 9795TIP3    H250877   1.256   1.492   1.673 -0.2260 -1.3114 -4.2838
 9796TIP3   OH250878   3.735   3.257   6.123 -0.3303 -0.5996 -0.6178
 9796TIP3    H150879   3.639   3.258   6.119 -0.3774  0.3796  0.5553
 9796TIP3    H250880   3.759   3.348   6.143  0.7216 -1.3648  1.7257
 9797TIP3   OH250881   2.096   2.952  15.309 -0.0520 -0.1065  0.1411
 9797TIP3    H150882   2.053   3.038  15.312  0.7967  0.3484 -0.5153
 9797TIP3    H250883   2.057   2.903  15.381 -0.9690  0.6338  0.1517
 9798TIP3   OH250884   2.202   4.384  16.322  0.7096  0.1733  0.3672
 9798TIP3    H150885   2.198   4.478  16.306 -0.9414  0.1158  0.3720
 9798TIP3    H250886   2.291   4.359  16.298  1.0787  1.6866  0.1233
 9799TIP3   OH250887   1.026   2.090  16.351 -0.3870 -0.0492  0.0802
 9799TIP3    H150888   1.090   2.133  16.295 -0.8667 -0.6595 -0.9663
 9799TIP3    H250889   1.048   1.997  16.345 -1.8519 -0.3488 -0.9437
 9800TIP3   OH250890   6.737   6.604  11.667  0.0115 -0.4877 -0.1472
 9800TIP3    H150891   6.804   6.539  11.689 -1.7542 -1.7930  1.4170
 9800TIP3    H250892   6.660   6.553  11.643 -0.6233  1.0178 -1.4518
 9801TIP3   OH250893   2.228   2.301  13.978 -0.1488 -0.1920  0.4201
 9801TIP3    H150894   2.293   2.289  14.048  0.4639  3.4280  0.5449
 9801TIP3    H250895   2.144   2.285  14.021  0.2535  1.5549  1.9249
 9802TIP3   OH250896   6.082   5.825  12.257 -0.2466  0.0895  0.4842
 9802TIP3    H150897   6.013   5.762  12.281  0.4247 -0.4487  1.0325
 9802TIP3    H250898   6.117   5.792  12.174  1.0275 -1.0425  1.4488
 9803TIP3   OH250899   1.853   3.982  13.105 -0.1084  0.0358 -0.1431
 9803TIP3    H150900   1.824   3.947  13.189 -0.2319 -1.5149 -0.8252
 9803TIP3    H250901   1.835   3.913  13.042  0.1813  1.1038 -1.4248
 9804TIP3   OH250902   2.644   6.351   3.087  0.4314 -0.7756  0.0595
 9804TIP3    H150903   2.674   6.344   2.996  0.4990  0.3710 -0.0132
 9804TIP3    H250904   2.626   6.261   3.113  2.0655 -1.2949 -0.5401
 9805TIP3   OH250905   6.594   6.699  15.474  0.4552  0.2707  0.0013
 9805TIP3    H150906   6.687   6.713  15.453  0.2633  1.8372  0.1148
 9805TIP3    H250907   6.564   6.636  15.408  1.0403  1.5406 -1.5213
 9806TIP3   OH250908   5.075   1.543   0.710  0.1765  0.4237 -0.5592
 9806TIP3    H150909   5.085   1.637   0.719  2.3928  0.1192  0.3932
 9806TIP3    H250910   5.041   1.514   0.795  1.1777  0.1612 -0.2398
 9807TIP3   OH250911   6.024   1.533   0.894 -0.1153 -0.5905  0.4905
 9807TIP3    H150912   6.056   1.618   0.925 -1.5851  0.3037 -0.3592
 9807TIP3    H250913   5.993   1.489   0.972 -1.2663  0.5209  0.6778
 9808TIP3   OH250914   3.754   0.118   6.558  1.1242  0.5304 -0.1817
 9808TIP3    H150915   3.698   0.044   6.534  1.4040 -0.1736  1.2698
 9808TIP3    H250916   3.704   0.165   6.625  1.8095  0.5150  0.3413
 9809TIP3   OH250917   6.796   1.073   6.682 -0.0806 -0.3598 -0.3498
 9809TIP3    H150918   6.714   1.063   6.729 -1.0981  1.6572 -1.6021
 9809TIP3    H250919   6.772   1.068   6.589  1.1397  0.5373 -0.7391
 9810TIP3   OH250920   1.978   6.139   2.404 -0.3352 -0.1899 -0.0059
 9810TIP3    H150921   1.925   6.169   2.330  0.4242 -0.0479 -0.4927
 9810TIP3    H250922   2.014   6.219   2.443  1.2119 -0.4087 -0.9462
 9811TIP3   OH250923   3.056   4.118  15.098  0.3257  0.2563 -0.4388
 9811TIP3    H150924   3.039   4.125  15.192  0.1287  2.4122 -0.6180
 9811TIP3    H250925   2.978   4.076  15.062  0.6954 -1.2391  0.4284
 9812TIP3   OH250926   0.876   4.703  12.104 -0.6148  0.1474  0.0882
 9812TIP3    H150927   0.815   4.776  12.113  2.4125  2.8613 -0.5615
 9812TIP3    H250928   0.936   4.712  12.178 -1.8386 -3.4028  1.6194
 9813TIP3   OH250929   5.287   4.926   2.973 -0.2091  0.0790  0.2160
 9813TIP3    H150930   5.264   4.848   2.922  0.7511  0.5067 -0.8961
 9813TIP3    H250931   5.214   4.986   2.959 -0.2077 -0.0180 -0.2147
 9814TIP3   OH250932   2.057   1.315  14.246 -0.3599  0.1986 -0.1307
 9814TIP3    H150933   2.095   1.231  14.273 -0.8696 -0.2059 -0.6543
 9814TIP3    H250934   2.086   1.377  14.313  3.7162  0.5696 -2.0758
 9815TIP3   OH250935   4.884   0.102   0.830  0.0651  0.3631  0.0451
 9815TIP3    H150936   4.979   0.100   0.829  0.0443 -1.0943 -0.9039
 9815TIP3    H250937   4.859   0.090   0.738 -1.0370 -0.2304  0.4101
 9816TIP3   OH250938   5.006   0.491   2.001  0.4240 -0.2500  0.1750
 9816TIP3    H150939   4.979   0.415   2.053 -0.4130 -1.2125 -1.6173
 9816TIP3    H250940   4.952   0.487   1.923  2.5449  0.4351 -1.3694
 9817TIP3   OH250941   4.386   6.538  16.232  0.3362 -0.8451  0.0834
 9817TIP3    H150942   4.441   6.611  16.261 -0.3577 -0.7030  1.1039
 9817TIP3    H250943   4.443   6.461  16.236  0.9089 -0.4435 -0.4308
 9818TIP3   OH250944   2.162   4.493  14.859 -0.8721  0.9179 -0.3362
 9818TIP3    H150945   2.182   4.400  14.875  0.3917  1.5159  1.8279
 9818TIP3    H250946   2.119   4.521  14.940  1.1553  2.8865  0.0812
 9819TIP3   OH250947   1.882   1.159   0.340 -0.3098  0.3145  0.1484
 9819TIP3    H150948   1.964   1.125   0.374 -0.5161  0.4785  0.8023
 9819TIP3    H250949   1.906   1.201   0.257 -0.0520 -1.4441 -0.6962
 9820TIP3   OH250950   5.855   1.426  11.997  0.2967  0.0060  0.5760
 9820TIP3    H150951   5.834   1.447  11.906  2.4802  0.5299  0.1846
 9820TIP3    H250952   5.944   1.391  11.994  0.3039 -0.1726  2.4854
 9821TIP3   OH250953   0.058   5.889   4.130  0.2492 -0.2588  0.0302
 9821TIP3    H150954   0.030   5.818   4.074  0.5388  0.2231 -0.7337
 9821TIP3    H250955   0.141   5.918   4.092 -0.1817  0.9045 -0.0552
 9822TIP3   OH250956   1.449   2.075   0.218 -0.0369 -0.0683 -0.1136
 9822TIP3    H150957   1.503   2.078   0.297 -0.5948  0.9395  0.2488
 9822TIP3    H250958   1.511   2.079   0.146  0.4949 -1.2112  0.2700
 9823TIP3   OH250959   5.960   1.180   0.260 -0.1622  0.4142  0.5937
 9823TIP3    H150960   5.879   1.213   0.299 -1.1129 -1.2161  0.0611
 9823TIP3    H250961   5.942   1.087   0.242  1.2415  0.4314 -1.0624
 9824TIP3   OH250962   3.302   5.617  15.070 -0.3129  0.3946  0.5555
 9824TIP3    H150963   3.293   5.522  15.072 -0.8949  0.4232 -0.7438
 9824TIP3    H250964   3.213   5.650  15.082 -0.3372  0.7578 -0.6077
 9825TIP3   OH250965   6.706   1.563  17.160 -0.1722  0.0829 -0.8355
 9825TIP3    H150966   6.651   1.637  17.134 -1.7786 -0.4901  0.8167
 9825TIP3    H250967   6.757   1.596  17.234 -0.4174 -0.2509 -0.5135
 9826TIP3   OH250968   5.023   5.465  11.016  0.1597 -0.0767  0.2021
 9826TIP3    H150969   5.062   5.548  10.988 -1.2041  0.8434  0.9013
 9826TIP3    H250970   5.036   5.464  11.111  0.0808 -0.6110  0.2071
 9827TIP3   OH250971   1.243   1.450   3.838  0.2658  0.1586  0.1238
 9827TIP3    H150972   1.194   1.518   3.884 -1.9811  1.5625 -4.1042
 9827TIP3    H250973   1.327   1.491   3.816 -0.7590  1.3161 -1.6803
 9828TIP3   OH250974   2.778   1.231   5.387  0.3000  0.8767 -0.7879
 9828TIP3    H150975   2.771   1.137   5.372 -1.0795  0.7922  0.2652
 9828TIP3    H250976   2.830   1.238   5.467 -1.7609  0.9004  0.5716
 9829TIP3   OH250977   0.702   4.218   2.663 -0.1105  0.4969 -0.0605
 9829TIP3    H150978   0.637   4.193   2.598 -0.1899  0.4625  0.0319
 9829TIP3    H250979   0.730   4.306   2.636 -0.1590  0.4913 -0.1283
 9830TIP3   OH250980   0.110   5.866  11.876 -0.5548 -0.0927 -0.0812
 9830TIP3    H150981   0.068   5.786  11.844  0.6276 -0.3132 -1.1145
 9830TIP3    H250982   0.039   5.915  11.917 -1.4403 -1.3282 -0.1006
 9831TIP3   OH250983   0.221   5.459  14.348 -0.0671  0.1520 -0.1925
 9831TIP3    H150984   0.221   5.511  14.268  0.1971 -0.7334 -0.7780
 9831TIP3    H250985   0.152   5.393  14.333 -1.9279  1.6799  1.4362
 9832TIP3   OH250986   2.027   4.638   5.013 -0.2462  0.2268  0.0747
 9832TIP3    H150987   1.976   4.717   4.993  0.7191  1.0896  0.9296
 9832TIP3    H250988   1.993   4.609   5.098  0.3643  0.5434  0.4292
 9833TIP3   OH250989   1.603   6.336  12.280 -0.3770 -0.7233  0.3705
 9833TIP3    H150990   1.531   6.284  12.244  1.0447 -2.4458 -0.0210
 9833TIP3    H250991   1.652   6.274  12.334  0.8140  0.4489  0.6425
 9834TIP3   OH250992   3.046   4.458  15.073 -0.0579 -0.2245  0.0294
 9834TIP3    H150993   2.981   4.396  15.039 -0.3506  0.1584 -0.1127
 9834TIP3    H250994   3.112   4.403  15.115 -0.4952 -0.6147  0.2088
 9835TIP3   OH250995   6.051   1.360  15.104 -1.0480  0.2112 -0.1274
 9835TIP3    H150996   6.066   1.308  15.024 -1.9086  0.0850 -0.2118
 9835TIP3    H250997   6.071   1.450  15.078 -0.1606  0.0082 -0.1548
 9836TIP3   OH250998   6.253   1.053  15.846  0.2237  0.3658 -0.0121
 9836TIP3    H150999   6.297   1.117  15.790  1.3076 -0.1866  0.1982
 9836TIP3    H251000   6.252   1.094  15.933 -1.5075  1.2469 -0.4195
 9837TIP3   OH251001   6.432   3.924   2.962  0.0533 -0.0332  0.0417
 9837TIP3    H151002   6.505   3.968   2.918  0.9168  0.6720  2.1177
 9837TIP3    H251003   6.459   3.833   2.968  1.3197  0.4524  1.8932
 9838TIP3   OH251004   1.471   2.464  15.468  0.2125  0.0069 -0.4155
 9838TIP3    H151005   1.446   2.553  15.445 -0.7761 -0.5087 -1.3599
 9838TIP3    H251006   1.415   2.442  15.542 -0.4116 -0.2666 -0.9662
 9839TIP3   OH251007   4.154   5.542  13.172 -0.4312  0.4481  0.0698
 9839TIP3    H151008   4.209   5.551  13.250 -2.0353 -2.3712  1.6096
 9839TIP3    H251009   4.077   5.597  13.192 -0.2555  0.7631 -0.1116
 9840TIP3   OH251010   0.381   4.667  16.035  0.3406 -0.0462 -0.3404
 9840TIP3    H151011   0.397   4.746  15.984  1.1728  1.6572  2.4162
 9840TIP3    H251012   0.396   4.694  16.126  0.0192 -3.2221  0.7230
 9841TIP3   OH251013   4.099   6.470   4.503  0.1409  1.0537  0.0809
 9841TIP3    H151014   4.036   6.446   4.571  0.0768  0.4521 -0.1879
 9841TIP3    H251015   4.084   6.563   4.488 -0.1994  1.0710  0.5239
 9842TIP3   OH251016   3.283   2.684  15.803  0.0550  0.0155  0.1690
 9842TIP3    H151017   3.215   2.629  15.844 -0.2028 -0.9475 -1.5071
 9842TIP3    H251018   3.260   2.685  15.710  0.8624  1.8474 -0.0244
 9843TIP3   OH251019   0.645   0.184  10.625 -0.9626 -0.1664  0.5688
 9843TIP3    H151020   0.629   0.269  10.584  0.2523 -0.2649 -0.1354
 9843TIP3    H251021   0.576   0.128  10.592 -0.4687 -0.0289 -0.7176
 9844TIP3   OH251022   4.010   6.194   4.923  0.2082 -0.5941  0.2349
 9844TIP3    H151023   4.030   6.251   4.997 -0.9274 -0.9396  0.8183
 9844TIP3    H251024   3.914   6.195   4.917  0.2110 -1.8911 -0.1831
 9845TIP3   OH251025   1.772   0.455  10.824  0.6709 -0.2846  0.6100
 9845TIP3    H151026   1.776   0.371  10.870 -0.4685 -0.0225  1.2079
 9845TIP3    H251027   1.753   0.432  10.733 -0.4481 -0.6378  0.9284
 9846TIP3   OH251028   6.329   4.790   5.313  0.5589 -0.4127 -0.0076
 9846TIP3    H151029   6.265   4.862   5.312  1.4095  0.3900 -3.1146
 9846TIP3    H251030   6.277   4.712   5.296  0.1415 -0.0227 -0.5455
 9847TIP3   OH251031   6.203   6.272   4.796 -0.4916 -0.6522  0.3704
 9847TIP3    H151032   6.166   6.353   4.762 -0.6988 -0.4819  0.9840
 9847TIP3    H251033   6.291   6.267   4.757 -1.3746 -1.3726 -1.5708
 9848TIP3   OH251034   1.507   3.766   0.905 -0.1987  0.3369 -0.5119
 9848TIP3    H151035   1.562   3.834   0.868  0.6613  0.3648  0.8082
 9848TIP3    H251036   1.461   3.729   0.829  1.6115  0.3136 -1.6207
 9849TIP3   OH251037   2.597   2.360   4.072 -0.3309 -0.2254 -0.1987
 9849TIP3    H151038   2.622   2.299   4.142  0.7907 -0.4690 -0.8046
 9849TIP3    H251039   2.590   2.445   4.116 -1.0654 -0.6233  0.4850
 9850TIP3   OH251040   2.998   5.613  14.072  0.3336 -0.3393 -0.2645
 9850TIP3    H151041   3.013   5.542  14.010 -0.6910 -0.0754 -0.8224
 9850TIP3    H251042   2.977   5.569  14.154 -0.6120 -0.6918 -0.6856
 9851TIP3   OH251043   2.959   0.161   5.276  0.6838  0.1156  0.6430
 9851TIP3    H151044   2.899   0.087   5.266  2.3250 -1.0666 -0.7266
 9851TIP3    H251045   2.993   0.178   5.188  1.9975  1.0616  1.3061
 9852TIP3   OH251046   6.022   0.838   1.342  0.1476 -0.8983  0.5101
 9852TIP3    H151047   5.928   0.837   1.361 -0.2530 -1.2137 -1.4502
 9852TIP3    H251048   6.045   0.745   1.334  0.4196 -0.7858 -0.0054
 9853TIP3   OH251049   2.546   3.821  15.767  0.0205 -0.0219  0.4044
 9853TIP3    H151050   2.618   3.878  15.796  0.3067  0.6102 -1.4493
 9853TIP3    H251051   2.473   3.843  15.824  0.4993  1.3599  0.5026
 9854TIP3   OH251052   0.950   0.922  12.152 -0.3794 -0.2786 -0.4224
 9854TIP3    H151053   1.002   0.976  12.093  1.1812 -0.7362  0.4922
 9854TIP3    H251054   0.946   0.972  12.233 -0.1589 -0.8611 -0.0425
 9855TIP3   OH251055   3.072   0.239  14.592 -0.5581 -0.0093 -0.2267
 9855TIP3    H151056   3.109   0.327  14.585 -1.2806  0.2015 -1.5907
 9855TIP3    H251057   3.123   0.197  14.661 -0.0195  1.3841  0.2441
 9856TIP3   OH251058   5.035   1.469  16.054  0.3731 -0.2388 -0.3266
 9856TIP3    H151059   4.946   1.442  16.076 -0.0712  2.0630  0.8684
 9856TIP3    H251060   5.036   1.475  15.959 -0.8635  0.0757 -0.3243
 9857TIP3   OH251061   1.064   1.778  14.710 -0.6289  0.1250  0.3739
 9857TIP3    H151062   1.009   1.700  14.706 -0.3985 -0.0625  0.8516
 9857TIP3    H251063   1.131   1.763  14.643  0.1565 -0.6655  1.3011
 9858TIP3   OH251064   3.607   4.593   2.166 -0.0404  1.0912 -0.8235
 9858TIP3    H151065   3.512   4.601   2.182 -0.0035  0.7615 -0.4190
 9858TIP3    H251066   3.626   4.501   2.183  0.6434  1.4965  0.7122
 9859TIP3   OH251067   5.173   4.251  11.943 -0.1202 -0.2165  0.1199
 9859TIP3    H151068   5.198   4.343  11.955 -1.4717  0.0418  1.0361
 9859TIP3    H251069   5.173   4.239  11.848 -1.3652  1.1485 -0.0724
 9860TIP3   OH251070   1.656   5.171  14.899  0.4654  0.5706  0.2662
 9860TIP3    H151071   1.694   5.159  14.986  1.1388 -1.8724 -0.3108
 9860TIP3    H251072   1.613   5.088  14.880 -1.5218  1.8165 -0.8699
 9861TIP3   OH251073   2.118   2.929  16.964 -0.1922  0.0394 -0.1269
 9861TIP3    H151074   2.068   2.944  16.884  0.6158  1.2579 -0.4069
 9861TIP3    H251075   2.053   2.937  17.034 -0.9128 -1.0917 -0.6490
 9862TIP3   OH251076   4.213   2.473  11.142  0.2675  0.8669 -0.2167
 9862TIP3    H151077   4.135   2.497  11.192 -0.3019 -0.8394 -0.2425
 9862TIP3    H251078   4.182   2.462  11.052  0.7399  1.1582 -0.4180
 9863TIP3   OH251079   6.152   0.310  12.536  0.1237 -0.6059  0.3353
 9863TIP3    H151080   6.181   0.232  12.490 -0.1397 -0.2297 -0.4834
 9863TIP3    H251081   6.060   0.295  12.555  0.4541 -1.1323  1.5259
 9864TIP3   OH251082   6.643   1.100   0.608  0.8045 -0.6186 -0.1735
 9864TIP3    H151083   6.723   1.151   0.617  1.5767 -1.6934 -0.7563
 9864TIP3    H251084   6.622   1.104   0.515 -1.9432  2.7568  0.4975
 9865TIP3   OH251085   5.934   3.020  14.508  0.1866 -0.1041 -0.0953
 9865TIP3    H151086   5.964   2.999  14.597 -0.5408  0.6538  0.3310
 9865TIP3    H251087   5.988   3.095  14.483  0.4054 -0.3311 -0.3115
 9866TIP3   OH251088   2.185   5.337   3.793  0.4329  0.3305 -0.0215
 9866TIP3    H151089   2.142   5.388   3.862  0.7356  1.1610 -0.4424
 9866TIP3    H251090   2.134   5.256   3.788 -0.2305  0.7103  0.4494
 9867TIP3   OH251091   5.477   0.502  15.690  0.6212 -0.0108  0.3808
 9867TIP3    H151092   5.443   0.556  15.761 -3.6183 -0.5595 -1.0676
 9867TIP3    H251093   5.492   0.564  15.618  1.3007  0.0286  0.5549
 9868TIP3   OH251094   5.009   5.845  12.984 -0.3882  0.4068  0.1704
 9868TIP3    H151095   4.977   5.881  12.901 -0.8462  1.8469  0.9379
 9868TIP3    H251096   5.067   5.913  13.018 -0.4169 -0.0550  1.1528
 9869TIP3   OH251097   3.757   0.899   1.187 -0.0340 -0.1814 -0.3262
 9869TIP3    H151098   3.843   0.885   1.226 -0.1975  0.7742  0.3914
 9869TIP3    H251099   3.772   0.962   1.117  0.0257 -0.8253 -0.8938
 9870TIP3   OH251100   6.690   3.953   0.705  0.2269  0.0602 -0.2816
 9870TIP3    H151101   6.649   3.991   0.627  0.4569  0.3077 -0.2840
 9870TIP3    H251102   6.623   3.898   0.743 -0.1889  0.6582 -0.1484
 9871TIP3   OH251103   5.703   3.396   4.796 -0.3045 -0.3259 -0.0870
 9871TIP3    H151104   5.721   3.472   4.740  1.0164 -0.0187  0.7180
 9871TIP3    H251105   5.745   3.323   4.751 -2.8901 -0.9157 -1.6574
 9872TIP3   OH251106   2.988   4.043  14.522  0.1284 -0.2465 -0.1194
 9872TIP3    H151107   2.994   4.070  14.614 -0.6369 -0.8764  0.1153
 9872TIP3    H251108   3.077   4.054  14.488 -0.1269  2.5037 -0.0076
 9873TIP3   OH251109   3.965   6.416   1.500 -0.0110 -0.0658 -0.0824
 9873TIP3    H151110   3.919   6.494   1.532  1.7804  0.4515  1.3363
 9873TIP3    H251111   4.049   6.449   1.468  0.9393 -1.4577  0.9200
 9874TIP3   OH251112   5.407   2.670  11.829  0.3112 -0.6277  0.2381
 9874TIP3    H151113   5.458   2.725  11.888 -0.3093  0.9340 -0.6707
 9874TIP3    H251114   5.332   2.723  11.804 -0.1937 -1.8052 -0.8173
 9875TIP3   OH251115   2.327   3.379   4.910  0.4913 -0.0179  0.1186
 9875TIP3    H151116   2.350   3.430   4.833 -0.9735  0.1749 -0.2111
 9875TIP3    H251117   2.308   3.292   4.876 -1.1701  0.3299  0.0949
 9876TIP3   OH251118   5.031   6.366  12.850 -0.3680  0.3936 -0.4920
 9876TIP3    H151119   5.033   6.347  12.944  2.5622 -3.0417 -1.1191
 9876TIP3    H251120   4.959   6.314  12.816 -0.4151  0.3752 -0.3618
 9877TIP3   OH251121   2.943   1.547  17.026 -0.1784 -0.3762  0.5215
 9877TIP3    H151122   2.874   1.571  17.088 -0.5878 -0.3881  0.0742
 9877TIP3    H251123   3.018   1.602  17.051 -0.8933  0.8636 -0.0617
 9878TIP3   OH251124   0.234   0.441  12.676 -0.5791  0.4574  0.2932
 9878TIP3    H151125   0.177   0.498  12.727 -1.1971  0.1523 -0.0472
 9878TIP3    H251126   0.174   0.382  12.630 -0.1362  1.6386 -1.8740
 9879TIP3   OH251127   2.081   0.489   3.312 -0.4373 -0.4574 -0.0527
 9879TIP3    H151128   2.105   0.458   3.224  0.8303  1.4032 -0.4030
 9879TIP3    H251129   2.129   0.431   3.371  1.4653  0.4390 -0.6789
 9880TIP3   OH251130   4.583   2.267   1.904  0.1736 -1.0110 -0.3299
 9880TIP3    H151131   4.620   2.212   1.972  1.0922 -0.4427 -0.3685
 9880TIP3    H251132   4.584   2.213   1.826  0.3050 -1.2211 -0.1826
 9881TIP3   OH251133   5.089   3.439  10.968 -0.2273 -0.8716 -0.0612
 9881TIP3    H151134   5.136   3.521  10.986 -0.9930 -0.6173  0.8079
 9881TIP3    H251135   5.154   3.370  10.985  0.2398 -0.4721 -0.2089
 9882TIP3   OH251136   6.645   0.942   6.021  0.3747  0.1224 -0.4267
 9882TIP3    H151137   6.647   0.965   6.114  1.2604 -0.0302 -0.3979
 9882TIP3    H251138   6.553   0.947   5.997  0.2552  1.1347  0.2123
 9883TIP3   OH251139   4.901   4.903  13.527  0.5815 -0.5209  0.8080
 9883TIP3    H151140   4.829   4.933  13.471  0.4700  1.0499  1.7585
 9883TIP3    H251141   4.976   4.898  13.468  0.3578  0.6735  0.4015
 9884TIP3   OH251142   1.946   0.506  15.189 -0.3494 -0.4296  0.1035
 9884TIP3    H151143   1.896   0.462  15.121 -1.3119  1.6547 -0.5630
 9884TIP3    H251144   2.001   0.437  15.227  0.7151 -1.4831 -3.2409
 9885TIP3   OH251145   2.739   0.414  15.545 -0.5204 -0.5868  0.2541
 9885TIP3    H151146   2.776   0.431  15.459 -1.6492 -0.4364 -0.2129
 9885TIP3    H251147   2.685   0.491  15.563 -1.6335 -1.3703  0.3470
 9886TIP3   OH251148   0.578   5.065  12.160  0.9400 -0.2474  0.4658
 9886TIP3    H151149   0.628   5.031  12.086  0.9643 -3.2576  1.7712
 9886TIP3    H251150   0.508   5.117  12.120  3.6433  2.0332 -1.4531
 9887TIP3   OH251151   6.738   3.629  10.814  0.1094  0.2338 -0.5289
 9887TIP3    H151152   6.827   3.598  10.833 -0.8269 -2.3053 -0.0737
 9887TIP3    H251153   6.691   3.551  10.785 -2.7589  0.9093  2.0049
 9888TIP3   OH251154   3.450   5.609   0.100 -0.2275 -0.6483  0.1795
 9888TIP3    H151155   3.535   5.627   0.059 -0.4476 -0.2775 -0.1147
 9888TIP3    H251156   3.453   5.516   0.123  0.3814 -0.5629  0.4522
 9889TIP3   OH251157   0.496   3.581  11.453 -0.4926  0.0703 -0.5463
 9889TIP3    H151158   0.576   3.631  11.470 -0.9497  0.4966  0.4742
 9889TIP3    H251159   0.525   3.500  11.412  0.3955  0.5334 -0.8372
 9890TIP3   OH251160   6.616   5.830  12.789 -0.1647 -0.9363 -0.5091
 9890TIP3    H151161   6.625   5.844  12.883  1.3495 -1.3800 -0.5829
 9890TIP3    H251162   6.594   5.737  12.780  0.3078 -1.0388 -0.6241
 9891TIP3   OH251163   0.442   0.144  15.911  0.3001 -0.1301 -0.5660
 9891TIP3    H151164   0.408   0.148  16.001  0.3121 -1.8660 -0.4637
 9891TIP3    H251165   0.521   0.090  15.919 -0.1186 -0.9216 -1.7373
 9892TIP3   OH251166   0.864   4.225  16.666 -0.5105 -0.7054 -0.2424
 9892TIP3    H151167   0.900   4.314  16.659  0.2245 -0.9599  0.1757
 9892TIP3    H251168   0.917   4.173  16.606 -1.2706 -0.7652 -0.8622
 9893TIP3   OH251169   2.940   5.587  16.084 -0.1413  0.4966 -0.0351
 9893TIP3    H151170   2.863   5.594  16.141 -0.5415  0.7390 -0.5969
 9893TIP3    H251171   2.978   5.675  16.084  0.4870  0.2273  0.7266
 9894TIP3   OH251172   6.254   3.599   1.407  0.0139 -0.1625 -0.0209
 9894TIP3    H151173   6.224   3.542   1.336  1.8536 -1.5703  0.2993
 9894TIP3    H251174   6.217   3.560   1.487 -2.3648  1.6292 -0.1654
 9895TIP3   OH251175   0.765   1.714   3.601  0.7048  0.2975  0.2545
 9895TIP3    H151176   0.760   1.619   3.588  1.8526 -0.0832  2.2525
 9895TIP3    H251177   0.674   1.741   3.614  0.3197 -0.4536 -0.8451
 9896TIP3   OH251178   0.941   3.685  12.480 -0.0704  0.3183 -0.2168
 9896TIP3    H151179   1.000   3.757  12.501 -0.7256  0.6613  0.4941
 9896TIP3    H251180   0.881   3.722  12.415 -1.4285  0.9445  1.3448
 9897TIP3   OH251181   2.985   2.375  16.660 -0.5020 -0.6809  0.5106
 9897TIP3    H151182   2.968   2.281  16.667  1.0436 -1.0548 -0.5126
 9897TIP3    H251183   3.069   2.381  16.614 -0.2400  1.1842  1.1830
 9898TIP3   OH251184   0.416   2.210  11.733 -0.3370 -0.0820 -0.3010
 9898TIP3    H151185   0.426   2.271  11.660  0.2214  1.5785  1.1347
 9898TIP3    H251186   0.505   2.176  11.748 -0.2574  0.3768  0.2756
 9899TIP3   OH251187   2.088   0.312   3.546  0.7188  0.2218  0.2378
 9899TIP3    H151188   2.165   0.257   3.563 -0.7282 -1.2818  2.4101
 9899TIP3    H251189   2.015   0.250   3.549 -0.6527  1.7676 -0.8307
 9900TIP3   OH251190   2.590   1.013   4.458  0.0076  0.3197  0.1663
 9900TIP3    H151191   2.517   1.059   4.416  0.7463  0.8950 -0.5172
 9900TIP3    H251192   2.668   1.049   4.415  0.6287 -1.1694  0.0438
 9901TIP3   OH251193   6.626   2.595  15.812 -0.1899  0.3651  0.2482
 9901TIP3    H151194   6.603   2.681  15.777  1.4352  0.7288 -0.0062
 9901TIP3    H251195   6.672   2.552  15.739 -0.6157 -0.5521  0.5153
 9902TIP3   OH251196   0.291   0.867  10.324 -0.7733  0.1620  0.2210
 9902TIP3    H151197   0.197   0.859  10.314 -0.7220 -0.1061 -0.0948
 9902TIP3    H251198   0.306   0.957  10.352 -1.3515 -0.6959  3.3925
 9903TIP3   OH251199   3.770   6.497   0.735  0.1974 -0.7162 -0.0915
 9903TIP3    H151200   3.777   6.564   0.803 -0.5475 -0.5333 -0.1893
 9903TIP3    H251201   3.714   6.430   0.774  1.2820 -1.4957  0.1658
 9904TIP3   OH251202   4.552   1.304  16.740 -0.7339  0.2790  0.0701
 9904TIP3    H151203   4.592   1.327  16.656 -2.7268  2.9229 -0.2271
 9904TIP3    H251204   4.484   1.240  16.717 -0.3762 -0.0274 -0.1458
 9905TIP3   OH251205   0.771   2.480  15.375 -0.7334  0.3982  1.2723
 9905TIP3    H151206   0.692   2.534  15.367 -2.1513 -1.6167  1.3110
 9905TIP3    H251207   0.843   2.542  15.371 -2.1278  1.9045 -3.2990
 9906TIP3   OH251208   6.649   6.391   3.537 -0.1618 -0.2105 -0.4002
 9906TIP3    H151209   6.556   6.401   3.559 -0.1901  0.7157 -0.9401
 9906TIP3    H251210   6.664   6.453   3.467  1.2856  0.8594  0.8339
 9907TIP3   OH251211   6.273   2.745   3.163  0.3063  0.3128  0.4266
 9907TIP3    H151212   6.186   2.729   3.199  0.7187 -0.5855  1.0505
 9907TIP3    H251213   6.289   2.670   3.105 -0.1401  1.4824 -1.2714
 9908TIP3   OH251214   4.046   3.697   0.521 -0.3935 -0.0392 -0.0697
 9908TIP3    H151215   3.964   3.685   0.473 -0.7297  1.4102  0.0957
 9908TIP3    H251216   4.071   3.787   0.502  0.8615 -0.2919  0.3547
 9909TIP3   OH251217   1.950   4.842  13.262 -0.5261  0.2475  0.1386
 9909TIP3    H151218   2.010   4.903  13.305 -0.7936 -0.0273  0.9077
 9909TIP3    H251219   1.908   4.894  13.194 -1.6004  1.2270  1.5349
 9910TIP3   OH251220   1.477   3.396   3.282 -0.3609  0.4877 -0.1946
 9910TIP3    H151221   1.384   3.383   3.302 -1.8526  2.7014 -4.8935
 9910TIP3    H251222   1.487   3.491   3.273  2.2507  0.2531 -0.1682
 9911TIP3   OH251223   6.117   4.725  14.229  0.1637  0.1919  0.0810
 9911TIP3    H151224   6.177   4.721  14.154  1.1713 -1.4664  0.9480
 9911TIP3    H251225   6.043   4.671  14.203 -0.6388  1.6046 -0.6706
 9912TIP3   OH251226   3.440   4.112  12.087 -0.2704  0.2227 -0.0991
 9912TIP3    H151227   3.441   4.017  12.103  0.9969  0.1388 -0.5808
 9912TIP3    H251228   3.510   4.146  12.144  0.0944  0.7089 -0.8236
 9913TIP3   OH251229   5.311   5.321  15.376  0.3675  0.2663  0.6460
 9913TIP3    H151230   5.350   5.389  15.431  0.7061 -0.0941  0.8478
 9913TIP3    H251231   5.385   5.268  15.347  0.0342 -0.3540  0.9348
 9914TIP3   OH251232   2.014   3.540   5.024  0.6139 -0.0410  0.3178
 9914TIP3    H151233   2.084   3.603   5.005  1.3800 -0.7866  0.6063
 9914TIP3    H251234   2.032   3.467   4.965  0.2942 -0.3964  0.6604
 9915TIP3   OH251235   0.141   2.490   0.148  0.2176 -0.5286  0.4832
 9915TIP3    H151236   0.128   2.430   0.074 -0.2376 -0.6494  0.6602
 9915TIP3    H251237   0.221   2.537   0.127 -0.0435 -0.3911 -0.2074
 9916TIP3   OH251238   0.849   3.511   4.747  0.0296 -0.3766 -0.7285
 9916TIP3    H151239   0.868   3.577   4.680  0.2920  0.0102 -0.2772
 9916TIP3    H251240   0.768   3.469   4.718 -0.1893  0.2130 -0.9570
 9917TIP3   OH251241   3.973   0.400   2.061  0.5427  0.5304  0.1325
 9917TIP3    H151242   3.974   0.467   1.992  0.2684  0.5281  0.1233
 9917TIP3    H251243   3.922   0.439   2.132 -0.1562  0.0920 -0.1220
 9918TIP3   OH251244   0.306   6.686   4.441  0.8417 -0.1005 -0.7643
 9918TIP3    H151245   0.358   6.764   4.462 -0.6919  0.7400 -0.0139
 9918TIP3    H251246   0.275   6.701   4.351  0.7204  0.0590 -0.6956
 9919TIP3   OH251247   5.581   2.005   5.092  0.2591 -0.6634  0.0019
 9919TIP3    H151248   5.652   2.060   5.124 -0.3808  1.1834 -1.6407
 9919TIP3    H251249   5.620   1.955   5.020 -0.4277  1.4113 -1.8554
 9920TIP3   OH251250   3.548   6.600   6.045 -0.2555 -0.3984 -0.2860
 9920TIP3    H151251   3.467   6.618   5.997  1.1096  4.2905 -1.0295
 9920TIP3    H251252   3.523   6.602   6.137 -1.6898 -3.0359 -0.5824
 9921TIP3   OH251253   0.103   5.842  17.077  0.0396  0.4986  0.3838
 9921TIP3    H151254   0.089   5.793  17.157 -0.0300 -0.6685 -0.3263
 9921TIP3    H251255   0.022   5.829  17.026  1.4931 -1.8741 -1.4477
 9922TIP3   OH251256   2.733   5.563  16.559 -0.3200  0.0792 -1.0249
 9922TIP3    H151257   2.648   5.606  16.550 -0.6762 -0.1454  0.9942
 9922TIP3    H251258   2.765   5.553  16.469 -3.1001 -1.2238 -1.9077
 9923TIP3   OH251259   3.355   2.674  14.092  0.1645  0.0850  0.2543
 9923TIP3    H151260   3.395   2.709  14.013 -0.2995  1.0823  0.4474
 9923TIP3    H251261   3.315   2.591  14.064  0.2433  0.2919 -0.4900
 9924TIP3   OH251262   5.576   2.782   3.634 -0.7402 -0.2209  0.1351
 9924TIP3    H151263   5.634   2.790   3.709 -0.7261 -1.9960  0.3399
 9924TIP3    H251264   5.631   2.745   3.564 -0.8738  0.9548 -0.6007
 9925TIP3   OH251265   0.236   0.042  11.396  0.7901 -0.2431 -0.1134
 9925TIP3    H151266   0.273   0.018  11.311  1.8845 -0.9793  0.5625
 9925TIP3    H251267   0.261   0.134  11.407  1.9895 -0.5796  0.0929
 9926TIP3   OH251268   0.462   6.450   5.263  0.4782  0.2188 -0.2287
 9926TIP3    H151269   0.413   6.502   5.199  0.5629  1.3947  0.6433
 9926TIP3    H251270   0.426   6.362   5.255 -1.0617  0.8357 -0.3327
 9927TIP3   OH251271   0.924   5.579   3.600 -0.8784  0.5860 -0.0052
 9927TIP3    H151272   0.967   5.586   3.514 -0.2019  1.7655  0.4187
 9927TIP3    H251273   0.832   5.599   3.582 -0.9411 -0.2096 -0.6227
 9928TIP3   OH251274   4.057   6.303   1.918 -0.1329 -0.0380 -0.0957
 9928TIP3    H151275   4.121   6.308   1.989 -0.0138 -0.7711 -0.1396
 9928TIP3    H251276   4.103   6.336   1.841  0.3709 -1.0427 -0.2371
 9929TIP3   OH251277   3.550   4.544   1.191  0.3189  0.0150 -0.3262
 9929TIP3    H151278   3.461   4.539   1.225  1.0494 -1.0095  1.5065
 9929TIP3    H251279   3.545   4.500   1.106 -1.0877  0.6946 -0.6138
 9930TIP3   OH251280   4.714   0.905   4.769 -0.0662 -0.3624 -0.0063
 9930TIP3    H151281   4.627   0.865   4.764  0.2302 -1.1725  1.1291
 9930TIP3    H251282   4.775   0.831   4.754  0.4534 -0.0054  0.3411
 9931TIP3   OH251283   3.600   0.859  12.275  0.9165  0.2268 -0.3725
 9931TIP3    H151284   3.583   0.766  12.257 -1.7562  0.9090 -1.6191
 9931TIP3    H251285   3.520   0.889  12.320  1.5018  2.0759 -0.5314
 9932TIP3   OH251286   0.372   1.497  12.376 -0.4266 -0.0564  0.1208
 9932TIP3    H151287   0.351   1.450  12.457 -1.2366  1.2650  0.6759
 9932TIP3    H251288   0.462   1.527  12.389 -0.5175  0.0608  0.4733
 9933TIP3   OH251289   0.106   3.461   5.501 -0.5513 -0.3877 -0.6681
 9933TIP3    H151290   0.116   3.390   5.437  0.5410 -0.1540 -0.7714
 9933TIP3    H251291   0.092   3.539   5.447 -2.3443 -0.6091 -0.5379
 9934TIP3   OH251292   3.411   0.966  11.364  0.3170 -0.0329 -0.3871
 9934TIP3    H151293   3.388   0.984  11.273 -2.1615  0.6139  0.3327
 9934TIP3    H251294   3.410   1.051  11.407  0.8207 -0.4091  0.3896
 9935TIP3   OH251295   1.690   6.758  11.618  0.1341 -0.3770  0.4446
 9935TIP3    H151296   1.715   6.806  11.539 -1.6189  0.2875  0.2769
 9935TIP3    H251297   1.752   6.685  11.622  0.6077 -0.0855 -1.2196
 9936TIP3   OH251298   2.072   0.592   2.210  0.0287  0.1247  0.4913
 9936TIP3    H151299   2.131   0.645   2.157 -1.6223  0.0715 -1.4596
 9936TIP3    H251300   2.056   0.644   2.289 -1.0642  2.2619 -1.1015
 9937TIP3   OH251301   3.259   1.054   4.633 -0.3723  0.7726  0.8839
 9937TIP3    H151302   3.340   1.004   4.640  0.6451  2.3740  0.9101
 9937TIP3    H251303   3.250   1.098   4.718 -1.3609  0.4679  0.9430
 9938TIP3   OH251304   4.697   2.383   2.583  0.3590 -0.4366 -0.1185
 9938TIP3    H151305   4.604   2.378   2.560  0.5854 -1.0454 -0.8917
 9938TIP3    H251306   4.741   2.328   2.519  1.4475  1.1502 -0.7574
 9939TIP3   OH251307   1.946   1.186   5.813  0.0939 -0.0990 -0.3723
 9939TIP3    H151308   1.993   1.105   5.834  1.5210  0.6499 -0.6273
 9939TIP3    H251309   1.854   1.162   5.818  0.4883 -2.4059 -2.9175
 9940TIP3   OH251310   0.650   1.543  16.536 -0.0155  0.1472  0.2083
 9940TIP3    H151311   0.626   1.618  16.589  0.9059  0.6951 -0.1267
 9940TIP3    H251312   0.722   1.502  16.584 -1.5006 -1.4001  1.1521
 9941TIP3   OH251313   3.510   2.534  11.068  0.1070 -0.0871 -0.6720
 9941TIP3    H151314   3.547   2.550  10.981 -0.1423  0.7380 -0.6338
 9941TIP3    H251315   3.471   2.447  11.062 -0.4681  0.2180 -1.5831
 9942TIP3   OH251316   2.160   1.182   2.618 -0.9422 -0.1950 -0.2848
 9942TIP3    H151317   2.129   1.200   2.529  1.3182  1.3500 -0.8127
 9942TIP3    H251318   2.233   1.121   2.606 -0.2310  0.5050  0.4410
 9943TIP3   OH251319   1.822   6.239   2.203  0.1375  0.2541 -0.0511
 9943TIP3    H151320   1.733   6.264   2.226  0.3221  0.0220  0.9659
 9943TIP3    H251321   1.826   6.247   2.108 -0.4644  1.8622  0.0536
 9944TIP3   OH251322   0.458   5.523   5.135 -0.1250  0.4801  0.0487
 9944TIP3    H151323   0.514   5.464   5.185 -0.7643 -0.2677 -0.1025
 9944TIP3    H251324   0.410   5.573   5.201  0.1563  0.5719  0.1802
 9945TIP3   OH251325   2.386   5.431   5.573  0.3796  0.1323 -0.3276
 9945TIP3    H151326   2.432   5.489   5.512  0.1574 -1.5123 -2.1003
 9945TIP3    H251327   2.372   5.485   5.651 -0.1027  2.5784 -2.0487
 9946TIP3   OH251328   3.227   5.706   3.857  0.6340  0.3432 -0.1194
 9946TIP3    H151329   3.169   5.743   3.790 -0.9150 -0.5960  0.6645
 9946TIP3    H251330   3.206   5.754   3.937 -0.0332 -0.9263  0.4731
 9947TIP3   OH251331   2.876   2.524  16.252  0.1815 -0.4428  0.0364
 9947TIP3    H151332   2.939   2.451  16.247 -1.0265 -1.5843  1.2375
 9947TIP3    H251333   2.882   2.555  16.342 -1.2199 -0.7919  0.2600
 9948TIP3   OH251334   6.319   1.390   0.076 -0.2472  0.9700 -0.0971
 9948TIP3    H151335   6.331   1.344   0.158 -0.0263  1.9700  0.4354
 9948TIP3    H251336   6.237   1.354   0.040  0.3236 -0.3864 -0.0839
 9949TIP3   OH251337   1.893   4.082  11.579 -0.0712 -0.0778 -0.6351
 9949TIP3    H151338   1.911   3.992  11.555  0.6097 -0.6110  1.7340
 9949TIP3    H251339   1.951   4.134  11.523 -1.6367 -0.9690 -3.1579
 9950TIP3   OH251340   5.123   6.750   5.607 -0.1482  0.4930  0.2979
 9950TIP3    H151341   5.196   6.729   5.548 -0.9301  0.8035 -0.7795
 9950TIP3    H251342   5.044   6.733   5.556 -0.8500  0.3954  1.3841
 9951TIP3   OH251343   1.770   1.996   1.107 -0.4550 -0.2024  0.2258
 9951TIP3    H151344   1.864   1.996   1.126 -0.5463  1.2923  0.7366
 9951TIP3    H251345   1.752   1.907   1.076  1.3703 -0.1117 -1.1513
 9952TIP3   OH251346   1.508   1.084   2.386  0.0696  0.0529 -0.1421
 9952TIP3    H151347   1.519   1.177   2.370 -1.3244  0.3882  0.7263
 9952TIP3    H251348   1.490   1.077   2.480  1.3151 -1.2072  0.0171
 9953TIP3   OH251349   5.132   2.031   3.761 -0.3722  0.1901 -0.2513
 9953TIP3    H151350   5.183   2.112   3.759  1.1971 -0.6998  2.4078
 9953TIP3    H251351   5.087   2.032   3.845 -0.6329 -1.5320 -0.3475
 9954TIP3   OH251352   1.652   6.801  13.734  0.9943 -0.0192 -0.1255
 9954TIP3    H151353   1.606   6.794  13.651  1.1864 -0.2314 -0.2136
 9954TIP3    H251354   1.669   6.711  13.760 -0.5155 -0.0266  0.9546
 9955TIP3   OH251355   0.069   3.140  11.066  0.3298  0.2222  0.6337
 9955TIP3    H151356   0.072   3.195  10.988 -0.1095 -0.5407  0.0778
 9955TIP3    H251357   0.140   3.173  11.121 -0.0183  1.4457  0.3769
 9956TIP3   OH251358   1.773   5.147   2.462 -0.3513 -0.0072 -0.8028
 9956TIP3    H151359   1.740   5.229   2.427 -0.9943  0.4172  0.7378
 9956TIP3    H251360   1.697   5.106   2.503  0.5376 -0.0499  0.8707
 9957TIP3   OH251361   1.968   1.758  14.247 -0.0380 -0.0306  0.1800
 9957TIP3    H151362   1.896   1.820  14.256 -0.2262 -0.2671  0.3022
 9957TIP3    H251363   2.003   1.748  14.335 -1.4034 -1.7688  0.5676
 9958TIP3   OH251364   5.760   6.739  13.102  0.2084  0.4459 -0.3772
 9958TIP3    H151365   5.746   6.697  13.017  3.1123  1.7666 -1.5904
 9958TIP3    H251366   5.809   6.675  13.153 -0.4579  0.1264 -0.1367
 9959TIP3   OH251367   6.325   5.833   5.433  0.2608  1.1178 -0.3710
 9959TIP3    H151368   6.278   5.779   5.497  2.0875  1.3147  1.1660
 9959TIP3    H251369   6.301   5.923   5.456  2.8692  1.3416  1.6835
 9960TIP3   OH251370   5.377   6.630   2.706  0.3148 -0.3079  0.2909
 9960TIP3    H151371   5.420   6.705   2.748  0.9977  0.3805 -1.5282
 9960TIP3    H251372   5.446   6.565   2.697  0.8454  0.4712 -1.8563
 9961TIP3   OH251373   4.178   2.441   1.285 -0.2914 -0.1106 -0.6797
 9961TIP3    H151374   4.133   2.488   1.355  1.1830  1.4826 -0.7772
 9961TIP3    H251375   4.195   2.507   1.219  0.5588 -1.0928 -1.4514
 9962TIP3   OH251376   2.037   1.047  16.610 -0.5343  0.5293 -0.2133
 9962TIP3    H151377   2.121   1.060  16.652 -0.6318 -1.8970  0.8444
 9962TIP3    H251378   1.973   1.082  16.672 -0.3708  1.8770 -0.7779
 9963TIP3   OH251379   3.899   3.916   3.839  0.4224 -0.1543  0.2489
 9963TIP3    H151380   3.982   3.961   3.822 -0.3048 -0.0112 -3.4377
 9963TIP3    H251381   3.901   3.840   3.781 -2.0131 -0.1048  0.0210
 9964TIP3   OH251382   1.905   4.535  13.583  0.1444  0.3476 -0.0357
 9964TIP3    H151383   1.877   4.458  13.534 -0.5074 -0.4512  1.5613
 9964TIP3    H251384   1.857   4.608  13.543  0.9285 -0.0354 -1.6880
 9965TIP3   OH251385   5.929   3.061   2.939  0.4734 -0.6178  1.1773
 9965TIP3    H151386   5.932   3.055   2.843  3.1564  0.4844  1.1462
 9965TIP3    H251387   5.924   2.970   2.967 -0.1220 -0.9709 -0.0162
 9966TIP3   OH251388   0.380   3.299   3.815  0.2664 -0.3488 -0.2253
 9966TIP3    H151389   0.407   3.314   3.905 -0.0194  2.5102 -0.5866
 9966TIP3    H251390   0.325   3.374   3.793  0.4376 -0.9310 -2.8124
 9967TIP3   OH251391   0.817   2.213   3.438 -0.3338  0.2465  0.2853
 9967TIP3    H151392   0.853   2.230   3.351 -0.1839 -0.8210  0.1273
 9967TIP3    H251393   0.838   2.121   3.455  0.0112  0.5635  1.6262
 9968TIP3   OH251394   5.534   1.833  13.615 -0.4751  0.0847  0.0732
 9968TIP3    H151395   5.571   1.920  13.606  0.1018  0.0943  2.3561
 9968TIP3    H251396   5.596   1.775  13.570  1.5786  0.2832  2.5926
 9969TIP3   OH251397   0.249   6.780   5.325  0.4543  0.4124 -0.0911
 9969TIP3    H151398   0.210   6.700   5.361 -1.0547  1.4202  0.5455
 9969TIP3    H251399   0.341   6.756   5.309  0.3294 -1.0749  1.2464
 9970TIP3   OH251400   6.565   6.399  15.670 -0.1885 -0.1042  0.6841
 9970TIP3    H151401   6.520   6.402  15.585 -0.1325 -1.2702  0.6137
 9970TIP3    H251402   6.545   6.484  15.710  1.9808  1.5796 -1.6107
 9971TIP3   OH251403   1.110   6.349   1.108  0.3351  0.3081 -0.1901
 9971TIP3    H151404   1.104   6.354   1.203  0.3627 -1.0848 -0.1075
 9971TIP3    H251405   1.027   6.385   1.077 -1.1379 -2.3786  0.4722
 9972TIP3   OH251406   6.029   5.178   2.963  0.5227  0.0335  0.3864
 9972TIP3    H151407   6.051   5.164   2.871  0.1140  0.1538  0.2650
 9972TIP3    H251408   6.101   5.231   2.997 -0.2840  1.6727 -0.3777
 9973TIP3   OH251409   5.540   5.424   5.262  0.4053 -0.2095 -0.2469
 9973TIP3    H151410   5.513   5.500   5.315 -0.1987 -0.8803  0.4250
 9973TIP3    H251411   5.505   5.443   5.175 -1.0066 -0.3795  0.2668
 9974TIP3   OH251412   1.621   5.253   5.462  0.7078 -0.1625 -0.4577
 9974TIP3    H151413   1.545   5.270   5.406 -0.6160  0.3867  1.4543
 9974TIP3    H251414   1.673   5.333   5.456  1.9154 -1.0650 -2.8884
 9975TIP3   OH251415   1.934   5.034   1.278 -0.0554  0.0738  0.0589
 9975TIP3    H151416   1.982   4.990   1.207  0.7970 -1.5744  1.6166
 9975TIP3    H251417   1.858   4.979   1.294 -0.3912  0.5882  0.2287
 9976TIP3   OH251418   0.078   2.007   5.354 -0.0114  0.0684 -0.4559
 9976TIP3    H151419   0.045   2.029   5.267  0.0523  0.2547 -0.4337
 9976TIP3    H251420   0.038   1.923   5.375 -1.9190  1.1483  0.3415
 9977TIP3   OH251421   3.177   2.847   4.903  0.0212 -0.0397  0.8092
 9977TIP3    H151422   3.232   2.910   4.949 -0.6738  0.1161  1.4418
 9977TIP3    H251423   3.214   2.762   4.925 -0.2145  0.0427  1.5482
 9978TIP3   OH251424   0.025   5.937   4.995 -0.5630 -0.6224  0.2701
 9978TIP3    H151425  -0.057   5.915   5.039 -1.4365  2.2921  0.2586
 9978TIP3    H251426  -0.003   5.982   4.915  1.0177  0.8564  0.5105
 9979TIP3   OH251427   4.636   1.379  13.915 -0.8011 -0.2083  0.6844
 9979TIP3    H151428   4.588   1.443  13.967  0.8373 -0.9561  3.2363
 9979TIP3    H251429   4.570   1.316  13.887 -2.0133  1.2240  0.2972
 9980TIP3   OH251430   0.422   4.636   2.550 -0.5718  0.0538  0.0282
 9980TIP3    H151431   0.517   4.651   2.546 -0.6657  0.5221 -0.5016
 9980TIP3    H251432   0.407   4.602   2.638 -0.0068  0.6671  0.3640
 9981TIP3   OH251433   4.880   5.905   3.519 -0.1313  0.0286 -0.1947
 9981TIP3    H151434   4.958   5.851   3.515 -0.2868 -0.3299  1.2482
 9981TIP3    H251435   4.896   5.966   3.591 -0.6413  0.8184 -0.7355
 9982TIP3   OH251436   0.358   1.108   5.615 -0.2305  0.9790 -0.0781
 9982TIP3    H151437   0.291   1.080   5.677 -1.5842 -0.4867 -2.1566
 9982TIP3    H251438   0.438   1.064   5.645 -1.0427 -0.3459  0.1552
 9983TIP3   OH251439   0.873   5.886   2.948  0.1815  0.0325 -0.0901
 9983TIP3    H151440   0.939   5.817   2.947  1.0100  0.7947  1.3335
 9983TIP3    H251441   0.805   5.853   3.006  0.4605  0.3037  0.3920
 9984TIP3   OH251442   6.621   0.818  12.184  0.3682 -0.0982 -0.0706
 9984TIP3    H151443   6.638   0.783  12.272 -1.3316  0.0588  0.3416
 9984TIP3    H251444   6.601   0.742  12.131  1.2328 -0.1766 -0.2944
 9985TIP3   OH251445   3.776   5.600   3.161 -0.0545 -0.2210 -0.0779
 9985TIP3    H151446   3.870   5.609   3.171 -0.1961  2.6490 -0.9983
 9985TIP3    H251447   3.739   5.645   3.237 -0.6965 -2.2122  0.8213
 9986TIP3   OH251448   1.201   2.033   4.483 -0.0857  0.1183 -0.3291
 9986TIP3    H151449   1.234   1.944   4.471 -0.1489  0.0412  0.0612
 9986TIP3    H251450   1.276   2.082   4.517 -0.3848 -0.0744  0.6342
 9987TIP3   OH251451   5.954   0.866   3.939 -0.0560 -0.4419 -0.3782
 9987TIP3    H151452   5.974   0.957   3.962  1.1179 -0.4671 -1.2505
 9987TIP3    H251453   6.035   0.832   3.902 -0.7731 -1.5502 -0.9788
 9988TIP3   OH251454   1.362   2.261  15.068 -0.4866  0.3366 -0.2749
 9988TIP3    H151455   1.338   2.203  15.140  1.0656  0.0634  0.0529
 9988TIP3    H251456   1.281   2.276  15.020 -1.2830 -0.5111  0.7909
 9989TIP3   OH251457   3.001   6.454  14.747  0.4010 -0.3021 -0.3729
 9989TIP3    H151458   2.910   6.427  14.738  0.8749 -1.7113 -1.1255
 9989TIP3    H251459   3.044   6.422  14.668  1.0586  2.5314 -1.1920
 9990TIP3   OH251460   2.106   0.530  14.397  0.1219  0.0554 -0.4649
 9990TIP3    H151461   2.145   0.456  14.351  0.9202 -0.7074  1.3745
 9990TIP3    H251462   2.037   0.562  14.338  0.3356 -1.6128 -1.6459
 9991TIP3   OH251463   2.232   1.670   4.354  0.0387 -0.2655 -0.9258
 9991TIP3    H151464   2.250   1.661   4.448 -1.4800  0.3994 -0.5587
 9991TIP3    H251465   2.316   1.698   4.317  0.4724  0.1799  0.3432
 9992TIP3   OH251466   2.063   1.603  13.860 -0.2158  0.4492 -0.2750
 9992TIP3    H151467   2.107   1.646  13.787 -0.4710 -1.0633 -1.3623
 9992TIP3    H251468   2.133   1.562  13.910 -0.3099 -1.6568 -1.8026
 9993TIP3   OH251469   4.060   4.271   4.686 -0.4727 -0.5708 -0.2450
 9993TIP3    H151470   4.114   4.280   4.764 -0.9417 -0.8110  0.1073
 9993TIP3    H251471   4.078   4.351   4.635 -0.3383 -0.3099  0.2095
 9994TIP3   OH251472   6.200   5.884  13.835 -0.1273 -0.0794  0.2526
 9994TIP3    H151473   6.190   5.896  13.929  0.8560  0.7722  0.2523
 9994TIP3    H251474   6.211   5.972  13.800  2.5305 -0.5870 -0.3021
 9995TIP3   OH251475   0.292   0.521  10.904  0.1763  0.2246  0.6774
 9995TIP3    H151476   0.373   0.546  10.950 -0.1303  1.1466  0.7221
 9995TIP3    H251477   0.311   0.537  10.812  0.3319 -0.3723  0.6014
 9996TIP3   OH251478   3.979   4.613   4.952  0.4504  0.3188  0.5342
 9996TIP3    H151479   4.025   4.617   4.868  0.6455 -2.8913  0.4494
 9996TIP3    H251480   4.046   4.630   5.017  0.7073  0.7728  0.1588
 9997TIP3   OH251481   4.235   3.747   3.652  0.7358  0.3222  0.3936
 9997TIP3    H151482   4.327   3.763   3.633  0.7906  0.5549  0.8469
 9997TIP3    H251483   4.235   3.670   3.709  0.4352 -1.7866 -2.3112
 9998TIP3   OH251484   5.412   5.536  11.983 -1.3923  0.4486 -0.1292
 9998TIP3    H151485   5.326   5.573  12.005 -0.9020  0.8278  1.1600
 9998TIP3    H251486   5.395   5.443  11.970 -2.2739  0.7662 -1.4610
 9999TIP3   OH251487   3.444   6.488  11.641  0.4698 -0.8082  0.7601
 9999TIP3    H151488   3.479   6.561  11.692 -0.4523 -0.9306  1.5896
 9999TIP3    H251489   3.506   6.416  11.657 -0.0388 -0.9687  2.0637
10000TIP3   OH251490   2.231   2.284   0.431  0.6840 -0.3553  0.3160
10000TIP3    H151491   2.321   2.282   0.399  1.1442 -0.1429  1.5613
10000TIP3    H251492   2.212   2.377   0.444  0.5154 -0.4396  0.6768
10001TIP3   OH251493   6.201   2.895   1.147 -0.1265  0.3022  0.0499
10001TIP3    H151494   6.129   2.888   1.084 -0.7382 -1.8140  0.9237
10001TIP3    H251495   6.161   2.871   1.231  2.0042 -2.9964  0.2158
10002TIP3   OH251496   0.756   5.195  14.533  0.1819  0.1091 -0.1600
10002TIP3    H151497   0.676   5.148  14.553  0.5530 -0.0291  1.0288
10002TIP3    H251498   0.826   5.142  14.570  0.7128  0.9125  0.0199
10003TIP3   OH251499   3.249   2.986   3.764 -0.5038 -0.1220  0.1094
10003TIP3    H151500   3.338   2.954   3.751 -0.9298 -0.9427 -0.7904
10003TIP3    H251501   3.217   2.936   3.839 -0.7842 -1.0301 -0.6080
10004TIP3   OH251502   2.968   4.143  15.395  0.6579  0.3697 -0.1121
10004TIP3    H151503   2.986   4.215  15.456  0.2907  0.0352  0.3908
10004TIP3    H251504   3.019   4.069  15.429  0.8607  0.3285 -0.5042
10005TIP3   OH251505   1.666   6.657   1.130 -0.4204 -0.3809 -0.4796
10005TIP3    H151506   1.589   6.639   1.074  0.5124 -0.8034 -1.6543
10005TIP3    H251507   1.731   6.592   1.102  0.6142  0.4379  0.0201
10006TIP3   OH251508   4.301   2.341  14.403 -0.4973 -0.3810  0.2535
10006TIP3    H151509   4.271   2.314  14.490 -2.2610  2.2314  0.5178
10006TIP3    H251510   4.317   2.259  14.356 -1.3525 -1.8241  2.4142
10007TIP3   OH251511   1.854   0.878   5.552 -0.3175  0.2857 -0.2794
10007TIP3    H151512   1.915   0.952   5.554 -0.8042  0.6535  1.8842
10007TIP3    H251513   1.911   0.801   5.546  0.3683  0.6482  1.2826
10008TIP3   OH251514   5.006   0.208   4.944 -0.7781 -0.7720  0.4562
10008TIP3    H151515   5.077   0.235   4.886 -0.3890 -0.6572  0.9789
10008TIP3    H251516   5.016   0.264   5.021 -1.6418 -0.5248  0.3903
10009TIP3   OH251517   2.285   3.802   4.454 -0.6655 -0.3801 -0.6239
10009TIP3    H151518   2.256   3.717   4.486  1.5624 -0.1688  2.1950
10009TIP3    H251519   2.365   3.782   4.404 -0.0425  0.0637  0.1905
10010TIP3   OH251520   5.899   1.028  12.042  0.1701  0.0700 -0.8519
10010TIP3    H151521   5.990   1.011  12.067  0.0830 -0.3218 -0.7982
10010TIP3    H251522   5.862   0.941  12.027 -0.7437  0.1016  1.0508
10011TIP3   OH251523   6.224   5.240   5.124  0.7332 -0.3448 -0.2840
10011TIP3    H151524   6.202   5.225   5.032 -0.5911  2.0836 -0.4042
10011TIP3    H251525   6.156   5.193   5.173  0.1621  0.1502 -0.5888
10012TIP3   OH251526   5.368   2.402  16.156 -0.0874  0.3521  0.0513
10012TIP3    H151527   5.314   2.481  16.165 -2.4270 -1.1205 -0.4200
10012TIP3    H251528   5.332   2.342  16.221 -0.6611 -1.5308 -1.9325
10013TIP3   OH251529   3.863   6.794   2.916  0.5533  0.2084  0.3289
10013TIP3    H151530   3.932   6.853   2.887  0.8327  0.5291  1.6225
10013TIP3    H251531   3.824   6.837   2.991  0.1483 -0.8236  0.7223
10014TIP3   OH251532   1.557   4.029  11.872 -0.3075 -0.1552 -0.1142
10014TIP3    H151533   1.596   4.054  11.789  0.3692  0.6699  0.4437
10014TIP3    H251534   1.464   4.049  11.863 -0.1130  0.6141 -0.4168
10015TIP3   OH251535   2.152   1.094  13.629 -0.0867 -0.2415 -0.3548
10015TIP3    H151536   2.174   1.184  13.651 -0.2220 -0.1910 -0.4209
10015TIP3    H251537   2.162   1.090  13.534 -0.7047 -0.1224 -0.4258
10016TIP3   OH251538   0.892   0.699  14.118  0.7159  0.2327 -0.4638
10016TIP3    H151539   0.904   0.764  14.187  0.8516  1.3139 -1.4830
10016TIP3    H251540   0.807   0.720  14.080  0.3376 -0.7840 -0.1787
10017TIP3   OH251541   0.008   1.409  14.931  0.3139  0.0715 -0.0481
10017TIP3    H151542   0.077   1.470  14.956  0.9072 -1.0613  1.1249
10017TIP3    H251543   0.053   1.340  14.883 -0.3499  0.4949 -1.3180
10018TIP3   OH251544   0.084   3.489  14.885  0.0198 -0.7371 -0.1466
10018TIP3    H151545   0.026   3.518  14.815  1.0417  0.3531 -0.5543
10018TIP3    H251546   0.121   3.407  14.853  0.5932 -0.1682 -0.9492
10019TIP3   OH251547   0.775   6.749   3.270  0.6014  0.3771 -0.6394
10019TIP3    H151548   0.860   6.792   3.273  0.6825  0.1571  0.7692
10019TIP3    H251549   0.717   6.813   3.231  1.5056  0.3659 -2.0267
10020TIP3   OH251550   6.151   0.323   3.519  0.2625 -0.1611 -0.7009
10020TIP3    H151551   6.174   0.244   3.470 -1.8333 -0.6457 -0.9633
10020TIP3    H251552   6.147   0.392   3.453  1.1179 -0.0497 -0.6314
10021TIP3   OH251553   2.397   3.727   4.082 -0.1674 -0.2534  0.5390
10021TIP3    H151554   2.464   3.729   4.014 -0.6829  0.0554  0.0384
10021TIP3    H251555   2.446   3.741   4.164  0.3154  0.5828  0.1198
10022TIP3   OH251556   5.843   4.802   1.940  0.2960  0.5900  0.1091
10022TIP3    H151557   5.761   4.766   1.905  0.1895 -0.9721  1.8564
10022TIP3    H251558   5.826   4.812   2.034  1.8964  0.8126  0.3867
10023TIP3   OH251559   5.675   1.191  16.383 -0.3326 -0.0925  0.2176
10023TIP3    H151560   5.673   1.260  16.317  0.1239 -1.4804 -1.2748
10023TIP3    H251561   5.768   1.175  16.399 -0.4212 -0.9770 -0.1195
10024TIP3   OH251562   3.448   3.340  14.558 -0.4260  0.2870 -0.7001
10024TIP3    H151563   3.435   3.358  14.465 -1.9215  0.5700 -0.4382
10024TIP3    H251564   3.533   3.380  14.578  0.3791 -0.6287 -2.1573
10025TIP3   OH251565   6.118   0.482  17.122 -0.3293 -0.3123 -0.6613
10025TIP3    H151566   6.169   0.538  17.064 -1.5060 -0.4117 -1.8079
10025TIP3    H251567   6.086   0.542  17.190 -0.2783  0.1098 -1.0049
10026TIP3   OH251568   2.524   4.549  12.626  0.0860  0.3832 -0.7396
10026TIP3    H151569   2.500   4.466  12.666  3.2947  0.5987  1.8655
10026TIP3    H251570   2.449   4.606  12.642  0.1294 -0.3694  2.6463
10027TIP3   OH251571   3.151   1.640   0.332 -0.8200 -0.3389  0.3668
10027TIP3    H151572   3.116   1.707   0.390 -0.0693 -0.0373  0.4637
10027TIP3    H251573   3.076   1.582   0.316 -1.3452  0.2503  0.6565
10028TIP3   OH251574   5.616   5.744  14.601 -0.1316  0.0498 -0.2185
10028TIP3    H151575   5.630   5.730  14.508  1.4371  1.6734 -0.2644
10028TIP3    H251576   5.591   5.837  14.608 -0.1001 -0.0137  0.9799
10029TIP3   OH251577   3.608   2.459  13.432  0.1059  0.2078 -0.2974
10029TIP3    H151578   3.555   2.408  13.370 -0.4323  0.1295  0.2289
10029TIP3    H251579   3.656   2.521  13.376 -2.4570  2.0107 -0.5763
10030TIP3   OH251580   6.071   6.376   5.425  0.0715 -0.1652 -0.4568
10030TIP3    H151581   5.998   6.361   5.485 -0.2612  0.1249 -0.7913
10030TIP3    H251582   6.072   6.299   5.368  1.9467 -1.6579  1.5074
10031TIP3   OH251583   3.098   1.373   4.404  0.2992 -0.2104  0.2255
10031TIP3    H151584   3.082   1.466   4.388  0.5349 -0.2278 -0.1185
10031TIP3    H251585   3.187   1.370   4.439  0.3285 -0.3173  0.1405
10032TIP3   OH251586   1.611   0.261  14.224  0.3997  0.1282 -0.4024
10032TIP3    H151587   1.589   0.175  14.187  0.0028  0.2584 -0.4650
10032TIP3    H251588   1.565   0.264  14.307 -0.7122  0.8444 -1.0367
10033TIP3   OH251589   0.571   1.022   3.487 -0.2944 -0.8150  0.0456
10033TIP3    H151590   0.589   1.108   3.450 -1.9835 -0.2226  0.6148
10033TIP3    H251591   0.593   0.961   3.416 -0.3344  0.1372 -0.7892
10034TIP3   OH251592   0.862   6.819   1.227 -0.2831 -0.2170  0.3168
10034TIP3    H151593   0.951   6.813   1.263  0.7957  1.5586 -1.8943
10034TIP3    H251594   0.853   6.741   1.172  0.6916  0.5868 -1.0229
10035TIP3   OH251595   0.162   3.822   0.997 -0.3743  0.0359 -0.1397
10035TIP3    H151596   0.253   3.793   1.003 -0.9597 -2.2851 -1.6016
10035TIP3    H251597   0.167   3.914   0.973  1.5950  0.7429  2.8324
10036TIP3   OH251598   4.574   0.153  11.936 -0.8080  0.6136 -0.0284
10036TIP3    H151599   4.652   0.120  11.979 -1.7332 -0.8848  0.5470
10036TIP3    H251600   4.525   0.198  12.005 -1.6806 -0.6993  0.2449
10037TIP3   OH251601   4.391   3.122  13.283 -0.2084  0.9294 -0.1901
10037TIP3    H151602   4.334   3.052  13.315  0.8487 -0.2689 -0.8463
10037TIP3    H251603   4.357   3.144  13.197  0.4506  0.0308 -0.6916
10038TIP3   OH251604   0.925   3.270   6.398  0.0933 -0.3216 -0.1558
10038TIP3    H151605   0.910   3.357   6.435  1.0927  0.0553 -0.6014
10038TIP3    H251606   0.975   3.223   6.465  0.4701 -0.1928 -0.3435
10039TIP3   OH251607   2.539   3.059   2.501  0.1531  0.4762 -0.9155
10039TIP3    H151608   2.550   3.068   2.596 -0.6174 -1.2993 -0.6447
10039TIP3    H251609   2.498   2.973   2.490 -1.3588  1.3969 -2.7449
10040TIP3   OH251610   0.480   4.288  14.322 -0.6772  0.0931 -0.6611
10040TIP3    H151611   0.546   4.226  14.350  1.9440  2.5239 -1.1629
10040TIP3    H251612   0.409   4.280  14.386 -0.5987 -3.5988 -0.9495
10041TIP3   OH251613   2.572   2.868   2.729  0.0213 -0.0522  0.2819
10041TIP3    H151614   2.489   2.864   2.777  0.2149 -2.3488  0.4974
10041TIP3    H251615   2.609   2.780   2.738  2.3883  0.8701  0.0051
10042TIP3   OH251616   5.176   1.247   6.561 -0.8684 -0.2297 -0.8264
10042TIP3    H151617   5.168   1.297   6.480  1.3225  0.0198 -0.9218
10042TIP3    H251618   5.241   1.296   6.613 -0.7148 -1.4949  0.2030
10043TIP3   OH251619   3.517   2.622   4.869  0.3149  0.2309  0.5181
10043TIP3    H151620   3.603   2.647   4.902  0.8839 -0.2230 -0.5639
10043TIP3    H251621   3.485   2.700   4.824  1.0084 -0.1774 -0.7213
10044TIP3   OH251622   3.885   5.041   1.002 -0.4085 -0.0240  0.0002
10044TIP3    H151623   3.860   4.978   1.069  2.2620 -0.2407  0.8564
10044TIP3    H251624   3.934   4.990   0.937 -1.4291  0.5084 -1.2134
10045TIP3   OH251625   4.036   3.396   4.667  0.1142  0.0432 -0.6840
10045TIP3    H151626   3.995   3.474   4.630  0.9007  1.7641  1.9920
10045TIP3    H251627   3.963   3.340   4.694 -0.4507  0.9825 -0.2808
10046TIP3   OH251628   0.258   2.036  13.916  0.0628 -0.4317  0.2452
10046TIP3    H151629   0.329   2.017  13.854  1.4657 -0.4648  1.8243
10046TIP3    H251630   0.285   1.993  13.997 -0.0959  2.3698  1.8721
10047TIP3   OH251631   2.940   5.992  14.736 -0.0554 -0.6443  0.1845
10047TIP3    H151632   3.023   5.946  14.745 -0.7287 -2.0996 -0.7813
10047TIP3    H251633   2.874   5.930  14.766 -0.7921  0.6282  1.2974
10048TIP3   OH251634   3.533   6.488   3.730  0.1686 -0.3446  0.3326
10048TIP3    H151635   3.489   6.405   3.711 -0.9281  0.1273  0.8096
10048TIP3    H251636   3.501   6.514   3.816 -1.1450  1.6587 -0.7218
10049TIP3   OH251637   6.376   1.347  14.117  0.1755 -0.2010 -0.3160
10049TIP3    H151638   6.297   1.307  14.152  0.1812  0.3031  0.2859
10049TIP3    H251639   6.400   1.414  14.181  3.1873 -2.7958  1.4256
10050TIP3   OH251640   3.581   5.455  12.691 -0.0095 -0.4422 -0.2045
10050TIP3    H151641   3.627   5.406  12.760  0.0706  3.9254  3.0796
10050TIP3    H251642   3.649   5.507  12.649 -0.9804  1.9340  1.0185
10051TIP3   OH251643   6.381   2.612   6.668  0.0487  0.8721  0.2068
10051TIP3    H151644   6.296   2.600   6.710 -1.6894 -1.3029 -3.6770
10051TIP3    H251645   6.370   2.689   6.613  0.1778 -0.1054 -1.2116
10052TIP3   OH251646   5.573   6.688   3.707 -0.3789 -0.1387  0.3285
10052TIP3    H151647   5.481   6.710   3.722 -0.2197  0.6932  0.1098
10052TIP3    H251648   5.621   6.760   3.749  0.1751 -0.7629  0.7593
10053TIP3   OH251649   3.679   5.219  11.119 -0.5592  0.3849 -0.3423
10053TIP3    H151650   3.732   5.278  11.171  2.1272  0.0585 -2.5737
10053TIP3    H251651   3.631   5.276  11.058  0.0294  0.4511 -0.7470
10054TIP3   OH251652   3.441   4.214   2.145 -0.8476 -0.1989 -0.1236
10054TIP3    H151653   3.411   4.133   2.186  0.6521  1.1172  3.8836
10054TIP3    H251654   3.363   4.250   2.102 -1.8554 -3.0325 -0.7712
10055TIP3   OH251655   3.388   1.337  15.172 -0.0526  0.0490  0.5215
10055TIP3    H151656   3.435   1.410  15.211  0.0884 -1.2278  2.8361
10055TIP3    H251657   3.304   1.373  15.143  1.6978  2.0464 -2.3788
10056TIP3   OH251658   0.283   6.714  13.633  0.0827  0.1876  0.3079
10056TIP3    H151659   0.199   6.729  13.590 -0.6721 -0.5325  1.4969
10056TIP3    H251660   0.320   6.639  13.587 -0.3598 -0.0893  0.3964
10057TIP3   OH251661   3.398   2.715   1.838 -0.0911 -0.6118 -0.0298
10057TIP3    H151662   3.480   2.674   1.866 -0.1005 -1.2346 -0.9028
10057TIP3    H251663   3.344   2.643   1.806 -0.9186 -0.1804  0.3638
10058TIP3   OH251664   1.245   0.088   5.397  0.4988 -0.4596  0.3180
10058TIP3    H151665   1.248   0.157   5.463  0.2106  0.5997 -0.7644
10058TIP3    H251666   1.322   0.102   5.343  0.8773 -1.4880  0.5777
10059TIP3   OH251667   6.493   2.191  10.748  0.3543  0.1019 -0.1310
10059TIP3    H151668   6.558   2.136  10.792 -1.1961 -1.8107 -0.1600
10059TIP3    H251669   6.433   2.129  10.707 -0.4457  1.8516 -1.6602
10060TIP3   OH251670   1.012   4.211   3.032 -0.3617  0.0212 -0.6051
10060TIP3    H151671   1.006   4.232   3.125  0.1759  0.2613 -0.6212
10060TIP3    H251672   1.015   4.295   2.988 -1.9685 -0.0872 -0.9458
10061TIP3   OH251673   0.622   2.053   1.444 -0.8166  0.7690 -0.3075
10061TIP3    H151674   0.641   2.127   1.501 -0.8830 -0.7577  1.7738
10061TIP3    H251675   0.535   2.024   1.470  0.0621 -1.3367  0.3964
10062TIP3   OH251676   1.601   0.268   2.379  0.2858  0.0732 -0.7272
10062TIP3    H151677   1.587   0.300   2.290  3.6413 -0.6095 -1.5961
10062TIP3    H251678   1.683   0.219   2.374  0.4268 -0.1815  2.7003
10063TIP3   OH251679   6.571   4.613  16.541 -0.9228 -0.1394 -0.1668
10063TIP3    H151680   6.543   4.625  16.450  1.2619 -0.3060 -0.8807
10063TIP3    H251681   6.633   4.684  16.557  1.0779 -1.9159  0.1960
10064TIP3   OH251682   4.996   5.598   0.358  0.0552 -0.0027  0.3708
10064TIP3    H151683   5.067   5.560   0.305 -1.3446 -0.2883 -1.3405
10064TIP3    H251684   4.960   5.668   0.303 -1.5119 -0.3763  0.9010
10065TIP3   OH251685   1.080   5.704   2.997 -0.0598 -0.2770 -0.0133
10065TIP3    H151686   1.173   5.727   2.999 -0.2855  0.6066  0.6973
10065TIP3    H251687   1.078   5.615   2.962  1.2751 -1.3766  2.5810
10066TIP3   OH251688   1.279   6.244   1.351  0.4189 -0.8078  0.2372
10066TIP3    H151689   1.351   6.182   1.364  0.2945 -0.8867  0.5561
10066TIP3    H251690   1.200   6.189   1.350  0.4902 -0.8825 -1.5880
10067TIP3   OH251691   3.650   0.695   1.051 -0.1796 -0.2464  0.1373
10067TIP3    H151692   3.679   0.786   1.042 -1.5199  0.0271 -1.5856
10067TIP3    H251693   3.694   0.649   0.979  0.7304 -1.0402  1.1787
10068TIP3   OH251694   6.536   5.923  15.226 -0.1763  0.4687  0.5295
10068TIP3    H151695   6.480   5.949  15.153  0.8657 -0.7850 -0.7313
10068TIP3    H251696   6.475   5.905  15.297 -1.3544 -0.4236 -0.6891
10069TIP3   OH251697   1.191   0.462   2.650  0.7921  0.5957 -0.0601
10069TIP3    H151698   1.120   0.398   2.654  1.4131 -0.2478 -2.2712
10069TIP3    H251699   1.270   0.412   2.670  1.0578  1.0350 -0.0128
10070TIP3   OH251700   4.968   1.189  16.880 -0.0537 -0.4662  0.4718
10070TIP3    H151701   4.962   1.231  16.794  0.8328  0.6577  0.9487
10070TIP3    H251702   4.888   1.137  16.887  0.3939 -1.5083 -1.5269
10071TIP3   OH251703   1.385   2.599  11.102 -0.3138  0.0383  0.3620
10071TIP3    H151704   1.310   2.654  11.127  0.7242  1.2035  0.9475
10071TIP3    H251705   1.389   2.606  11.007  1.0318  2.6372  0.5709
10072TIP3   OH251706   4.859   6.448   5.311  0.4936 -0.0076  0.1517
10072TIP3    H151707   4.822   6.392   5.243  1.3352  0.5545 -0.7946
10072TIP3    H251708   4.813   6.423   5.391 -1.7180  0.5020 -0.9366
10073TIP3   OH251709   1.508   5.232  11.786  0.7548 -0.1532  0.8130
10073TIP3    H151710   1.599   5.225  11.813  0.6185 -0.5489  1.1722
10073TIP3    H251711   1.489   5.148  11.744  0.8383  0.2940 -0.1167
10074TIP3   OH251712   5.373   4.374  14.823 -0.4776 -0.1975  0.2279
10074TIP3    H151713   5.343   4.365  14.732  0.4063  1.4178 -0.2522
10074TIP3    H251714   5.453   4.321  14.826 -0.5087 -0.2557  0.0673
10075TIP3   OH251715   0.375   0.926   5.387 -0.1603 -0.7994 -0.1711
10075TIP3    H151716   0.353   0.849   5.440 -0.9619  0.1933  0.9637
10075TIP3    H251717   0.377   0.998   5.450 -0.8068  0.3534 -1.4542
10076TIP3   OH251718   2.367   4.566  16.573  0.6555 -0.2145 -0.5553
10076TIP3    H151719   2.341   4.609  16.654 -1.5523 -0.8739 -0.8690
10076TIP3    H251720   2.462   4.567  16.575  0.6526  2.7197  0.4569
10077TIP3   OH251721   3.263   2.655  17.203  0.1147  0.3319  0.2588
10077TIP3    H151722   3.212   2.663  17.283  0.9180  0.8055  0.7249
10077TIP3    H251723   3.285   2.745  17.179 -1.0251  0.2789 -1.0855
10078TIP3   OH251724   1.771   6.785   3.947 -0.0037 -0.1929 -0.3278
10078TIP3    H151725   1.855   6.743   3.927  0.8334  0.7088  1.2354
10078TIP3    H251726   1.767   6.788   4.042 -1.0457  1.2992 -0.3996
10079TIP3   OH251727   6.796   5.527  14.031  0.2073 -0.0024  0.3374
10079TIP3    H151728   6.771   5.437  14.050 -0.0834 -0.1403 -0.6720
10079TIP3    H251729   6.891   5.528  14.036  0.3886 -0.9780 -2.2156
10080TIP3   OH251730   4.382   6.480  14.850  0.0354  0.1294 -0.1573
10080TIP3    H151731   4.454   6.479  14.787  0.0683  2.4987 -0.2011
10080TIP3    H251732   4.322   6.412  14.819  1.1335 -0.2741 -1.4460
10081TIP3   OH251733   3.790   0.251  15.332 -0.5876  0.3360  0.1032
10081TIP3    H151734   3.712   0.305  15.342 -0.7138  0.1650  0.0554
10081TIP3    H251735   3.835   0.287  15.255  0.1634  1.3740  1.0258
10082TIP3   OH251736   5.238   3.610   3.770  1.0397  0.7473 -0.0090
10082TIP3    H151737   5.322   3.569   3.792  0.5246 -0.2297  0.1849
10082TIP3    H251738   5.228   3.593   3.676  0.3565 -0.4802  0.2688
10083TIP3   OH251739   5.554   3.773   1.826  0.2935  0.1675 -0.2878
10083TIP3    H151740   5.633   3.719   1.831  0.5714  0.5085 -0.9873
10083TIP3    H251741   5.565   3.838   1.895  0.6071  0.2001 -0.3670
10084TIP3   OH251742   0.906   6.183   0.636 -0.1274 -0.1362 -0.0501
10084TIP3    H151743   0.920   6.103   0.687  0.1006 -0.3239 -0.4077
10084TIP3    H251744   0.830   6.163   0.582  0.3612 -0.3631 -0.6530
10085TIP3   OH251745   2.610   0.119   0.162 -0.6755 -0.2190  0.2668
10085TIP3    H151746   2.569   0.037   0.187 -0.2023 -0.8815 -1.0873
10085TIP3    H251747   2.551   0.187   0.196 -1.2171 -1.1045  1.1251
10086TIP3   OH251748   4.389   2.930   2.941 -0.3434 -0.2285  0.5257
10086TIP3    H151749   4.411   2.891   3.026  0.5010  0.2900  0.5469
10086TIP3    H251750   4.388   3.024   2.958  3.7485  0.1399 -0.9175
10087TIP3   OH251751   6.647   3.556  12.588 -0.1577  0.1908  0.2599
10087TIP3    H151752   6.685   3.636  12.551  0.8828  0.3328  1.6036
10087TIP3    H251753   6.628   3.501  12.512  0.1277  1.2747 -0.6075
10088TIP3   OH251754   6.554   0.162  15.312  0.7298 -0.0168  0.1285
10088TIP3    H151755   6.474   0.113  15.292  0.6797 -0.3546  1.1473
10088TIP3    H251756   6.546   0.185  15.404  1.9425 -0.3111  0.3201
10089TIP3   OH251757   6.569   2.208   4.977 -0.6347  0.3695 -0.2458
10089TIP3    H151758   6.592   2.279   5.037  0.2559  0.2763 -0.4589
10089TIP3    H251759   6.539   2.137   5.034  1.6860 -0.2846  0.2352
10090TIP3   OH251760   2.870   5.834   2.006  0.1211  0.2536 -0.0360
10090TIP3    H151761   2.793   5.813   1.953 -1.1019  0.1219  1.7300
10090TIP3    H251762   2.911   5.908   1.961 -0.8310  0.0783 -1.2019
10091TIP3   OH251763   5.648   2.435   2.359 -0.2205 -0.0421  0.3933
10091TIP3    H151764   5.559   2.469   2.360 -0.1907  0.0597 -0.3862
10091TIP3    H251765   5.684   2.461   2.444  0.0300  2.5285 -0.4454
10092TIP3   OH251766   6.300   4.784   0.102 -0.3304  0.9975 -0.4779
10092TIP3    H151767   6.307   4.746   0.014 -0.1268 -0.1585  0.0285
10092TIP3    H251768   6.381   4.833   0.113  0.1336  0.2466 -0.5220
10093TIP3   OH251769   5.078   6.497  11.167 -0.4402 -0.0321  0.2616
10093TIP3    H151770   5.165   6.537  11.180 -0.1313 -0.7727  0.4758
10093TIP3    H251771   5.025   6.568  11.129  0.8061 -0.1396 -1.7830
10094TIP3   OH251772   1.585   4.061   0.302  0.4174  0.0079 -0.3376
10094TIP3    H151773   1.637   4.005   0.360 -1.5247 -1.3584  0.1614
10094TIP3    H251774   1.539   3.999   0.245 -0.2574  1.2058 -1.1034
10095TIP3   OH251775   2.013   6.505  12.588  0.0483 -0.1280  0.6287
10095TIP3    H151776   1.988   6.508  12.495 -0.7338  1.7172  0.8798
10095TIP3    H251777   1.960   6.434  12.625  0.0166 -0.5628 -0.2309
10096TIP3   OH251778   0.880   5.978   0.830  0.5112  0.2778  0.3809
10096TIP3    H151779   0.917   5.991   0.918 -0.1085 -0.6140  0.7804
10096TIP3    H251780   0.794   5.939   0.846 -0.0453  1.0957 -0.5890
10097TIP3   OH251781   5.495   0.421  12.908  0.1721  0.1918 -0.1537
10097TIP3    H151782   5.512   0.512  12.933 -2.1785  0.5971  0.1362
10097TIP3    H251783   5.513   0.417  12.815 -0.0655  1.0724 -0.2410
10098TIP3   OH251784   2.598   6.311   6.611 -0.2850  0.4680 -0.4703
10098TIP3    H151785   2.660   6.383   6.600 -1.8853  1.6686 -2.0113
10098TIP3    H251786   2.623   6.247   6.544  0.6340 -0.0591  0.3656
10099TIP3   OH251787   0.157   2.158   4.687 -0.0253 -0.2523  0.3192
10099TIP3    H151788   0.097   2.165   4.612  0.4883 -0.4040 -0.1086
10099TIP3    H251789   0.220   2.090   4.661 -0.4265 -0.9993  1.2977
10100TIP3   OH251790   4.548   0.545  13.524 -0.9485  0.4802  0.5751
10100TIP3    H151791   4.549   0.641  13.534 -1.8688  0.5981 -0.3102
10100TIP3    H251792   4.528   0.512  13.612 -0.7841  1.1168  0.8535
10101TIP3   OH251793   6.419   2.199  13.002  0.1366  0.2849  0.4171
10101TIP3    H151794   6.359   2.155  13.063 -1.8936  1.5441 -0.5933
10101TIP3    H251795   6.394   2.165  12.916  0.4726  1.2519 -0.0686
10102TIP3   OH251796   4.538   0.262   0.164  0.2348  0.4622 -0.2657
10102TIP3    H151797   4.610   0.218   0.210 -0.4120 -0.8477 -0.4911
10102TIP3    H251798   4.534   0.349   0.203  0.9557  0.0207  0.8015
10103TIP3   OH251799   0.096   6.427   4.496 -0.0247 -0.3403  0.3726
10103TIP3    H151800   0.051   6.505   4.529 -0.1385 -0.5645  0.7407
10103TIP3    H251801   0.121   6.451   4.407  0.5869  0.3841  0.7321
10104TIP3   OH251802   5.087   2.486   2.210 -0.7684  0.2967 -0.3605
10104TIP3    H151803   5.067   2.404   2.165  1.1005 -0.0341 -0.6360
10104TIP3    H251804   5.151   2.529   2.154  0.9638  0.2647  1.5210
10105TIP3   OH251805   2.361   1.020   3.411  0.4110  0.3846 -0.3437
10105TIP3    H151806   2.429   1.083   3.386 -1.9516  3.5156  0.8045
10105TIP3    H251807   2.304   1.014   3.335  1.4377 -1.5507 -0.9838
10106TIP3   OH251808   2.705   4.193  16.840  0.8771 -0.0176 -0.4340
10106TIP3    H151809   2.696   4.278  16.883  0.5565 -0.2271 -0.0907
10106TIP3    H251810   2.679   4.209  16.749  2.7117  0.7024 -0.8495
10107TIP3   OH251811   1.588   4.879  15.174 -0.3655 -0.8572 -0.1301
10107TIP3    H151812   1.584   4.919  15.087 -1.5090 -0.6042  0.0345
10107TIP3    H251813   1.677   4.897  15.204  0.1115 -1.1357 -1.3379
10108TIP3   OH251814   3.270   5.213   0.253 -0.2079 -0.0344 -0.2688
10108TIP3    H151815   3.233   5.176   0.173 -1.3361  0.3194  0.0786
10108TIP3    H251816   3.291   5.137   0.307  1.5091 -0.3180 -1.3023
10109TIP3   OH251817   5.787   2.884  10.700 -0.4500  0.1573  0.1290
10109TIP3    H151818   5.711   2.940  10.713  1.1426  2.2144  1.0547
10109TIP3    H251819   5.827   2.917  10.620 -0.1187 -0.3978  0.0646
10110TIP3   OH251820   1.343   4.755  11.155  0.2340  0.2270 -0.5779
10110TIP3    H151821   1.418   4.696  11.160  0.6447  0.8546  1.0450
10110TIP3    H251822   1.268   4.699  11.173  0.2631 -0.4722 -2.5539
10111TIP3   OH251823   4.684   0.042   3.191 -0.0722 -0.3273 -0.1338
10111TIP3    H151824   4.720   0.125   3.223  0.6767 -0.3342 -0.9523
10111TIP3    H251825   4.651  -0.002   3.270 -0.2087  0.6177  0.3344
10112TIP3   OH251826   3.990   3.510   3.861 -0.4004  0.6466  0.3216
10112TIP3    H151827   3.935   3.505   3.940 -2.2414 -2.7249 -1.0464
10112TIP3    H251828   3.928   3.519   3.789  1.0537  0.3094 -0.9962
10113TIP3   OH251829   3.807   3.240   1.786 -0.1812 -0.4777 -0.3071
10113TIP3    H151830   3.898   3.211   1.785 -0.3347 -0.9667 -2.9546
10113TIP3    H251831   3.757   3.160   1.805 -0.0599 -0.1805  1.2926
10114TIP3   OH251832   4.222   5.464   3.503 -0.1572  0.9845 -0.0206
10114TIP3    H151833   4.278   5.519   3.558  0.8938 -0.7214  0.6387
10114TIP3    H251834   4.278   5.391   3.478 -1.8420 -0.2919 -0.0965
10115TIP3   OH251835   6.120   3.527   3.650  0.5101 -0.4499 -0.3655
10115TIP3    H151836   6.049   3.476   3.611  0.1339  0.0449 -0.3326
10115TIP3    H251837   6.162   3.467   3.712 -0.6419 -0.3771  0.5053
10116TIP3   OH251838   2.620   0.455  14.370  0.4273  0.0336 -0.4111
10116TIP3    H151839   2.683   0.453  14.298  0.0716 -0.3284 -0.7154
10116TIP3    H251840   2.570   0.373  14.361 -1.3404  1.1702 -1.2909
10117TIP3   OH251841   1.533   2.574   3.391 -0.2690 -0.0347  0.1040
10117TIP3    H151842   1.604   2.517   3.421 -1.4823 -1.3610  0.4881
10117TIP3    H251843   1.556   2.661   3.426  1.3899 -0.3502 -0.1599
10118TIP3   OH251844   3.868   5.631  14.133  0.4069 -0.4693 -0.5185
10118TIP3    H151845   3.812   5.704  14.106  1.3275  1.0336  1.5226
10118TIP3    H251846   3.835   5.606  14.219  0.4163 -2.1713 -0.9919
10119TIP3   OH251847   2.276   2.763   6.078  0.3821  0.0609 -0.1343
10119TIP3    H151848   2.201   2.793   6.026 -0.3997 -0.7421  0.5030
10119TIP3    H251849   2.340   2.733   6.014 -0.5181 -0.7882 -0.6574
10120TIP3   OH251850   4.335   3.848  12.757  0.2712  0.0641 -0.0390
10120TIP3    H151851   4.386   3.774  12.723 -2.3925 -1.5975 -0.5305
10120TIP3    H251852   4.323   3.905  12.681  0.0263 -0.3305 -0.2960
10121TIP3   OH251853   2.528   4.711   3.322 -0.3197  0.1018 -0.2516
10121TIP3    H151854   2.433   4.701   3.315 -0.6055  2.6399 -0.6192
10121TIP3    H251855   2.559   4.701   3.232 -0.7299  3.3518 -0.8045
10122TIP3   OH251856   1.794   6.727   4.228 -1.1389 -0.2260  0.2214
10122TIP3    H151857   1.787   6.756   4.319 -2.6728  1.4376 -0.4021
10122TIP3    H251858   1.801   6.632   4.234 -2.6643 -0.2526  2.0354
10123TIP3   OH251859   5.704   6.802   1.682 -0.6605  0.1042  0.5331
10123TIP3    H151860   5.747   6.743   1.620 -0.5684 -0.2481  0.9290
10123TIP3    H251861   5.757   6.882   1.681 -0.3169 -0.1221  0.6027
10124TIP3   OH251862   0.788   6.420   3.690  0.4418 -0.8394 -0.4569
10124TIP3    H151863   0.729   6.391   3.621 -0.1137 -1.6651  0.3442
10124TIP3    H251864   0.734   6.420   3.769  1.2294 -0.5330  0.0901
10125TIP3   OH251865   1.796   1.108  12.256  0.1439  0.5885  0.3945
10125TIP3    H151866   1.749   1.189  12.235 -1.1088 -0.2507 -0.1205
10125TIP3    H251867   1.873   1.109  12.199  0.6393  1.8617  1.0685
10126TIP3   OH251868   6.771   6.353  11.324  0.4618 -0.0729 -0.0123
10126TIP3    H151869   6.852   6.399  11.343  0.4763 -0.2862  0.4633
10126TIP3    H251870   6.719   6.416  11.274  0.5082  0.4358  0.5681
10127TIP3   OH251871   2.757   4.011   3.770  0.4910  0.0828  0.0281
10127TIP3    H151872   2.788   3.968   3.849 -0.6386 -0.0552  0.4058
10127TIP3    H251873   2.811   4.089   3.761  0.5426  0.1588  1.0010
10128TIP3   OH251874   5.297   5.503  16.713  0.1024  0.0935 -0.4333
10128TIP3    H151875   5.361   5.454  16.660 -2.3817 -1.0836 -2.4583
10128TIP3    H251876   5.343   5.522  16.795  2.6209 -1.7899 -1.3440
10129TIP3   OH251877   4.064   6.551  12.334 -0.8131  0.0254 -0.3226
10129TIP3    H151878   4.072   6.610  12.259 -1.2246 -0.1278 -0.4905
10129TIP3    H251879   4.140   6.494  12.329 -1.5048 -0.8182 -1.3534
10130TIP3   OH251880   3.424   3.839   0.064 -0.2244 -0.2277 -0.3073
10130TIP3    H151881   3.436   3.914   0.005 -1.8432  0.3545  0.0860
10130TIP3    H251882   3.512   3.821   0.096  0.3425  0.8861 -1.1699
10131TIP3   OH251883   1.357   4.887  14.760 -0.2551  0.1034  0.3918
10131TIP3    H151884   1.381   4.845  14.677  2.7718 -1.4889  1.9798
10131TIP3    H251885   1.262   4.880  14.763 -0.5306  0.9571 -3.3194
10132TIP3   OH251886   2.802   0.455  11.713 -0.8036  0.0034 -0.0918
10132TIP3    H151887   2.847   0.539  11.724  1.1049 -1.2010  1.7666
10132TIP3    H251888   2.720   0.465  11.761 -0.9612  1.0698 -0.5705
10133TIP3   OH251889   6.450   6.090  10.817 -0.5024  1.2046 -0.4333
10133TIP3    H151890   6.371   6.054  10.777 -0.8336  2.5924 -1.0899
10133TIP3    H251891   6.515   6.090  10.746 -0.1514  0.7815 -0.1094
10134TIP3   OH251892   5.994   5.884  14.332 -0.3524  0.1688  0.1631
10134TIP3    H151893   5.980   5.790  14.343  0.4801 -0.0476 -0.5631
10134TIP3    H251894   5.935   5.925  14.396 -0.3078 -0.8613  0.8795
10135TIP3   OH251895   1.847   3.281  16.151  0.4110  0.2981  0.5918
10135TIP3    H151896   1.910   3.299  16.081  0.0183 -0.1841  0.1153
10135TIP3    H251897   1.897   3.231  16.215  0.4519 -0.3090  0.0948
10136TIP3   OH251898   2.723   2.514  10.762  0.1072  0.3013  0.1512
10136TIP3    H151899   2.661   2.464  10.816  0.1270 -0.4376 -0.4959
10136TIP3    H251900   2.669   2.581  10.720 -0.8146 -1.9985 -2.5154
10137TIP3   OH251901   4.707   3.050  13.014 -0.2363  0.7721 -0.4092
10137TIP3    H151902   4.646   2.997  13.066  1.2749 -0.2831  0.3208
10137TIP3    H251903   4.767   2.987  12.975  1.1742  1.8726 -0.0932
10138TIP3   OH251904   1.857   3.746  16.897  0.1437 -0.3625  0.2546
10138TIP3    H151905   1.939   3.696  16.901  0.0346 -0.4467  1.6986
10138TIP3    H251906   1.792   3.682  16.868  0.7061 -0.1193 -1.6318
10139TIP3   OH251907   2.678   6.002   2.924  0.3511  0.0146 -0.0061
10139TIP3    H151908   2.701   6.094   2.937  3.4749 -0.7849  0.5471
10139TIP3    H251909   2.745   5.968   2.865  0.3045 -2.3544  1.2300
10140TIP3   OH251910   2.693   2.726   1.096 -0.4519  0.1716  0.1255
10140TIP3    H151911   2.610   2.769   1.075 -0.3124 -0.1552 -1.1748
10140TIP3    H251912   2.671   2.633   1.105 -0.1474  0.0057 -0.7710
10141TIP3   OH251913   1.547   5.412   2.877 -0.5542 -0.2348  0.0072
10141TIP3    H151914   1.587   5.338   2.831  0.7412  0.6442 -0.3123
10141TIP3    H251915   1.496   5.372   2.948  0.7800 -1.3901  0.3355
10142TIP3   OH251916   2.156   4.619  13.646 -0.0930 -0.2137 -0.2757
10142TIP3    H151917   2.069   4.594  13.615 -0.8474 -0.1712  1.7374
10142TIP3    H251918   2.188   4.542  13.692  2.0062 -1.1169 -3.0922
10143TIP3   OH251919   0.435   5.659  15.923  0.6542  0.9556 -0.0395
10143TIP3    H151920   0.353   5.610  15.924 -0.2125  2.3352 -1.5756
10143TIP3    H251921   0.485   5.622  15.996 -0.5291 -1.2314 -0.2851
10144TIP3   OH251922   2.929   2.841   4.778 -0.9415 -0.2122 -0.1313
10144TIP3    H151923   2.929   2.925   4.732 -2.3500 -0.4021 -0.4874
10144TIP3    H251924   3.010   2.842   4.830 -0.5437  1.0104 -0.7575
10145TIP3   OH251925   5.798   1.705  14.295  0.1123 -0.4520  0.3399
10145TIP3    H151926   5.879   1.756  14.290 -2.4328  3.7491 -1.3546
10145TIP3    H251927   5.754   1.739  14.373 -0.3461 -2.1693  0.8419
10146TIP3   OH251928   6.626   1.798   1.838 -0.6628  0.0153 -0.0350
10146TIP3    H151929   6.711   1.756   1.854 -0.1531  0.4594 -1.4680
10146TIP3    H251930   6.633   1.833   1.749 -1.7433  1.5298  0.4469
10147TIP3   OH251931   1.040   1.222  14.671  0.2907 -0.8120 -0.2783
10147TIP3    H151932   1.080   1.237  14.757 -0.6383 -1.6147  0.3051
10147TIP3    H251933   1.106   1.174  14.621  0.7038 -0.6341  0.0909
10148TIP3   OH251934   2.760   6.278  14.412 -0.1001 -0.1453 -0.2558
10148TIP3    H151935   2.677   6.236  14.393  0.2809 -0.9669 -0.1386
10148TIP3    H251936   2.758   6.296  14.506 -0.0751 -0.3298 -0.2197
10149TIP3   OH251937   6.124   3.242   5.053  0.6294  0.2103  0.5591
10149TIP3    H151938   6.133   3.246   4.958 -0.4424  0.5554  0.4590
10149TIP3    H251939   6.213   3.237   5.086  1.0172  0.3899 -0.4571
10150TIP3   OH251940   0.288   6.289  14.812  0.1323  0.0954  0.4000
10150TIP3    H151941   0.262   6.261  14.724  0.0533  0.8577  0.1794
10150TIP3    H251942   0.238   6.232  14.871 -0.1604 -0.1087 -0.0454
10151TIP3   OH251943   4.804   1.842  11.015 -0.1282  0.0122  0.2279
10151TIP3    H151944   4.792   1.814  10.925 -1.2115  0.7219  0.1490
10151TIP3    H251945   4.890   1.886  11.015 -0.1623  0.0798 -0.4698
10152TIP3   OH251946   4.925   2.154  12.018  0.0331 -0.7220 -0.3434
10152TIP3    H151947   4.830   2.147  12.007 -0.4084  0.3593  2.4609
10152TIP3    H251948   4.946   2.090  12.085  0.8286  1.1886  1.2619
10153TIP3   OH251949   3.369   1.666   2.484  0.3446  0.5737  0.2134
10153TIP3    H151950   3.315   1.728   2.435 -0.5759  1.1051  1.8519
10153TIP3    H251951   3.374   1.703   2.572  0.4887 -1.2457  0.9908
10154TIP3   OH251952   0.841   5.387   5.923  0.1613 -0.9530 -0.1796
10154TIP3    H151953   0.919   5.402   5.976  0.2361 -2.2836  0.1089
10154TIP3    H251954   0.785   5.463   5.940  0.5384 -0.9651  1.1577
10155TIP3   OH251955   2.668   3.311   0.871  0.2354  0.6046 -0.0315
10155TIP3    H151956   2.741   3.372   0.871  0.1452  0.7170  1.0133
10155TIP3    H251957   2.610   3.343   0.801  0.4447  1.4010  0.1521
10156TIP3   OH251958   4.061   4.704  12.125 -0.2002  0.2032  0.0983
10156TIP3    H151959   4.007   4.659  12.060  0.1695 -0.0272 -0.0517
10156TIP3    H251960   4.104   4.774  12.076  0.7195 -0.4905 -0.0796
10157TIP3   OH251961   6.436   2.387  13.907 -0.1054 -0.0608 -1.1698
10157TIP3    H151962   6.510   2.394  13.967 -0.5465  1.6641 -0.7823
10157TIP3    H251963   6.450   2.457  13.843 -1.7359  0.7596 -0.6769
10158TIP3   OH251964   0.585   5.386   3.900  0.4839 -0.0348 -0.4608
10158TIP3    H151965   0.561   5.477   3.915  1.8982  0.6387 -2.0595
10158TIP3    H251966   0.545   5.338   3.972 -2.0200  1.5654 -0.7500
10159TIP3   OH251967   4.402   6.530  17.236  0.0902 -0.1106  0.7250
10159TIP3    H151968   4.332   6.548  17.173  0.3076  0.3084  0.5988
10159TIP3    H251969   4.418   6.436  17.228  1.4048  0.2523 -1.1848
10160TIP3   OH251970   1.816   0.847  15.509 -0.0178 -0.6627  0.3196
10160TIP3    H151971   1.867   0.780  15.555  1.9590  0.9462  0.5488
10160TIP3    H251972   1.742   0.864  15.567 -0.4649 -2.5169  0.3311
10161TIP3   OH251973   0.627   6.177   2.128  0.0967  0.1966 -0.4031
10161TIP3    H151974   0.618   6.216   2.041  1.5945 -1.8023 -1.4819
10161TIP3    H251975   0.720   6.157   2.136 -0.3819 -1.7485  0.7253
10162TIP3   OH251976   6.765   2.035  12.415  0.4452 -0.6431 -0.0460
10162TIP3    H151977   6.697   2.056  12.352 -1.0426 -0.2945  1.6523
10162TIP3    H251978   6.839   2.005  12.361 -0.4791  0.4584 -1.9808
10163TIP3   OH251979   2.164   4.718  15.084  0.2404  0.3891 -0.0046
10163TIP3    H151980   2.097   4.771  15.041 -1.5984 -1.5376  0.3885
10163TIP3    H251981   2.231   4.705  15.017 -0.4593  1.1298 -0.8622
10164TIP3   OH251982   5.320   0.121   0.536  0.5560 -0.0570 -0.2854
10164TIP3    H151983   5.287   0.189   0.594  0.1746 -0.0199 -0.5471
10164TIP3    H251984   5.244   0.066   0.517  0.8719 -0.5804 -0.0391
10165TIP3   OH251985   2.363   3.070  16.940 -0.2401 -0.1541 -0.5593
10165TIP3    H151986   2.278   3.031  16.961  0.1431 -0.7597 -0.1321
10165TIP3    H251987   2.341   3.149  16.890 -1.0836  0.2021  0.3701
10166TIP3   OH251988   0.592   1.153  11.013 -0.3009 -0.5241  0.2756
10166TIP3    H151989   0.673   1.107  10.988 -1.4517 -2.4903  0.0946
10166TIP3    H251990   0.574   1.210  10.938  0.0435 -1.2920 -0.4128
10167TIP3   OH251991   0.713   0.921  14.704  0.0185  0.4946 -0.1321
10167TIP3    H151992   0.723   1.016  14.710  0.1560  0.5066 -0.5569
10167TIP3    H251993   0.797   0.886  14.736  0.2122  0.5316 -0.5909
10168TIP3   OH251994   2.074   4.930   6.637 -0.0820  0.1591  0.1025
10168TIP3    H151995   2.138   4.935   6.567 -1.0197 -0.8068 -0.8523
10168TIP3    H251996   2.124   4.947   6.717  1.1215  0.6010 -0.7335
10169TIP3   OH251997   4.277   0.119   5.631 -0.5919  0.1475  0.0622
10169TIP3    H151998   4.183   0.108   5.645 -0.1607 -1.2256  2.2016
10169TIP3    H251999   4.293   0.083   5.543 -1.8770 -0.7885  0.1940
10170TIP3   OH252000   4.531   2.794   5.198 -0.2734 -0.6533  0.2813
10170TIP3    H152001   4.626   2.791   5.193 -0.2862 -0.0263 -0.5987
10170TIP3    H252002   4.512   2.822   5.287  0.3683 -0.7260  0.4398
10171TIP3   OH252003   1.785   1.525   6.563 -0.7210  0.0211 -0.1087
10171TIP3    H152004   1.881   1.525   6.558 -0.6322 -0.3938  1.4485
10171TIP3    H252005   1.763   1.605   6.608 -0.9039 -1.5093  2.6141
10172TIP3   OH252006   2.848   6.180  15.248  0.0755  0.1549  0.6048
10172TIP3    H152007   2.784   6.249  15.227  0.2574  0.8896  2.4316
10172TIP3    H252008   2.933   6.221  15.233  0.1656 -0.1231  0.3441
10173TIP3   OH252009   1.655   4.671  11.037  0.1340  0.0271  0.4285
10173TIP3    H152010   1.604   4.605  11.084  0.7104 -1.4140 -0.9124
10173TIP3    H252011   1.746   4.647  11.052  0.3689  0.9139  0.4735
10174TIP3   OH252012   6.099   4.788  15.334  0.2972  0.4754  0.1957
10174TIP3    H152013   6.056   4.721  15.386  0.6390  0.8349  0.9475
10174TIP3    H252014   6.028   4.829  15.284  0.3802 -2.0533 -2.1433
10175TIP3   OH252015   3.964   3.764   3.587  0.4666  0.1824 -0.7497
10175TIP3    H152016   3.947   3.688   3.531  1.0297  2.1450 -3.7498
10175TIP3    H252017   4.058   3.760   3.605  0.6397  0.5155 -1.5264
10176TIP3   OH252018   0.562   3.487   2.542  0.2969  0.4702 -0.0202
10176TIP3    H152019   0.510   3.414   2.576 -0.0851  0.4301 -0.6713
10176TIP3    H252020   0.552   3.556   2.607 -0.0092  0.2222  0.1980
10177TIP3   OH252021   6.164   1.977   6.062  0.0355 -0.2443  0.0165
10177TIP3    H152022   6.233   1.915   6.087  0.1135 -0.5505 -0.9260
10177TIP3    H252023   6.117   1.995   6.144  1.7412  0.6172  0.8392
10178TIP3   OH252024   1.570   5.082   1.356 -0.4187 -0.0725 -0.3618
10178TIP3    H152025   1.627   5.122   1.290  0.4648 -0.0114  0.4278
10178TIP3    H252026   1.557   4.992   1.325  1.3579 -0.5529  0.2189
10179TIP3   OH252027   3.715   3.487  13.656 -0.3357  0.7573 -0.1401
10179TIP3    H152028   3.644   3.434  13.690  0.2003 -0.6047 -1.1053
10179TIP3    H252029   3.794   3.453  13.700 -0.0823  1.2163 -0.2365
10180TIP3   OH252030   3.314   2.576  11.301  0.4097 -0.3321  0.0729
10180TIP3    H152031   3.354   2.537  11.223  1.2424  1.0486 -0.1962
10180TIP3    H252032   3.221   2.553  11.294  0.6171 -0.9298 -0.8815
10181TIP3   OH252033   1.423   3.978   2.584 -0.7881 -0.1322 -1.4133
10181TIP3    H152034   1.355   3.911   2.586 -0.6038 -0.2938  0.8722
10181TIP3    H252035   1.383   4.054   2.625  0.2110 -0.0376 -0.6007
10182TIP3   OH252036   2.305   1.262   5.944 -0.1046 -0.5585 -0.2006
10182TIP3    H152037   2.347   1.242   6.028 -0.9631 -0.7725  0.1842
10182TIP3    H252038   2.315   1.357   5.934 -0.1605 -0.5049  0.2354
10183TIP3   OH252039   2.041   6.256   3.146 -0.1461  0.5751 -0.0353
10183TIP3    H152040   2.085   6.198   3.084 -0.1957 -0.7932  1.1907
10183TIP3    H252041   1.961   6.283   3.101  0.3030  0.3813 -0.9537
10184TIP3   OH252042   3.394   1.532   6.043  0.0102 -0.2286 -0.1412
10184TIP3    H152043   3.364   1.585   6.118 -0.6227 -1.3592  0.4157
10184TIP3    H252044   3.377   1.442   6.069 -0.4801 -0.6240 -1.7780
10185TIP3   OH252045   1.799   4.713  17.186 -0.0442 -0.1707  0.0410
10185TIP3    H152046   1.725   4.742  17.240  0.1690  0.5907 -0.0808
10185TIP3    H252047   1.810   4.782  17.121  2.0819  0.6898  1.3062
10186TIP3   OH252048   0.666   3.760   1.461  0.1799 -0.0387 -0.5188
10186TIP3    H152049   0.609   3.710   1.520 -1.0028 -1.1003 -2.5347
10186TIP3    H252050   0.638   3.735   1.373  0.6438  2.9552 -1.5789
10187TIP3   OH252051   5.046   4.909  13.262  0.1208 -0.4711  0.5083
10187TIP3    H152052   4.952   4.898  13.249 -0.1159 -0.2344  1.9757
10187TIP3    H252053   5.068   4.990  13.215 -0.5623 -0.0697  0.8786
10188TIP3   OH252054   4.890   4.697   0.880  0.5868  0.0198  0.3231
10188TIP3    H152055   4.819   4.718   0.940  0.7670 -1.9123  1.2625
10188TIP3    H252056   4.927   4.616   0.915  3.2305  0.9670 -0.1774
10189TIP3   OH252057   0.995   3.179  14.459 -0.1939  0.3883  0.4896
10189TIP3    H152058   1.012   3.168  14.553 -0.2186  1.4985  0.6321
10189TIP3    H252059   0.899   3.173  14.451 -0.2089  0.5061  0.5715
10190TIP3   OH252060   6.366   6.530   1.527  0.4310 -0.0880  0.2474
10190TIP3    H152061   6.380   6.436   1.527 -0.4869 -0.2292 -0.5833
10190TIP3    H252062   6.318   6.547   1.608 -0.0014 -0.4263  0.0627
10191TIP3   OH252063   5.227   0.458   3.630  0.2663 -0.3888  0.2872
10191TIP3    H152064   5.293   0.389   3.635  1.0730  0.2197 -1.3989
10191TIP3    H252065   5.276   0.535   3.601 -0.9944  0.3641  0.1441
10192TIP3   OH252066   0.832   0.741  12.359  0.4531  0.1378 -0.1484
10192TIP3    H152067   0.741   0.757  12.386 -0.1662 -0.4010 -1.8343
10192TIP3    H252068   0.848   0.804  12.290  0.7701 -0.9593 -1.0862
10193TIP3   OH252069   5.085   5.775  10.729  0.2640  0.1186  0.4059
10193TIP3    H152070   5.117   5.843  10.671  0.4626 -0.4453 -0.1543
10193TIP3    H252071   5.015   5.733  10.681  1.2756 -1.1863  0.0395
10194TIP3   OH252072   3.677   6.114   0.484  0.1343 -0.2486 -0.5537
10194TIP3    H152073   3.762   6.123   0.527  0.3809 -1.4759 -0.7834
10194TIP3    H252074   3.695   6.061   0.406 -0.8996 -0.8046 -0.4171
10195TIP3   OH252075   1.778   1.847   1.574 -0.2991  0.1863 -0.1361
10195TIP3    H152076   1.747   1.933   1.543  2.6143  0.1880 -3.5028
10195TIP3    H252077   1.730   1.784   1.520 -1.4886 -0.2700  1.4352
10196TIP3   OH252078   3.265   0.733   0.935 -0.1848 -0.0147 -0.2294
10196TIP3    H152079   3.249   0.642   0.911  2.1895 -1.1838  2.3849
10196TIP3    H252080   3.190   0.756   0.991 -0.0767 -0.8575  0.2793
10197TIP3   OH252081   2.669   2.750  13.224 -0.2848 -0.2633 -0.2969
10197TIP3    H152082   2.757   2.760  13.186 -0.4534  0.2333 -0.5630
10197TIP3    H252083   2.668   2.660  13.258 -0.3960 -0.9987 -2.1663
10198TIP3   OH252084   3.524   1.535  14.334  0.7758 -0.8060 -0.2469
10198TIP3    H152085   3.496   1.624  14.316 -0.7702 -1.0596  0.7837
10198TIP3    H252086   3.589   1.516  14.266  0.9715  1.0137 -0.5983
10199TIP3   OH252087   4.523   5.266  16.269  0.4362  1.1621 -0.3693
10199TIP3    H152088   4.601   5.287  16.218 -0.3347  0.0952 -2.0318
10199TIP3    H252089   4.468   5.215  16.209 -0.4352 -0.2427  1.5812
10200TIP3   OH252090   4.556   1.501   5.494 -0.0592 -0.0094 -0.2054
10200TIP3    H152091   4.506   1.525   5.416  2.1477  1.0222 -1.3293
10200TIP3    H252092   4.609   1.427   5.467 -0.3786 -0.6169  0.7761
10201TIP3   OH252093   3.028   0.774  16.241  0.1832 -0.4952  0.9667
10201TIP3    H152094   3.008   0.791  16.333 -0.5187 -1.6597  1.0482
10201TIP3    H252095   3.059   0.857  16.207 -1.8045  0.5560  1.6546
10202TIP3   OH252096   6.041   5.989   3.768 -0.0075  0.3808 -0.0255
10202TIP3    H152097   6.000   6.012   3.851 -0.4852  0.1968 -0.2129
10202TIP3    H252098   5.988   5.916   3.734 -0.0772  0.7485 -0.7048
10203TIP3   OH252099   0.953   2.299  13.935  0.3284 -0.2590 -0.4934
10203TIP3    H152100   0.970   2.389  13.910  0.6713  0.3466  1.8165
10203TIP3    H252101   1.012   2.283  14.008 -1.2555 -1.6748  0.5065
10204TIP3   OH252102   1.282   6.592   2.200  0.6582  0.0830  0.1101
10204TIP3    H152103   1.297   6.522   2.263 -1.1468 -0.4338  0.0054
10204TIP3    H252104   1.354   6.585   2.137  1.4487 -0.5552  1.0917
10205TIP3   OH252105   0.825   2.729  12.738 -0.2132  0.2863 -0.1814
10205TIP3    H152106   0.837   2.822  12.719 -0.3771  0.1086 -1.1891
10205TIP3    H252107   0.750   2.726  12.797 -0.2984  0.7851 -0.2622
10206TIP3   OH252108   1.681   2.225  12.990  0.4527 -0.2142 -0.2336
10206TIP3    H152109   1.767   2.183  12.987  1.0619  0.7263  2.5229
10206TIP3    H252110   1.626   2.164  13.040  0.7922  1.2379  1.9926
10207TIP3   OH252111   5.335   5.729  11.478  0.5308  0.1092 -0.1795
10207TIP3    H152112   5.389   5.704  11.553  1.7721  1.3262 -0.6381
10207TIP3    H252113   5.330   5.825  11.483  0.3976  0.1797 -1.4823
10208TIP3   OH252114   2.314   5.247   0.712 -0.0375  0.0454 -0.3237
10208TIP3    H152115   2.393   5.272   0.759  0.2392 -0.0688 -0.7196
10208TIP3    H252116   2.330   5.275   0.622 -0.5041  0.1452 -0.3813
10209TIP3   OH252117   6.797   2.706   1.855 -0.4022  0.0922 -0.1697
10209TIP3    H152118   6.835   2.785   1.894 -0.9266 -0.4992  1.5963
10209TIP3    H252119   6.731   2.740   1.794  0.1859  1.0321 -0.3034
10210TIP3   OH252120   3.747   6.630  17.213 -0.0431 -0.4049 -0.1418
10210TIP3    H152121   3.766   6.563  17.147 -1.3068 -0.9113 -0.0034
10210TIP3    H252122   3.816   6.620  17.278 -0.7188 -2.1734  0.3263
10211TIP3   OH252123   0.614   5.077   2.179  0.0635  0.0024  0.3294
10211TIP3    H152124   0.579   5.002   2.130  1.0013  0.1753 -0.6088
10211TIP3    H252125   0.704   5.053   2.199  0.0276  0.4203  1.0168
10212TIP3   OH252126   1.228   0.386   2.043  0.3307 -0.5112  0.1608
10212TIP3    H152127   1.203   0.462   2.096 -0.1570 -1.8523  1.9151
10212TIP3    H252128   1.231   0.419   1.953 -2.0203  1.0653  0.6166
10213TIP3   OH252129   1.090   6.021   1.307 -0.2513  0.0542 -0.4389
10213TIP3    H152130   1.049   6.001   1.391 -2.3812 -0.6784 -1.5913
10213TIP3    H252131   1.146   5.945   1.289 -1.2334 -0.6635 -0.5248
10214TIP3   OH252132   6.145   3.364   4.385 -0.2151 -0.2086  0.2274
10214TIP3    H152133   6.213   3.382   4.450  0.3543  1.4901 -0.7896
10214TIP3    H252134   6.173   3.284   4.342 -0.7545 -1.5217  2.2612
10215TIP3   OH252135   6.049   3.294  16.526  0.3742 -0.4110  0.2632
10215TIP3    H152136   6.037   3.220  16.586 -0.7938 -0.9630 -0.6269
10215TIP3    H252137   5.961   3.332  16.518  0.7707  0.4209 -0.1286
10216TIP3   OH252138   6.551   6.085   2.450 -0.3351 -0.3149  0.7984
10216TIP3    H152139   6.585   5.996   2.464 -0.0601 -0.2571  0.5234
10216TIP3    H252140   6.629   6.137   2.431 -0.5893 -0.1999  0.0478
10217TIP3   OH252141   1.397   2.359  16.926  0.5132 -0.6370 -0.1499
10217TIP3    H152142   1.465   2.298  16.952 -0.2731 -2.5983 -2.4918
10217TIP3    H252143   1.327   2.346  16.991  0.2452 -2.4531 -0.7734
10218TIP3   OH252144   1.758   0.337   1.007  0.2434 -0.1281  0.1528
10218TIP3    H152145   1.685   0.275   1.004  0.9041 -0.9343  0.5814
10218TIP3    H252146   1.790   0.340   0.917 -0.1570  0.0394  0.0136
10219TIP3   OH252147   4.735   6.571  11.399  0.0475 -0.0663 -0.2207
10219TIP3    H152148   4.821   6.553  11.436 -0.1071 -0.7868 -0.1981
10219TIP3    H252149   4.752   6.586  11.306  0.3174  0.8072 -0.0372
10220TIP3   OH252150   2.214   5.098   3.539  0.2908 -0.7786 -0.0341
10220TIP3    H152151   2.134   5.065   3.497  0.5436 -0.5827 -0.6709
10220TIP3    H252152   2.285   5.054   3.494  0.5322 -1.2975  0.8459
10221TIP3   OH252153   5.187   2.383   0.089  0.7590 -0.3133  0.0354
10221TIP3    H152154   5.220   2.327   0.159 -0.6407  0.0560  1.0143
10221TIP3    H252155   5.095   2.398   0.111  0.4585  0.3174 -1.5528
10222TIP3   OH252156   6.757   3.262   0.616 -0.2467 -0.1527  0.1290
10222TIP3    H152157   6.706   3.211   0.679 -0.7359 -0.8305 -0.8149
10222TIP3    H252158   6.706   3.341   0.602  0.6142  0.7230  1.7569
10223TIP3   OH252159   1.368   6.088  12.946 -0.7810 -0.6251 -0.4540
10223TIP3    H152160   1.342   6.146  13.018 -2.9281 -0.5342 -1.2629
10223TIP3    H252161   1.412   6.146  12.883  0.9713 -0.6800  0.6883
10224TIP3   OH252162   0.734   4.072   1.561 -0.4328 -0.2137 -0.0188
10224TIP3    H152163   0.707   4.065   1.470 -0.8585 -0.7089  0.1410
10224TIP3    H252164   0.653   4.061   1.611 -0.0420 -0.9970  0.4534
10225TIP3   OH252165   6.554   0.238   0.533 -0.0414 -0.0495  0.3886
10225TIP3    H152166   6.628   0.282   0.574  0.9737 -2.3384  1.0944
10225TIP3    H252167   6.592   0.159   0.494 -1.9542 -0.7487 -0.1057
10226TIP3   OH252168   5.018   2.087  13.629  1.0308  0.5524  0.2354
10226TIP3    H152169   5.050   2.170  13.594 -0.0659 -0.1578 -2.5572
10226TIP3    H252170   4.925   2.087  13.609  1.0427 -1.3765  0.1250
10227TIP3   OH252171   2.264   5.870   3.863  0.3231  0.0513  0.5830
10227TIP3    H152172   2.307   5.887   3.947  0.6425 -0.6058  0.5574
10227TIP3    H252173   2.312   5.796   3.826  0.0645  0.2197 -0.0962
10228TIP3   OH252174   0.830   1.125  10.668 -0.8061 -0.4617  0.5354
10228TIP3    H152175   0.778   1.108  10.589 -1.0496 -0.6936  0.7440
10228TIP3    H252176   0.870   1.041  10.688 -1.7103 -0.7083  1.3496
10229TIP3   OH252177   3.498   6.755  15.974 -0.2265 -0.0868  0.2367
10229TIP3    H152178   3.441   6.827  15.946 -1.0667 -0.0494  1.9313
10229TIP3    H252179   3.586   6.791  15.974 -0.4477  0.4520 -0.4981
10230TIP3   OH252180   0.321   0.559   4.725 -0.2851  0.1159 -0.1263
10230TIP3    H152181   0.380   0.500   4.772  0.0199 -0.0276 -0.6924
10230TIP3    H252182   0.323   0.529   4.635 -0.3623  0.8031 -0.3605
10231TIP3   OH252183   1.834   5.339  16.038 -0.0157 -0.0350 -0.3806
10231TIP3    H152184   1.750   5.379  16.059  0.0147 -0.0334 -0.2619
10231TIP3    H252185   1.899   5.394  16.082  0.1458  0.7859 -1.6350
10232TIP3   OH252186   2.260   2.091   3.722  0.1193 -0.0137  0.4490
10232TIP3    H152187   2.307   2.089   3.639  0.0895  0.5370  0.4172
10232TIP3    H252188   2.221   2.178   3.725  1.5068  0.5815  1.7973
10233TIP3   OH252189   3.408   2.221   4.394  0.4772  0.6993  0.0027
10233TIP3    H152190   3.376   2.311   4.403  1.5490  1.1304 -0.4177
10233TIP3    H252191   3.414   2.208   4.300 -1.1314 -0.3556  0.0210
10234TIP3   OH252192   3.487   3.217   1.799 -0.1004 -0.3695 -0.1007
10234TIP3    H152193   3.482   3.276   1.875  1.3432 -0.9885  0.4820
10234TIP3    H252194   3.505   3.275   1.725 -0.3721  0.1122  0.2083
10235TIP3   OH252195   2.618   0.253   5.582 -0.4103  0.3442  0.5403
10235TIP3    H152196   2.603   0.246   5.488 -0.6783 -0.4247  0.6438
10235TIP3    H252197   2.702   0.209   5.597  0.6274  2.1881  0.3779
10236TIP3   OH252198   2.514   1.307  12.419  0.1243  0.6078 -0.2198
10236TIP3    H152199   2.597   1.301  12.371  0.4837  2.3329  0.1400
10236TIP3    H252200   2.512   1.397  12.451 -0.5479 -0.2442  2.2453
10237TIP3   OH252201   1.284   0.685   1.964  0.2169  0.2767  0.5036
10237TIP3    H152202   1.304   0.679   2.057  0.3151  0.8328  0.5233
10237TIP3    H252203   1.302   0.777   1.942  0.7401  0.0083 -0.1915
10238TIP3   OH252204   5.722   3.595   6.470 -0.5261 -0.1891 -0.4137
10238TIP3    H152205   5.748   3.680   6.432  0.7496 -0.7975 -0.9393
10238TIP3    H252206   5.638   3.576   6.429 -0.1675  0.1803 -1.3493
10239TIP3   OH252207   1.330   1.914  10.754  0.3143  0.0386  0.4174
10239TIP3    H152208   1.364   2.003  10.760  1.0521 -0.1869 -0.2940
10239TIP3    H252209   1.344   1.889  10.662  0.4957 -0.9588  0.7106
10240TIP3   OH252210   3.652   6.420  14.123 -0.0271  0.0359 -0.0564
10240TIP3    H152211   3.684   6.507  14.097  0.0983  0.4876  1.5225
10240TIP3    H252212   3.584   6.438  14.188  0.8935 -1.0455  1.2633
10241TIP3   OH252213   0.241   4.436   5.593 -0.2025  0.6350 -0.0358
10241TIP3    H152214   0.229   4.347   5.560  0.1397  0.4673  0.2793
10241TIP3    H252215   0.306   4.475   5.534  0.3417  0.3660  0.3797
10242TIP3   OH252216   4.416   5.956   1.606 -0.1314 -0.5539 -0.3959
10242TIP3    H152217   4.505   5.964   1.641 -0.2036  2.1137 -0.7173
10242TIP3    H252218   4.360   5.962   1.683 -0.0947 -0.7993 -0.3482
10243TIP3   OH252219   3.155   5.860  12.679 -0.3208 -0.7431  0.2399
10243TIP3    H152220   3.205   5.880  12.758 -1.5060 -0.4876  0.9262
10243TIP3    H252221   3.221   5.829  12.616  0.9598  1.2784  0.5443
10244TIP3   OH252222   5.335   6.420  11.518  0.2206 -0.1963  0.2602
10244TIP3    H152223   5.348   6.407  11.612 -2.2064 -0.8424  0.5472
10244TIP3    H252224   5.305   6.335  11.486  0.9747  0.0360 -1.1020
10245TIP3   OH252225   6.590   5.254  12.852  0.4810  1.0614 -0.1097
10245TIP3    H152226   6.640   5.207  12.786 -1.0774 -3.2582  1.5796
10245TIP3    H252227   6.654   5.276  12.919  1.1447  0.7715 -0.6391
10246TIP3   OH252228   0.380   2.101   0.164  0.4370 -0.2107 -0.0976
10246TIP3    H152229   0.476   2.098   0.165  0.4740  0.7341  2.4287
10246TIP3    H252230   0.357   2.157   0.238 -2.0875 -0.5592 -0.5781
10247TIP3   OH252231   2.936   0.342   0.911  0.0934 -0.1423  0.0084
10247TIP3    H152232   2.880   0.266   0.926  0.3812 -0.3651 -0.0277
10247TIP3    H252233   2.913   0.404   0.980 -0.4081 -0.1089 -0.1839
10248TIP3   OH252234   5.630   3.124   2.574  0.0814 -0.0935  0.1415
10248TIP3    H152235   5.640   3.201   2.630 -1.1824  0.3870 -0.2892
10248TIP3    H252236   5.696   3.135   2.505  0.0676  0.4810  0.2222
10249TIP3   OH252237   3.399   2.341   0.777  0.3445 -0.1095 -0.0365
10249TIP3    H152238   3.377   2.342   0.870  2.8635 -1.3683  0.6232
10249TIP3    H252239   3.331   2.287   0.737 -0.5134  0.0659  1.1373
10250TIP3   OH252240   5.312   3.833   4.598 -0.0523  0.3886  0.6388
10250TIP3    H152241   5.395   3.786   4.596 -0.1605  0.2297 -0.0743
10250TIP3    H252242   5.327   3.911   4.545  0.1781  1.2616  1.9533
10251TIP3   OH252243   1.289   2.456  16.535  0.1953 -0.1076 -0.9035
10251TIP3    H152244   1.333   2.479  16.617 -0.4327 -0.4853 -0.4560
10251TIP3    H252245   1.348   2.394  16.493 -0.0177 -0.8053 -0.1880
10252TIP3   OH252246   0.231   3.852  11.492  0.0588  0.2317 -0.1474
10252TIP3    H152247   0.286   3.904  11.551 -1.1425  0.2245  1.0127
10252TIP3    H252248   0.142   3.878  11.515 -0.4258  0.7012 -2.4152
10253TIP3   OH252249   4.075   1.381   3.726  0.3230 -0.4888 -0.8102
10253TIP3    H152250   4.154   1.341   3.763 -0.5629 -0.9716  0.6364
10253TIP3    H252251   4.078   1.472   3.755 -1.3518 -1.3095  2.2951
10254TIP3   OH252252   3.878   5.140  12.691 -0.0504 -0.2440 -0.4561
10254TIP3    H152253   3.783   5.135  12.681 -0.1038  0.7640 -0.5528
10254TIP3    H252254   3.908   5.193  12.617  0.5610 -0.3899 -0.3194
10255TIP3   OH252255   5.396   2.615   1.864  0.3658  0.5875  0.4692
10255TIP3    H152256   5.415   2.572   1.947 -1.4651 -2.5778 -0.6848
10255TIP3    H252257   5.472   2.594   1.809 -0.7869 -1.7299 -0.2753
10256TIP3   OH252258   4.086   4.016  13.137  0.1395  0.3428  0.5918
10256TIP3    H152259   4.101   3.948  13.202 -0.0934  1.1192  1.4672
10256TIP3    H252260   4.005   4.058  13.164 -0.2481  0.3100 -0.5152
10257TIP3   OH252261   6.423   5.519   5.757 -0.0221  0.3129  0.5236
10257TIP3    H152262   6.480   5.445   5.774 -0.5936 -0.0160  1.0574
10257TIP3    H252263   6.447   5.584   5.823  0.1016  0.3832  0.4095
10258TIP3   OH252264   5.341   1.665   5.728  0.6352 -0.0449  0.3264
10258TIP3    H152265   5.335   1.754   5.695 -0.2516  0.0239  0.6395
10258TIP3    H252266   5.351   1.675   5.823 -0.0318 -0.2782  0.4276
10259TIP3   OH252267   1.426   5.803   4.956  0.0320  0.3123  0.0055
10259TIP3    H152268   1.439   5.879   5.012 -0.3586  1.8945 -1.9618
10259TIP3    H252269   1.511   5.790   4.913 -0.3362  0.6371 -0.8382
10260TIP3   OH252270   1.864   1.555   3.908 -0.3807  0.2783 -0.0868
10260TIP3    H152271   1.949   1.565   3.951 -1.1584  1.0320  1.3153
10260TIP3    H252272   1.871   1.607   3.828  0.3226  0.7030  0.2504
10261TIP3   OH252273   0.103   4.926   0.499 -0.4432  0.1055 -0.5082
10261TIP3    H152274   0.034   4.958   0.558 -1.0091  0.4462 -1.3358
10261TIP3    H252275   0.094   4.831   0.502  1.0415  0.0183  1.7227
10262TIP3   OH252276   4.878   0.803  15.756  0.7991  0.1023  0.2497
10262TIP3    H152277   4.826   0.835  15.682  1.4367  1.8970  0.5530
10262TIP3    H252278   4.945   0.747  15.716 -1.2521 -2.1079 -0.1552
10263TIP3   OH252279   3.465   0.929  13.706  0.5997  0.0679 -0.1475
10263TIP3    H152280   3.526   0.919  13.779  0.3057  0.4672  0.1557
10263TIP3    H252281   3.516   0.906  13.629  1.0840  0.2231  0.1240
10264TIP3   OH252282   0.961   3.046   4.080  0.4036 -0.3824  0.4847
10264TIP3    H152283   0.965   2.954   4.105 -0.4810  0.0492  2.2402
10264TIP3    H252284   0.977   3.094   4.160 -0.7280  1.0110 -0.0963
10265TIP3   OH252285   3.089   5.241  14.963 -0.2086 -0.5133 -0.2988
10265TIP3    H152286   3.137   5.193  14.895  0.0567  0.3914 -0.7541
10265TIP3    H252287   3.153   5.303  14.998 -1.4524  1.7425 -1.9218
10266TIP3   OH252288   4.533   2.435  16.736 -0.5500 -0.1544  0.0558
10266TIP3    H152289   4.449   2.463  16.699  0.1452 -0.1364 -1.5685
10266TIP3    H252290   4.515   2.421  16.829 -1.9174  1.5785  0.0745
10267TIP3   OH252291   1.142   6.454   6.539 -0.3763  0.8265  0.3328
10267TIP3    H152292   1.067   6.396   6.530 -0.2581  0.5403  1.0776
10267TIP3    H252293   1.114   6.519   6.604  0.1795  0.4330  0.9793
10268TIP3   OH252294   6.263   6.642   3.332  0.1849  0.0946 -0.0561
10268TIP3    H152295   6.254   6.635   3.427  0.8420 -0.6286 -0.0372
10268TIP3    H252296   6.343   6.693   3.320 -0.6357  1.3539 -0.2211
10269TIP3   OH252297   0.339   4.405   2.257 -0.1768 -0.2900 -0.4560
10269TIP3    H152298   0.429   4.375   2.262 -0.5052 -1.3660 -0.8376
10269TIP3    H252299   0.300   4.378   2.340 -0.2307 -0.1040 -0.4203
10270TIP3   OH252300   3.319   3.440   1.393 -0.4118  0.5247  0.5456
10270TIP3    H152301   3.346   3.531   1.409  0.2042  0.3106  0.7367
10270TIP3    H252302   3.401   3.391   1.390 -0.7801 -0.1313  1.0970
10271TIP3   OH252303   5.594   0.283  15.074  0.1168 -0.2528 -0.7766
10271TIP3    H152304   5.683   0.288  15.108  0.1214 -1.8565 -0.5123
10271TIP3    H252305   5.594   0.207  15.016 -0.3062  1.4989 -3.1733
10272TIP3   OH252306   6.348   6.583   4.919  0.3725 -0.5868  0.6099
10272TIP3    H152307   6.415   6.539   4.867  0.7171 -0.8283  1.2457
10272TIP3    H252308   6.362   6.550   5.008 -0.7654 -0.8552  0.7009
10273TIP3   OH252309   1.079   0.666  12.443 -0.2485  0.3115 -0.2094
10273TIP3    H152310   1.004   0.719  12.415 -0.4138 -1.2326 -2.8789
10273TIP3    H252311   1.090   0.687  12.536 -2.1573  2.7500 -0.4736
10274TIP3   OH252312   4.993   1.435   4.084 -0.0643 -0.1092  0.1409
10274TIP3    H152313   5.020   1.496   4.152  1.8531 -0.4989 -0.2393
10274TIP3    H252314   5.052   1.453   4.011 -2.3629  0.6036 -1.6157
10275TIP3   OH252315   0.795   3.307   3.888 -0.6325  0.1328 -0.0568
10275TIP3    H152316   0.751   3.227   3.918  1.7350 -0.4231  2.1329
10275TIP3    H252317   0.867   3.276   3.833  0.7555  0.6782  1.4064
10276TIP3   OH252318   1.023   1.955  12.946 -0.3624 -0.5363 -0.1789
10276TIP3    H152319   0.997   1.865  12.927 -0.0440 -0.3370 -1.6210
10276TIP3    H252320   1.118   1.951  12.953 -0.3288 -0.2713 -0.4882
10277TIP3   OH252321   0.477   2.277  16.263  0.0653  0.1397 -0.0052
10277TIP3    H152322   0.429   2.243  16.339  0.9674 -0.4337  0.3162
10277TIP3    H252323   0.568   2.253  16.280  0.7223  2.6903  0.2149
10278TIP3   OH252324   4.066   3.147  17.199  0.1028  0.0760  0.1415
10278TIP3    H152325   4.086   3.054  17.194 -0.3115 -0.0155  0.2616
10278TIP3    H252326   4.080   3.170  17.291 -0.2951  0.0219  0.2169
10279TIP3   OH252327   6.435   4.638  11.991 -0.4260  0.8701 -0.1556
10279TIP3    H152328   6.510   4.694  12.010  0.9976 -0.8283 -0.7157
10279TIP3    H252329   6.454   4.601  11.905 -1.4694 -0.3021  0.1113
10280TIP3   OH252330   5.057   3.752  11.510  0.9921 -0.1030 -0.8273
10280TIP3    H152331   5.031   3.708  11.428 -3.7094 -0.5046  0.7329
10280TIP3    H252332   5.086   3.681  11.567  1.4167 -0.1744 -1.1287
10281TIP3   OH252333   6.186   5.991  10.747 -0.1994 -0.2762  0.1508
10281TIP3    H152334   6.159   6.020  10.659  0.6677 -0.1833 -0.0931
10281TIP3    H252335   6.104   5.976  10.793 -0.6740  1.0017 -0.2384
10282TIP3   OH252336   4.568   3.498  12.075  0.2622 -0.4828  0.4345
10282TIP3    H152337   4.529   3.411  12.078  0.1344 -0.4836 -0.8652
10282TIP3    H252338   4.636   3.491  12.008  0.1797  0.4454  0.2549
10283TIP3   OH252339   5.263   3.961   1.895  0.1439  0.0577  0.2918
10283TIP3    H152340   5.346   3.923   1.925  0.4098 -1.9162 -2.6925
10283TIP3    H252341   5.255   3.932   1.804 -3.2217  1.2726  0.1264
10284TIP3   OH252342   5.526   0.922  11.259 -0.1697  0.1480 -0.6896
10284TIP3    H152343   5.571   0.848  11.301  0.3552  0.5467 -0.5467
10284TIP3    H252344   5.455   0.944  11.319  1.4554  1.6597  0.7207
10285TIP3   OH252345   0.036   6.155   0.735 -0.5215  0.2603 -0.1507
10285TIP3    H152346  -0.002   6.239   0.760  0.1202  0.7539 -0.7982
10285TIP3    H252347  -0.032   6.114   0.680 -1.4289 -0.2983  1.3634
10286TIP3   OH252348   5.742   1.202   4.049  0.7963  0.2649 -0.2050
10286TIP3    H152349   5.716   1.208   3.957  0.2240 -2.1232 -0.2456
10286TIP3    H252350   5.761   1.292   4.075 -1.2863  1.2753 -2.0144
10287TIP3   OH252351   3.375   3.450   5.753  0.1905 -0.1124 -0.1021
10287TIP3    H152352   3.417   3.428   5.836 -0.9041  1.7171  0.9683
10287TIP3    H252353   3.311   3.379   5.739  0.1346 -0.2437  0.7979
10288TIP3   OH252354   0.752   6.433   1.745 -0.2998  0.9820 -0.3895
10288TIP3    H152355   0.835   6.402   1.709 -1.0164  0.0424 -1.2543
10288TIP3    H252356   0.708   6.474   1.671 -1.9807 -1.3567 -0.7142
10289TIP3   OH252357   4.210   6.064  11.154 -0.0940  0.7245  0.2036
10289TIP3    H152358   4.255   6.051  11.071 -0.6117 -0.1513  0.0545
10289TIP3    H252359   4.117   6.059  11.133 -0.2418  1.0250  0.7527
10290TIP3   OH252360   0.928   5.251   0.155  0.4646  0.1241  0.5088
10290TIP3    H152361   0.865   5.241   0.227 -0.5754 -0.8164 -0.5163
10290TIP3    H252362   0.989   5.318   0.186 -2.1066  2.4181  0.7682
10291TIP3   OH252363   0.066   6.737   5.603 -0.0432 -0.4179 -0.2397
10291TIP3    H152364   0.107   6.657   5.571 -0.6916 -0.6479 -0.5058
10291TIP3    H252365   0.138   6.787   5.643  0.2338 -1.4389  0.5548
10292TIP3   OH252366   6.657   0.087   0.829 -0.0899 -0.2922 -0.2293
10292TIP3    H152367   6.667   0.155   0.763  0.7182  0.2509  0.4360
10292TIP3    H252368   6.706   0.012   0.795 -0.7728 -0.4550 -0.8492
10293TIP3   OH252369   0.815   4.656   3.454  0.9673 -0.2905 -0.0357
10293TIP3    H152370   0.810   4.572   3.499  0.4088  0.0321  0.4999
10293TIP3    H252371   0.726   4.691   3.457  1.0731  0.0550 -0.7684
10294TIP3   OH252372   6.770   1.774  16.880  0.7076 -0.0268 -0.1469
10294TIP3    H152373   6.714   1.725  16.819  0.0067 -0.2140  0.6333
10294TIP3    H252374   6.722   1.856  16.896 -0.0572 -0.7782  1.6088
10295TIP3   OH252375   3.778   0.990   3.176 -0.2150 -0.4502  0.2363
10295TIP3    H152376   3.734   0.906   3.169 -1.0969 -0.1452  1.9175
10295TIP3    H252377   3.732   1.036   3.246  2.6307 -0.0255  1.9046
10296TIP3   OH252378   5.433   1.534  15.168 -0.1139  0.3618  0.2434
10296TIP3    H152379   5.500   1.582  15.216  1.4936 -1.3016 -0.2703
10296TIP3    H252380   5.462   1.538  15.077 -1.1270  0.2797 -0.0862
10297TIP3   OH252381   1.241   6.476  15.538  0.3888  0.3911 -1.3072
10297TIP3    H152382   1.184   6.403  15.562 -0.5842  1.5433 -0.0242
10297TIP3    H252383   1.279   6.504  15.621 -0.0842  2.0202 -1.6203
10298TIP3   OH252384   2.177   3.926   4.005 -0.0979  0.3577 -0.4245
10298TIP3    H152385   2.252   3.879   4.040 -2.0125 -1.4352  1.4612
10298TIP3    H252386   2.156   3.883   3.923 -0.4402 -0.6392  0.1771
10299TIP3   OH252387   3.299   2.760   2.370  0.1772 -0.2843  0.3433
10299TIP3    H152388   3.287   2.809   2.289  0.0776 -0.4410  0.2629
10299TIP3    H252389   3.300   2.668   2.342  0.8900 -0.3054  0.4268
10300TIP3   OH252390   3.051   0.589   0.840 -0.0133 -0.6872 -0.4240
10300TIP3    H152391   2.983   0.628   0.895  1.5829 -0.2561  1.2824
10300TIP3    H252392   3.038   0.494   0.849  0.2225 -0.6147  0.6734
10301TIP3   OH252393   2.227   2.161  10.859 -0.1503 -0.0623  0.3391
10301TIP3    H152394   2.216   2.072  10.892  1.4772 -0.0189  1.0668
10301TIP3    H252395   2.322   2.170  10.845 -0.3501  1.3693 -0.2569
10302TIP3   OH252396   0.894   1.875   1.470  0.5072  0.8295 -0.0123
10302TIP3    H152397   0.805   1.901   1.450 -0.3825 -0.8385  1.6279
10302TIP3    H252398   0.897   1.870   1.565  1.4052 -2.2041 -0.1397
10303TIP3   OH252399   1.569   1.778   5.258  0.2448  0.4562  0.3230
10303TIP3    H152400   1.621   1.842   5.307  0.3845 -0.6602  1.6524
10303TIP3    H252401   1.514   1.736   5.324 -0.5977 -0.0857 -0.7072
10304TIP3   OH252402   5.228   2.933  13.438 -0.0073 -0.2082 -0.0209
10304TIP3    H152403   5.317   2.934  13.402  1.1770  3.7640  2.7540
10304TIP3    H252404   5.235   2.880  13.518 -0.2105 -0.1336  0.0459
10305TIP3   OH252405   3.791   4.281   1.888 -0.0781 -0.0926 -0.3196
10305TIP3    H152406   3.774   4.374   1.874  0.2682 -0.1213 -0.9420
10305TIP3    H252407   3.833   4.276   1.973 -2.8286  0.0339  1.1210
10306TIP3   OH252408   5.697   1.587   4.773  0.2574  0.5848 -0.2040
10306TIP3    H152409   5.640   1.512   4.753 -0.0896  1.1367 -1.3032
10306TIP3    H252410   5.682   1.603   4.866  0.6660 -0.9844  0.1544
10307TIP3   OH252411   3.957   2.530  11.246  0.1472 -0.2201 -0.5130
10307TIP3    H152412   3.864   2.552  11.256  0.2903 -0.2547  0.9887
10307TIP3    H252413   3.973   2.462  11.311  1.5209  0.7063  0.1409
10308TIP3   OH252414   0.461   3.281   3.540 -0.1046  0.1271 -0.8049
10308TIP3    H152415   0.544   3.241   3.565 -1.4631 -4.0229 -2.4888
10308TIP3    H252416   0.412   3.289   3.622  0.4614 -1.0612 -0.3410
10309TIP3   OH252417   2.142   2.408  13.334 -0.2300  0.5881  0.1930
10309TIP3    H152418   2.211   2.345  13.316 -1.7334 -1.0981  0.2736
10309TIP3    H252419   2.116   2.441  13.247 -1.7577 -1.4215 -0.1520
10310TIP3   OH252420   2.135   4.871  15.449 -0.2453  0.8501 -0.4766
10310TIP3    H152421   2.155   4.798  15.507 -0.9556 -0.2212 -1.5619
10310TIP3    H252422   2.137   4.948  15.505 -0.5567 -0.1360  0.8933
10311TIP3   OH252423   1.442   5.304  12.713 -0.2058  0.0546  0.2591
10311TIP3    H152424   1.427   5.364  12.640 -1.4297  0.9940  1.2500
10311TIP3    H252425   1.442   5.217  12.674 -0.1226  0.5958 -0.9599
10312TIP3   OH252426   4.597   3.338  14.897  0.4022 -0.7519 -0.0244
10312TIP3    H152427   4.554   3.282  14.960 -0.5111 -1.0211 -0.8824
10312TIP3    H252428   4.528   3.396  14.864  1.1005  0.1251  0.0436
10313TIP3   OH252429   4.390   1.948  16.060 -0.0488  0.2014  0.0655
10313TIP3    H152430   4.481   1.970  16.077 -0.0264 -1.1025  1.7489
10313TIP3    H252431   4.391   1.908  15.972  1.1706 -0.7452  0.4948
10314TIP3   OH252432   5.877   2.674   4.158 -0.7961  0.5054  0.0739
10314TIP3    H152433   5.921   2.734   4.218 -1.8079 -0.3206  1.6822
10314TIP3    H252434   5.784   2.683   4.179 -1.2429  0.7667 -1.9172
10315TIP3   OH252435   6.735   5.734  12.402 -0.6037 -0.2975  0.2289
10315TIP3    H152436   6.687   5.807  12.364  1.1861  0.3701 -0.8107
10315TIP3    H252437   6.717   5.660  12.344 -1.5511 -0.4277  0.6791
10316TIP3   OH252438   3.326   2.071  13.834  0.1481 -0.5151 -0.2711
10316TIP3    H152439   3.360   2.072  13.744 -0.1804  1.6823 -0.4038
10316TIP3    H252440   3.232   2.086  13.824  0.0582 -0.6131  0.4373
10317TIP3   OH252441   0.027   1.570  12.222  0.0058 -0.6049 -0.0943
10317TIP3    H152442  -0.001   1.505  12.157 -0.0869 -1.3143  0.6366
10317TIP3    H252443   0.122   1.569  12.217 -0.0379  1.5875 -2.3735
10318TIP3   OH252444   5.436   0.946   3.647 -0.0706 -0.3607 -0.1169
10318TIP3    H152445   5.478   0.863   3.669 -1.2124 -0.9446 -0.1478
10318TIP3    H252446   5.492   0.984   3.579  1.1882 -0.4691  0.8431
10319TIP3   OH252447   4.427   0.114  14.638 -0.7080 -0.4931  0.4245
10319TIP3    H152448   4.413   0.204  14.669 -2.0734 -1.2959  2.2283
10319TIP3    H252449   4.477   0.072  14.709  1.1548 -0.7789 -1.0338
10320TIP3   OH252450   0.387   5.199  15.538 -0.4872 -0.2558 -0.7410
10320TIP3    H152451   0.393   5.104  15.546  2.2893 -0.0978 -0.3423
10320TIP3    H252452   0.430   5.232  15.616 -4.2752  1.4029  0.7644
10321TIP3   OH252453   0.638   3.829  13.624  0.1165 -0.4011 -0.6410
10321TIP3    H152454   0.577   3.873  13.684  0.0267  1.6338 -2.1777
10321TIP3    H252455   0.718   3.820  13.675  0.1905  1.7338 -0.3053
10322TIP3   OH252456   4.640   2.627   3.517  0.5839  0.2462 -0.3914
10322TIP3    H152457   4.600   2.616   3.431  0.1973 -0.6699 -0.0989
10322TIP3    H252458   4.585   2.691   3.562  0.1889 -0.0499 -0.4548
10323TIP3   OH252459   3.880   1.768  13.484  0.2753 -0.4188 -0.0997
10323TIP3    H152460   3.939   1.844  13.482 -1.0685  0.6405 -0.2779
10323TIP3    H252461   3.873   1.746  13.577  1.8429 -1.2649 -0.1756
10324TIP3   OH252462   0.418   3.296  12.652  0.1532  0.3732 -0.2482
10324TIP3    H152463   0.491   3.286  12.591  0.5249  1.7088 -0.0383
10324TIP3    H252464   0.352   3.345  12.603 -0.0099  0.4627  0.0572
10325TIP3   OH252465   4.900   3.320   2.390 -0.2488 -0.5114  0.2873
10325TIP3    H152466   4.896   3.368   2.307  1.2122  2.8225  2.0658
10325TIP3    H252467   4.940   3.236   2.367 -1.9140 -0.5543 -2.7435
10326TIP3   OH252468   6.435   3.619  11.879  0.1745  0.5569 -0.6318
10326TIP3    H152469   6.371   3.655  11.818  0.4657  0.4237 -1.0221
10326TIP3    H252470   6.384   3.565  11.939 -0.2335  1.4374 -0.1743
10327TIP3   OH252471   0.435   6.115  14.165  0.5300  0.0602 -1.0425
10327TIP3    H152472   0.392   6.189  14.122 -0.1843 -0.5481 -1.3728
10327TIP3    H252473   0.393   6.037  14.128 -1.9833 -0.4782  2.6135
10328TIP3   OH252474   0.492   1.419   6.374  0.0425  0.2539  0.0110
10328TIP3    H152475   0.548   1.482   6.329  1.2050  0.6757  1.9858
10328TIP3    H252476   0.553   1.356   6.412 -1.0050 -0.9000 -0.1820
10329TIP3   OH252477   2.123   0.555  11.441  0.5700  0.1200  0.2346
10329TIP3    H152478   2.108   0.631  11.385  0.8496 -0.6870 -0.9332
10329TIP3    H252479   2.149   0.593  11.525 -0.1299  1.3386 -0.0790
10330TIP3   OH252480   1.384   0.086   4.155  0.1733  0.4183  0.5661
10330TIP3    H152481   1.355   0.168   4.195  0.7029  0.8345  0.1154
10330TIP3    H252482   1.394   0.026   4.228 -0.8888  0.5493  0.8289
10331TIP3   OH252483   1.260   4.099  11.372  0.3308  0.8046 -0.3851
10331TIP3    H152484   1.204   4.101  11.294  1.2562 -1.4113 -1.1406
10331TIP3    H252485   1.199   4.103  11.445 -0.8997 -1.8494 -1.1867
10332TIP3   OH252486   1.568   0.331   5.746  0.6025  0.1457 -0.1718
10332TIP3    H152487   1.637   0.335   5.812  0.4836 -0.3489 -0.0169
10332TIP3    H252488   1.579   0.412   5.696  2.7412 -0.9806 -1.6136
10333TIP3   OH252489   1.565   6.079   2.632 -0.0947 -0.3200 -0.2458
10333TIP3    H152490   1.523   6.076   2.546 -1.0094  0.6749  0.1586
10333TIP3    H252491   1.514   6.017   2.686  0.6459 -1.1494 -0.4813
10334TIP3   OH252492   0.727   0.771  10.667  0.4289 -0.1003 -0.0763
10334TIP3    H152493   0.808   0.723  10.646  0.7314  0.0189  0.8101
10334TIP3    H252494   0.758   0.853  10.706 -0.1068  0.4106 -0.7214
10335TIP3   OH252495   0.002   5.492   2.306  0.5100  0.5215  0.3223
10335TIP3    H152496   0.075   5.537   2.263 -0.6947  2.3342  0.1219
10335TIP3    H252497  -0.068   5.556   2.307 -0.3275 -0.3800  2.7110
10336TIP3   OH252498   0.829   5.066  13.930 -0.1593 -0.1945  0.2843
10336TIP3    H152499   0.870   5.140  13.974  0.3503 -0.4756  0.2891
10336TIP3    H252500   0.746   5.053  13.976  0.7432 -1.0182  1.6864
10337TIP3   OH252501   3.177   6.470  16.493  0.6453 -0.2540 -0.8284
10337TIP3    H152502   3.247   6.413  16.460  2.2203  1.2553 -0.1985
10337TIP3    H252503   3.160   6.439  16.582  1.2550  0.0264 -0.6086
10338TIP3   OH252504   1.668   6.033   0.168  0.1214 -0.0904 -0.0066
10338TIP3    H152505   1.752   6.019   0.126 -0.8168  1.3864 -2.4603
10338TIP3    H252506   1.615   5.957   0.145  0.0798  0.0240 -0.2862
10339TIP3   OH252507   4.552   6.786  12.634  0.3464 -0.0785 -0.2564
10339TIP3    H152508   4.460   6.764  12.648 -0.4525  2.3219 -1.3138
10339TIP3    H252509   4.575   6.839  12.711 -0.1244  1.9385 -1.4566
10340TIP3   OH252510   4.490   2.246  13.740  0.1461  0.4732 -0.1267
10340TIP3    H152511   4.496   2.222  13.648  1.2328 -1.7122  0.4535
10340TIP3    H252512   4.575   2.285  13.760 -0.3576  1.6285 -0.2244
10341TIP3   OH252513   6.733   3.149   1.359 -0.1772  0.0606 -0.1323
10341TIP3    H152514   6.648   3.183   1.385 -0.0402 -0.0676  0.5027
10341TIP3    H252515   6.796   3.193   1.417  0.3764  1.4690 -1.7645
10342TIP3   OH252516   2.620   1.125   1.846 -0.1382  1.0909  0.1059
10342TIP3    H152517   2.677   1.117   1.770 -0.9742  2.2892 -0.6712
10342TIP3    H252518   2.638   1.212   1.880 -1.4154  1.4408 -0.0879
10343TIP3   OH252519   0.366   5.116   0.220 -0.3844  0.2457  0.3181
10343TIP3    H152520   0.355   5.154   0.307 -1.8278 -1.4319  0.8924
10343TIP3    H252521   0.311   5.170   0.163 -0.3855  0.6035  0.6601
10344TIP3   OH252522   1.164   4.433  12.364 -0.5912  0.0410  0.1922
10344TIP3    H152523   1.184   4.418  12.272  2.7556 -2.7187  1.2830
10344TIP3    H252524   1.072   4.407  12.373  0.1120 -3.2713 -1.6220
10345TIP3   OH252525   4.808   1.847  11.428  0.1449 -0.2214 -0.7302
10345TIP3    H152526   4.874   1.783  11.402  0.5634  0.0280 -0.2972
10345TIP3    H252527   4.735   1.795  11.460  0.7215 -0.4838  0.1941
10346TIP3   OH252528   1.794   2.078   4.504  0.0906  0.2162  0.0003
10346TIP3    H152529   1.863   2.012   4.498 -1.1608 -1.2410  1.2983
10346TIP3    H252530   1.795   2.105   4.596 -1.3948 -0.1788  0.1415
10347TIP3   OH252531   3.210   1.206   0.338 -0.6171 -0.6312 -0.0274
10347TIP3    H152532   3.254   1.287   0.312 -0.7249 -0.4626  0.3076
10347TIP3    H252533   3.161   1.179   0.261 -2.8533  1.1581  0.7241
10348TIP3   OH252534   6.075   0.737  15.258  0.1199  0.1056  0.1313
10348TIP3    H152535   5.994   0.784  15.237 -0.0538 -0.2430  0.0186
10348TIP3    H252536   6.127   0.800  15.307 -0.0166  0.4948 -0.2243
10349TIP3   OH252537   5.645   6.268  14.191 -0.3564 -0.1966  0.1923
10349TIP3    H152538   5.640   6.362  14.209 -0.6657 -0.5568  2.1363
10349TIP3    H252539   5.620   6.227  14.274 -0.5015 -1.9956 -0.7234
10350TIP3   OH252540   1.904   3.927   0.077  1.2111  0.4055 -0.1885
10350TIP3    H152541   1.882   3.954  -0.012  2.4997  3.8711  0.4678
10350TIP3    H252542   1.999   3.920   0.078  1.1647 -0.2358  0.7562
10351TIP3   OH252543   0.550   6.608   3.743  0.1297 -0.5922  0.1524
10351TIP3    H152544   0.552   6.512   3.735 -0.7786 -0.6743  0.9098
10351TIP3    H252545   0.586   6.639   3.660 -1.4822 -1.5718 -0.9478
10352TIP3   OH252546   0.001   2.538   2.691  0.4577  0.3482 -0.1147
10352TIP3    H152547  -0.067   2.602   2.715 -1.1020 -1.0058 -0.7827
10352TIP3    H252548  -0.033   2.454   2.723  1.4014 -0.4740 -1.2225
10353TIP3   OH252549   2.521   1.110  14.428 -0.1790 -0.3920  0.0493
10353TIP3    H152550   2.432   1.116  14.462 -0.4453 -0.2049 -0.6878
10353TIP3    H252551   2.517   1.147  14.340  0.6066 -0.4671 -0.0272
10354TIP3   OH252552   6.502   1.701   5.334  0.0922 -0.2339  0.1858
10354TIP3    H152553   6.586   1.672   5.297 -0.4615 -0.3329 -1.0046
10354TIP3    H252554   6.442   1.629   5.317  0.1330 -0.8546  2.4916
10355TIP3   OH252555   4.284   0.791   4.977 -0.5973  0.6508  0.1319
10355TIP3    H152556   4.283   0.879   5.013 -4.0935  0.4681  0.6422
10355TIP3    H252557   4.289   0.734   5.053 -0.3368  0.3642 -0.0971
10356TIP3   OH252558   1.315   6.154  16.089 -0.4192 -0.1878 -0.0290
10356TIP3    H152559   1.376   6.096  16.134  1.2011  0.8114 -0.8906
10356TIP3    H252560   1.291   6.106  16.010 -0.5668 -0.4877  0.1972
10357TIP3   OH252561   1.747   0.424  14.809  0.4531 -0.3330  0.3601
10357TIP3    H152562   1.788   0.506  14.782 -1.3950  0.2680 -0.6957
10357TIP3    H252563   1.719   0.383  14.727 -2.1702 -0.1216  1.0984
10358TIP3   OH252564   2.389   0.981   0.413 -0.1850  0.1662 -0.5506
10358TIP3    H152565   2.484   0.989   0.406 -0.4079  2.0210 -1.7851
10358TIP3    H252566   2.364   0.926   0.339 -0.1396  0.1705 -0.5693
10359TIP3   OH252567   6.073   6.449  12.701 -0.3458  0.2017  0.6649
10359TIP3    H152568   6.160   6.442  12.663 -1.1071  3.2304 -1.8235
10359TIP3    H252569   6.033   6.363  12.689  1.2900 -0.3717 -0.7186
10360TIP3   OH252570   3.780   3.873   5.304  0.1340  0.1453 -0.1235
10360TIP3    H152571   3.761   3.930   5.229 -2.1998  1.0597  1.1321
10360TIP3    H252572   3.723   3.797   5.290  0.4456 -0.1422  0.1858
10361TIP3   OH252573   5.721   5.385   3.254  0.0109 -0.2878  0.6040
10361TIP3    H152574   5.814   5.365   3.262 -0.3051 -2.1971 -0.3552
10361TIP3    H252575   5.719   5.466   3.204  1.1047 -1.2452 -1.0179
10362TIP3   OH252576   0.290   6.301   1.665 -0.5343 -0.0490  0.1399
10362TIP3    H152577   0.325   6.271   1.581  0.5962  0.1493  0.5257
10362TIP3    H252578   0.267   6.393   1.650 -0.3484 -0.0187  0.0367
10363TIP3   OH252579   0.426   0.716   0.505  0.0790  0.5521  0.2198
10363TIP3    H152580   0.474   0.796   0.525  1.0426 -0.3378  1.5593
10363TIP3    H252581   0.493   0.656   0.471 -0.6056  0.2697 -0.6396
10364TIP3   OH252582   6.800   3.095   0.374 -0.1372 -0.0943 -0.1063
10364TIP3    H152583   6.766   3.136   0.454 -2.5437 -0.7544 -0.7701
10364TIP3    H252584   6.748   3.132   0.303  0.5440 -1.1093 -1.1642
10365TIP3   OH252585   4.815   5.097  14.012 -0.2715  0.0037  0.1766
10365TIP3    H152586   4.781   5.008  14.021 -2.4151  0.8486  0.7207
10365TIP3    H252587   4.814   5.114  13.918 -1.3875  0.0171  0.1886
10366TIP3   OH252588   4.997   1.829   6.222 -0.4943 -0.0491  0.3558
10366TIP3    H152589   4.983   1.735   6.236 -1.5053 -0.0664 -0.6994
10366TIP3    H252590   5.074   1.849   6.274  2.4459 -2.4169 -2.7951
10367TIP3   OH252591   5.642   1.260   6.634  0.4411  0.2318  0.1046
10367TIP3    H152592   5.688   1.217   6.562  0.3049  0.5976 -0.1965
10367TIP3    H252593   5.698   1.334   6.658  0.5996 -0.0168  0.5277
10368TIP3   OH252594   2.521   2.118  14.658 -0.8125  0.0419  0.9341
10368TIP3    H152595   2.485   2.030  14.653 -0.3939 -0.2388  2.5001
10368TIP3    H252596   2.476   2.167  14.589  0.0181 -1.7514 -0.9263
10369TIP3   OH252597   2.558   1.114  17.115  0.3470 -0.3166  0.4146
10369TIP3    H152598   2.502   1.037  17.116  0.8481 -0.6772  1.1790
10369TIP3    H252599   2.624   1.095  17.048  0.1842 -0.3404  0.2602
10370TIP3   OH252600   4.846   2.285   1.586  0.7542 -0.3338  0.3388
10370TIP3    H152601   4.799   2.362   1.617  1.2976  0.6830 -1.3187
10370TIP3    H252602   4.857   2.231   1.664 -1.6028  0.2168  1.0902
10371TIP3   OH252603   1.601   0.983   5.407  0.5261 -0.5008 -0.8398
10371TIP3    H152604   1.561   0.923   5.470 -1.2810  0.8917 -0.6193
10371TIP3    H252605   1.640   1.052   5.461  0.3146 -0.1089 -1.1862
10372TIP3   OH252606   5.407   1.524   4.353 -0.3445 -0.1076 -0.5260
10372TIP3    H152607   5.342   1.464   4.316 -0.9747  0.2118  0.0545
10372TIP3    H252608   5.368   1.555   4.434  0.3357  0.4496 -0.4054
10373TIP3   OH252609   6.358   4.931  13.152  0.4185 -0.3187 -0.2369
10373TIP3    H152610   6.418   4.858  13.165 -0.0307 -0.6396  0.0755
10373TIP3    H252611   6.294   4.922  13.223 -1.0552 -1.0629 -1.6265
10374TIP3   OH252612   3.190   6.291   3.848  0.0079  0.3457  0.1096
10374TIP3    H152613   3.263   6.345   3.880 -0.1292  0.6833 -0.1414
10374TIP3    H252614   3.214   6.202   3.872 -0.3444  0.6490  1.6516
10375TIP3   OH252615   2.961   2.163   6.310  0.3408  0.5116 -0.1978
10375TIP3    H152616   2.965   2.090   6.372 -0.2762  0.7146  0.0872
10375TIP3    H252617   3.002   2.129   6.230 -0.6963 -0.4295 -0.3455
10376TIP3   OH252618   5.398   6.547  16.527 -0.5441 -0.2642  0.5994
10376TIP3    H152619   5.358   6.548  16.613 -3.1735  1.1815 -0.5848
10376TIP3    H252620   5.441   6.632  16.519  0.1176 -0.5898  0.6706
10377TIP3   OH252621   0.797   1.831  16.905  0.1498  0.2202  0.3908
10377TIP3    H152622   0.788   1.870  16.991 -1.1789 -1.0710  0.8594
10377TIP3    H252623   0.715   1.783  16.891  0.5311  0.0328 -1.3877
10378TIP3   OH252624   6.465   5.385  13.698 -0.3133 -0.6481 -0.8950
10378TIP3    H152625   6.517   5.364  13.620 -0.3026 -0.3425 -0.9716
10378TIP3    H252626   6.459   5.480  13.698  0.4140 -0.5954 -0.0443
10379TIP3   OH252627   2.676   6.311   0.174 -0.4473 -0.1734 -0.0462
10379TIP3    H152628   2.739   6.310   0.246 -0.6886 -0.1906  0.1640
10379TIP3    H252629   2.615   6.240   0.193 -0.7601  0.0958 -0.0472
10380TIP3   OH252630   1.603   0.556   0.976 -0.2132  0.3953  0.0802
10380TIP3    H152631   1.644   0.609   1.044  0.9638 -0.0019 -0.2935
10380TIP3    H252632   1.637   0.468   0.991 -0.5810  0.1459 -0.5217
10381TIP3   OH252633   2.932   0.018   3.254  0.2281  0.2977 -0.2242
10381TIP3    H152634   2.877  -0.046   3.210  0.6369  0.2313 -0.6503
10381TIP3    H252635   2.985   0.056   3.184  1.6889 -0.6062  0.3654
10382TIP3   OH252636   6.394   2.926  11.419 -0.3679  0.0708  0.1888
10382TIP3    H152637   6.394   2.995  11.353 -0.9730  0.2650  0.3862
10382TIP3    H252638   6.346   2.963  11.493 -1.3410 -0.8232  0.0165
10383TIP3   OH252639   3.999   0.206  16.121 -0.3260  0.0317  0.0301
10383TIP3    H152640   3.926   0.267  16.136 -0.2151  0.2026 -0.1191
10383TIP3    H252641   3.957   0.125  16.092 -0.3460  0.7401 -1.9651
10384TIP3   OH252642   1.744   3.710   2.760 -0.0935  0.2176 -0.1354
10384TIP3    H152643   1.743   3.715   2.665  1.5108 -0.2925 -0.2015
10384TIP3    H252644   1.653   3.720   2.786 -0.7056 -0.8601 -1.7889
10385TIP3   OH252645   1.424   5.923  12.455 -0.4679 -0.2833  0.6126
10385TIP3    H152646   1.418   6.017  12.439  0.7755 -0.4030 -0.6194
10385TIP3    H252647   1.454   5.916  12.546 -0.9903  0.4936  0.8509
10386TIP3   OH252648   2.932   2.052  13.435  0.5707 -0.0339  0.0589
10386TIP3    H152649   2.920   2.000  13.514 -0.1704  0.4127  0.2459
10386TIP3    H252650   2.992   2.122  13.461 -0.7375  0.9079  0.6066
10387TIP3   OH252651   2.237   5.597   6.392  0.0295 -0.2698 -0.0052
10387TIP3    H152652   2.171   5.527   6.387 -0.9764  0.7565 -1.5875
10387TIP3    H252653   2.186   5.677   6.406  1.1424  0.2244  1.3190
10388TIP3   OH252654   5.014   4.042   0.461 -0.5932  0.4975 -0.0350
10388TIP3    H152655   4.992   4.089   0.542 -0.3673 -0.2052  0.4444
10388TIP3    H252656   5.066   4.103   0.410 -1.8723  1.4292 -0.2406
10389TIP3   OH252657   5.497   5.280  11.652  0.3979 -0.3081 -0.3264
10389TIP3    H152658   5.496   5.223  11.729 -0.4857  0.6964  0.4423
10389TIP3    H252659   5.430   5.243  11.594 -0.4049  0.1204  0.3136
10390TIP3   OH252660   5.246   1.538  17.169  0.2125  0.2647  0.1925
10390TIP3    H152661   5.337   1.543  17.139  0.3614  0.6629  0.6937
10390TIP3    H252662   5.203   1.480  17.107  0.9233 -0.3088  0.2324
10391TIP3   OH252663   3.046   0.242   5.039  0.0272  0.1839 -0.8074
10391TIP3    H152664   2.993   0.187   4.981  0.8811 -0.6984 -0.7729
10391TIP3    H252665   3.136   0.210   5.026  0.2677  0.2348  0.7028
10392TIP3   OH252666   4.270   5.783  16.912 -0.0331  0.3302  0.3132
10392TIP3    H152667   4.262   5.717  16.843  0.3869  0.5763  0.0324
10392TIP3    H252668   4.236   5.739  16.990 -0.6879  0.1169 -0.0868
10393TIP3   OH252669   1.220   3.956   1.715  0.1539  0.0000  0.2424
10393TIP3    H152670   1.258   3.887   1.662 -0.0131  0.6199 -0.7092
10393TIP3    H252671   1.227   4.035   1.660  0.2522  0.7099  1.2627
10394TIP3   OH252672   0.997   6.387   3.406 -0.0218 -0.0860 -0.3955
10394TIP3    H152673   1.008   6.304   3.361  0.6801 -0.1611 -0.0880
10394TIP3    H252674   0.903   6.403   3.405 -0.0987 -0.5825 -0.9930
10395TIP3   OH252675   1.463   2.471  17.208  0.0272  0.2000  0.5656
10395TIP3    H152676   1.449   2.467  17.303 -0.4710  0.1939  0.4930
10395TIP3    H252677   1.517   2.395  17.188 -1.2574 -0.7508  0.6032
10396TIP3   OH252678   2.945   3.661   2.989 -0.0697  0.2961 -0.0563
10396TIP3    H152679   3.041   3.663   2.992 -0.0841  2.1179 -0.2663
10396TIP3    H252680   2.918   3.689   3.076 -0.4074  0.4880 -0.2230
10397TIP3   OH252681   2.024   5.480   3.499  0.5987  0.3122  0.5108
10397TIP3    H152682   2.118   5.471   3.513  0.6613  0.6148  0.2835
10397TIP3    H252683   1.991   5.519   3.581  0.6233 -0.0964  0.7140
10398TIP3   OH252684   3.548   6.464  15.868  0.0104 -0.4406 -0.3675
10398TIP3    H152685   3.591   6.547  15.889 -2.0219  0.6900 -0.4783
10398TIP3    H252686   3.619   6.404  15.845  1.5536  1.0729  0.4154
10399TIP3   OH252687   5.788   0.214  12.279 -0.0803 -0.4798 -0.3909
10399TIP3    H152688   5.878   0.198  12.252  0.0071  1.0167 -1.0408
10399TIP3    H252689   5.736   0.199  12.200  0.0111  2.3581 -1.0422
10400TIP3   OH252690   5.517   6.093   3.847  0.1326 -0.7324 -0.4905
10400TIP3    H152691   5.578   6.142   3.793  0.2674  0.9269  1.1009
10400TIP3    H252692   5.435   6.092   3.798 -0.6381  3.3997  0.5406
10401TIP3   OH252693   4.729   6.497  13.864  0.0890 -0.2353 -0.3103
10401TIP3    H152694   4.753   6.583  13.830 -0.4343  0.0974  0.1527
10401TIP3    H252695   4.642   6.481  13.827 -0.3431 -0.0157  0.6046
10402TIP3   OH252696   6.131   4.186   3.158 -0.6380  0.3712  0.2730
10402TIP3    H152697   6.045   4.208   3.194 -0.5584  0.7377  0.2438
10402TIP3    H252698   6.114   4.122   3.089 -0.9364  0.8909 -0.1288
10403TIP3   OH252699   1.138   2.428   3.903 -0.0818  0.0746 -0.0232
10403TIP3    H152700   1.184   2.469   3.829  0.1313 -0.6271 -0.2805
10403TIP3    H252701   1.200   2.364   3.937 -0.1360  0.4628  0.8367
10404TIP3   OH252702   1.685   3.531  12.976 -0.7297  0.4987  0.3469
10404TIP3    H152703   1.710   3.534  13.068 -1.4376 -2.1635  0.6791
10404TIP3    H252704   1.615   3.466  12.972  0.3681 -0.6318 -2.2665
10405TIP3   OH252705   3.661   6.813  14.765  0.3972  0.1342 -0.2129
10405TIP3    H152706   3.679   6.725  14.800  0.1025  1.3798  3.1965
10405TIP3    H252707   3.575   6.835  14.799  1.0425  2.3026  0.0328
10406TIP3   OH252708   1.311   3.162  12.579  0.0868 -0.5305  0.0395
10406TIP3    H152709   1.362   3.082  12.590  1.0903  0.2498  1.1817
10406TIP3    H252710   1.376   3.231  12.566 -0.6873  0.4370  1.2261
10407TIP3   OH252711   3.311   0.419  16.630 -0.0446 -0.7708 -0.3501
10407TIP3    H152712   3.384   0.468  16.668 -0.9211  0.5898 -0.3786
10407TIP3    H252713   3.352   0.342  16.590  1.1417 -1.0533  1.3587
10408TIP3   OH252714   0.925   1.083   0.737  0.8849  1.0763 -0.1249
10408TIP3    H152715   0.966   1.110   0.819  1.3701  0.8625 -0.2985
10408TIP3    H252716   0.985   1.019   0.699 -0.2616 -0.2797  0.3005
10409TIP3   OH252717   5.887   4.107  13.803  0.4455  0.2833 -0.3279
10409TIP3    H152718   5.865   4.080  13.892  1.4106  1.4892  0.2821
10409TIP3    H252719   5.959   4.049  13.778 -0.3444 -0.5816 -0.6241
10410TIP3   OH252720   6.032   5.376   3.384 -0.7144  0.5672  0.0339
10410TIP3    H152721   6.041   5.422   3.300 -0.0618  3.0408  1.4113
10410TIP3    H252722   6.119   5.337   3.399 -0.6072  0.7581 -0.0842
10411TIP3   OH252723   3.213   3.980  13.691  0.2686  0.3780  0.3112
10411TIP3    H152724   3.204   4.043  13.763 -2.0964  0.1676  0.2104
10411TIP3    H252725   3.140   3.999  13.632 -1.2113 -3.2110  0.8819
10412TIP3   OH252726   1.923   6.197  13.711  0.4241 -0.3558  0.0243
10412TIP3    H152727   1.931   6.249  13.631  1.3601  0.6689  0.7698
10412TIP3    H252728   2.010   6.159  13.723  0.5163  0.1682  1.0134
10413TIP3   OH252729   5.045   1.418  12.676 -0.3155  0.3545  0.1149
10413TIP3    H152730   4.979   1.486  12.687 -0.4341  0.2583 -0.0023
10413TIP3    H252731   5.078   1.402  12.764  1.2582  2.1072 -0.1048
10414TIP3   OH252732   5.992   0.209  12.919  0.1044  0.0681  0.0441
10414TIP3    H152733   6.052   0.187  12.989  0.6734  0.5466 -0.2889
10414TIP3    H252734   5.906   0.184  12.952  0.4479 -0.3077  0.6497
10415TIP3   OH252735   2.259   5.901  15.536 -0.3241  0.5966 -0.4105
10415TIP3    H152736   2.253   5.839  15.463 -0.9502 -0.3680  0.4396
10415TIP3    H252737   2.282   5.984  15.495 -0.7577  0.0877 -1.7198
10416TIP3   OH252738   2.481   2.395   5.753  0.4551 -0.3816  0.4766
10416TIP3    H152739   2.512   2.405   5.663 -0.0530 -1.9326  0.1032
10416TIP3    H252740   2.537   2.327   5.790 -0.3171 -0.8182  0.8525
10417TIP3   OH252741   4.468   4.232   3.087  0.0758  0.3271  0.0874
10417TIP3    H152742   4.451   4.139   3.077  1.1558  0.1406 -0.0165
10417TIP3    H252743   4.395   4.264   3.141 -0.5487 -0.4748 -0.2773
10418TIP3   OH252744   0.460   1.656  12.627  0.3779  0.3885  0.3920
10418TIP3    H152745   0.446   1.749  12.609 -0.0900  0.4684  1.1753
10418TIP3    H252746   0.372   1.618  12.627  0.6262 -0.2324 -0.8397
10419TIP3   OH252747   5.018   4.447   5.356 -0.0441 -0.1616 -0.2332
10419TIP3    H152748   4.997   4.364   5.398  0.5632  0.1833  0.7682
10419TIP3    H252749   4.936   4.475   5.316 -0.4066 -0.9352 -0.0379
10420TIP3   OH252750   6.249   1.979   0.441 -0.2940 -0.2234 -0.0707
10420TIP3    H152751   6.282   2.003   0.527 -1.5608  1.7512 -0.1181
10420TIP3    H252752   6.319   2.002   0.381 -0.7945  1.7848  0.0731
10421TIP3   OH252753   2.972   2.413   6.412  0.3080  0.5684 -0.5313
10421TIP3    H152754   2.988   2.376   6.499 -3.4492  0.6505  0.2672
10421TIP3    H252755   2.958   2.337   6.356 -0.7146  0.5653 -0.2932
10422TIP3   OH252756   6.582   5.958   5.066 -0.4868  0.2689  0.5607
10422TIP3    H152757   6.549   5.891   5.007  1.1080  0.3980 -0.5032
10422TIP3    H252758   6.508   5.978   5.124 -1.0716 -2.1830  0.7107
10423TIP3   OH252759   4.727   5.893   1.700  0.3921 -0.0287 -0.2909
10423TIP3    H152760   4.809   5.869   1.744  0.3809 -0.9831 -0.7620
10423TIP3    H252761   4.750   5.897   1.607  0.3193  1.5584 -0.2474
10424TIP3   OH252762   3.508   4.030  17.039  0.2055  0.2615  0.2248
10424TIP3    H152763   3.561   3.989  16.971 -0.5526 -4.1494  2.0804
10424TIP3    H252764   3.427   3.979  17.040 -1.3383  2.6644  1.8667
10425TIP3   OH252765   6.563   6.614  13.478  0.0189  0.1061 -0.2121
10425TIP3    H152766   6.622   6.643  13.547 -1.0234  0.7713  0.4220
10425TIP3    H252767   6.487   6.672  13.486  0.3033  0.8398 -2.5322
10426TIP3   OH252768   1.503   4.465   5.113  0.2495  0.5184  0.2044
10426TIP3    H152769   1.514   4.409   5.190  1.0104  0.4642  0.0642
10426TIP3    H252770   1.410   4.485   5.111 -0.0789 -0.9968  0.0738
10427TIP3   OH252771   0.161   6.756  13.255 -0.2758  0.2336  0.0970
10427TIP3    H152772   0.109   6.728  13.331 -0.0059  1.0518  0.5956
10427TIP3    H252773   0.250   6.729  13.276 -0.2471  0.2082 -0.0598
10428TIP3   OH252774   5.507   6.565  12.241 -0.2957  0.0693  0.8153
10428TIP3    H152775   5.522   6.568  12.335  0.4068  1.7657  0.6752
10428TIP3    H252776   5.413   6.554  12.232 -0.6519  2.0130  1.7494
10429TIP3   OH252777   3.185   3.230   5.707 -0.0194 -0.2118 -0.4612
10429TIP3    H152778   3.156   3.274   5.627 -1.6205  0.6796  0.5901
10429TIP3    H252779   3.122   3.160   5.721  0.0832 -0.1886  0.1636
10430TIP3   OH252780   1.887   2.918  15.797 -0.0379  0.2260 -0.6605
10430TIP3    H152781   1.915   2.908  15.888  0.0170 -0.0420 -0.7049
10430TIP3    H252782   1.925   2.842  15.752 -1.5274 -0.5909 -0.5591
10431TIP3   OH252783   6.105   0.776  13.035 -0.2311  0.2437  0.1085
10431TIP3    H152784   6.158   0.698  13.018  0.3943  0.5953  0.4446
10431TIP3    H252785   6.083   0.770  13.128 -0.2512  0.4340  0.1155
10432TIP3   OH252786   5.703   3.559  14.597 -0.9605  0.1277  0.2457
10432TIP3    H152787   5.699   3.473  14.638 -0.2941 -0.2319 -0.4331
10432TIP3    H252788   5.740   3.616  14.665 -0.3819 -0.3488  0.3335
10433TIP3   OH252789   2.859   2.102   3.809  0.1862  0.0006 -0.1278
10433TIP3    H152790   2.794   2.149   3.757  1.9521  2.5858 -0.0583
10433TIP3    H252791   2.815   2.085   3.893 -0.9585  0.1855 -0.6818
10434TIP3   OH252792   0.399   1.522   1.861  0.0688 -0.5938 -0.0147
10434TIP3    H152793   0.423   1.485   1.776  0.8018  0.4086 -0.2451
10434TIP3    H252794   0.458   1.596   1.873 -1.3072  0.4345  0.4967
10435TIP3   OH252795   5.890   2.241   1.857 -0.1503 -0.4239  0.3024
10435TIP3    H152796   5.859   2.332   1.859  0.8799 -0.0984  1.9474
10435TIP3    H252797   5.858   2.207   1.773 -1.2245  1.2110  0.0289
10436TIP3   OH252798   4.818   2.179  14.458 -0.3471  0.6116 -0.5061
10436TIP3    H152799   4.845   2.269  14.439 -0.0090  0.8780  1.1385
10436TIP3    H252800   4.747   2.188  14.522 -1.6571 -0.2371 -1.7992
10437TIP3   OH252801   2.557   6.729   4.863  0.3197  0.1147 -0.1435
10437TIP3    H152802   2.529   6.727   4.955  0.0951  2.5354 -0.1390
10437TIP3    H252803   2.571   6.637   4.841  0.9020 -0.4691  2.4738
10438TIP3   OH252804   3.769   5.475   4.353  0.0202 -0.0178 -0.3368
10438TIP3    H152805   3.840   5.538   4.359  0.3385 -0.2509 -1.5046
10438TIP3    H252806   3.804   5.395   4.393 -0.5746  0.6752  1.6515
10439TIP3   OH252807   6.421   2.769   0.964 -0.2109  0.2393 -0.7404
10439TIP3    H152808   6.360   2.827   1.010  0.2610 -0.4592  0.8245
10439TIP3    H252809   6.495   2.760   1.025  1.5155  1.1539 -2.6326
10440TIP3   OH252810   2.629   5.948  12.447 -0.3740  0.6226  0.0422
10440TIP3    H152811   2.625   5.870  12.503  2.0053 -0.5755 -1.3923
10440TIP3    H252812   2.702   5.998  12.482 -2.3039  2.5872  1.3657
10441TIP3   OH252813   5.591   5.335  13.413 -0.5698  0.9303 -0.2124
10441TIP3    H152814   5.555   5.268  13.471 -2.7800  2.3517  0.1153
10441TIP3    H252815   5.634   5.397  13.472 -1.2618  1.4341 -0.2296
10442TIP3   OH252816   1.434   0.411   0.016  0.0334  0.3643 -0.7466
10442TIP3    H152817   1.467   0.344   0.075  2.0666  2.2163  0.2817
10442TIP3    H252818   1.388   0.473   0.072 -2.3949 -0.4418 -1.7704
10443TIP3   OH252819   5.920   2.797   2.946  0.4747  0.5591  0.3058
10443TIP3    H152820   5.911   2.724   3.007 -1.6913  0.7050  0.1827
10443TIP3    H252821   5.836   2.801   2.901  1.9578  0.5455 -2.6016
10444TIP3   OH252822   0.530   5.122  17.051 -0.8889  0.8077 -0.4810
10444TIP3    H152823   0.561   5.064  16.982  0.3492  1.6423 -0.6526
10444TIP3    H252824   0.610   5.158  17.089 -1.6307  3.9072 -1.6940
10445TIP3   OH252825   4.313   0.289   4.053  0.0521  0.7344 -0.2882
10445TIP3    H152826   4.256   0.260   3.983 -0.7410  1.9848 -0.1782
10445TIP3    H252827   4.330   0.382   4.035  1.5827  0.5378 -0.0032
10446TIP3   OH252828   4.692   0.641   2.909  0.1509  0.0953  0.0160
10446TIP3    H152829   4.597   0.632   2.904 -0.3176  2.0940  4.0202
10446TIP3    H252830   4.722   0.562   2.954  0.0143  0.9301  1.6011
10447TIP3   OH252831   4.888   3.237  16.527 -0.1321  0.3962  0.5354
10447TIP3    H152832   4.922   3.160  16.482  1.1308  0.6466  1.0325
10447TIP3    H252833   4.965   3.276  16.569 -0.6120  2.3738 -0.3644
10448TIP3   OH252834   5.897   2.365  14.782  0.2915  0.0869  0.8665
10448TIP3    H152835   5.860   2.361  14.694 -0.1602 -1.8347  1.1205
10448TIP3    H252836   5.823   2.346  14.840  0.9571 -0.4756  1.5500
10449TIP3   OH252837   0.028   0.157  14.540  0.2272  0.3084 -0.7121
10449TIP3    H152838   0.087   0.224  14.505  0.8853  0.1053 -0.0211
10449TIP3    H252839  -0.038   0.205  14.589 -0.9081  0.6157 -2.5157
10450TIP3   OH252840   0.231   5.246  13.069 -0.0100 -0.4530  0.0704
10450TIP3    H152841   0.251   5.193  12.992 -0.4583 -0.0900 -0.2973
10450TIP3    H252842   0.294   5.318  13.067 -0.8463  0.2711 -0.6720
10451TIP3   OH252843   4.553   4.456   0.442  0.1377 -0.2133  0.7160
10451TIP3    H152844   4.491   4.516   0.401  0.4254  0.7535  1.6788
10451TIP3    H252845   4.539   4.467   0.536  2.7106  1.0614  0.9985
10452TIP3   OH252846   5.490   5.839  16.902  0.7058  0.3091  0.3330
10452TIP3    H152847   5.490   5.932  16.926 -1.6970  0.2929  0.5360
10452TIP3    H252848   5.518   5.794  16.981 -1.7442  0.6395  1.4312
10453TIP3   OH252849   1.646   0.323   3.400  0.0493  0.1519 -0.1335
10453TIP3    H152850   1.671   0.263   3.329  1.9244 -0.1656  0.7764
10453TIP3    H252851   1.728   0.362   3.429 -1.1591  3.3599 -0.8373
10454TIP3   OH252852   5.882   5.652  17.190 -0.3929 -0.2202  0.2563
10454TIP3    H152853   5.831   5.712  17.136 -2.4850 -1.1200  1.2008
10454TIP3    H252854   5.931   5.709  17.249 -1.8007  0.5961  0.6558
10455TIP3   OH252855   6.193   0.659  16.313  0.1914  0.0410 -1.2140
10455TIP3    H152856   6.177   0.615  16.230 -1.4667  1.6131 -1.7341
10455TIP3    H252857   6.110   0.653  16.360  0.3676  1.3447 -0.7159
10456TIP3   OH252858   1.540   1.792  12.894  0.4433  0.3860 -0.5329
10456TIP3    H152859   1.492   1.720  12.853 -0.2561 -0.4036  1.5736
10456TIP3    H252860   1.615   1.807  12.837  0.7841 -2.2667 -0.8345
10457TIP3   OH252861   2.387   6.436  11.513 -0.1504 -0.4527 -0.0574
10457TIP3    H152862   2.344   6.356  11.546 -0.0276 -0.5651 -0.1718
10457TIP3    H252863   2.319   6.481  11.464  0.1374 -1.1435 -1.1226
10458TIP3   OH252864   5.416   6.111  15.205  0.1531  0.5596 -0.4120
10458TIP3    H152865   5.386   6.071  15.123 -0.0219 -0.3254  0.0762
10458TIP3    H252866   5.350   6.177  15.225 -1.1366 -0.9205  0.3124
10459TIP3   OH252867   5.431   6.236   3.369 -0.0711 -0.4802  0.2589
10459TIP3    H152868   5.504   6.178   3.346 -0.2793 -0.3683 -0.7354
10459TIP3    H252869   5.354   6.179   3.369  0.2586 -0.9954  3.2390
10460TIP3   OH252870   3.279   6.322  14.822  0.3705  0.0533  0.1401
10460TIP3    H152871   3.215   6.393  14.829 -0.6927 -0.9188  0.5542
10460TIP3    H252872   3.347   6.345  14.886  0.3403  0.9951 -0.1582
10461TIP3   OH252873   4.717   6.184  13.885  0.6990 -0.7485 -0.2774
10461TIP3    H152874   4.629   6.200  13.853  2.0788 -0.4972 -4.1977
10461TIP3    H252875   4.724   6.089  13.893  0.8800 -0.9471 -2.5300
10462TIP3   OH252876   3.892   6.110   5.866 -0.2671  0.0247 -0.6076
10462TIP3    H152877   3.943   6.109   5.947 -0.5738 -1.6196 -0.4113
10462TIP3    H252878   3.827   6.179   5.879 -2.4617 -2.3944  1.9608
10463TIP3   OH252879   0.328   1.811   0.989  0.6102  0.5292  0.1056
10463TIP3    H152880   0.418   1.779   0.975  0.9410  1.2777  0.5014
10463TIP3    H252881   0.305   1.855   0.907  0.6752  0.5044  0.0737
10464TIP3   OH252882   4.838   2.993  14.195 -0.2141 -0.1426 -0.2795
10464TIP3    H152883   4.868   3.081  14.172 -3.1601  0.5624 -1.7529
10464TIP3    H252884   4.917   2.939  14.193  1.3828  2.1321 -1.0111
10465TIP3   OH252885   1.181   1.294   1.118 -0.6596 -0.8215 -0.3551
10465TIP3    H152886   1.107   1.265   1.172 -2.3211 -0.0250 -2.1248
10465TIP3    H252887   1.218   1.368   1.167 -0.7685 -1.4685  0.7394
10466TIP3   OH252888   2.643   0.270  12.035 -0.2815 -0.0726  0.4389
10466TIP3    H152889   2.554   0.254  12.003 -0.2938 -0.6104  0.7260
10466TIP3    H252890   2.655   0.364  12.027 -0.6178 -0.0896 -0.2728
10467TIP3   OH252891   5.197   3.723   4.007  0.5451 -0.3392 -0.5408
10467TIP3    H152892   5.223   3.668   3.934  0.9486 -2.6043  1.2391
10467TIP3    H252893   5.270   3.784   4.019  0.8295 -0.4891 -1.5127
10468TIP3   OH252894   5.189   0.472   1.686  0.2364  0.0687  0.0977
10468TIP3    H152895   5.239   0.401   1.646  2.2446  1.1538  0.6411
10468TIP3    H252896   5.240   0.498   1.762 -0.8227  1.6510  0.2950
10469TIP3   OH252897   2.869   2.434  14.330 -0.1362 -0.3047  0.3611
10469TIP3    H152898   2.805   2.498  14.298  1.1741  0.8459 -0.0113
10469TIP3    H252899   2.833   2.403  14.413 -1.2616  0.1851  0.0688
10470TIP3   OH252900   4.804   6.666  11.131 -0.2164  0.1681 -0.0631
10470TIP3    H152901   4.860   6.671  11.054 -0.2279 -0.0220 -0.0830
10470TIP3    H252902   4.804   6.755  11.166  1.6574 -0.2250  1.0391
10471TIP3   OH252903   2.976   4.291   2.143  0.1627 -0.2908  0.0746
10471TIP3    H152904   2.889   4.298   2.182 -0.0010  0.2790 -0.3968
10471TIP3    H252905   2.966   4.226   2.074  0.0057  0.1094 -0.2789
10472TIP3   OH252906   3.181   0.969  12.188 -0.2766  0.0559  0.1374
10472TIP3    H152907   3.176   1.065  12.179 -1.9545 -0.1147 -1.0079
10472TIP3    H252908   3.241   0.955  12.261  0.9811  1.9631 -0.4937
10473TIP3   OH252909   2.192   4.974   0.730  0.1569  0.0392  0.2186
10473TIP3    H152910   2.212   5.063   0.701 -0.1374  0.4825  1.3120
10473TIP3    H252911   2.266   4.921   0.701  0.5749  0.7462  0.0019
10474TIP3   OH252912   2.707   1.712  11.774 -0.1747  0.0335 -0.0121
10474TIP3    H152913   2.630   1.744  11.821 -0.5316  1.9004 -1.7869
10474TIP3    H252914   2.674   1.690  11.687  1.0151 -0.6651 -0.2915
10475TIP3   OH252915   2.745   2.477  12.698  0.9905  0.8128  0.0670
10475TIP3    H152916   2.711   2.523  12.621 -1.0464  1.7160  1.4502
10475TIP3    H252917   2.793   2.544  12.746  0.1066  0.8928  0.8484
10476TIP3   OH252918   0.852   5.603   5.278  0.2860  0.2320 -0.8713
10476TIP3    H152919   0.895   5.639   5.200  0.2076  0.2654 -0.8984
10476TIP3    H252920   0.770   5.566   5.245 -0.2897  1.2829 -0.6122
10477TIP3   OH252921   6.709   4.534   3.333 -0.0403 -0.1168 -0.2043
10477TIP3    H152922   6.786   4.555   3.280  0.4352 -1.5318 -0.0947
10477TIP3    H252923   6.741   4.472   3.398 -0.4220  2.1965  2.2800
10478TIP3   OH252924   6.042   3.759   0.869 -0.2997  0.0903  0.6388
10478TIP3    H152925   6.114   3.817   0.842 -1.4879  1.0580 -0.5358
10478TIP3    H252926   5.964   3.798   0.828 -1.5231 -0.8193  2.0825
10479TIP3   OH252927   5.866   2.577   4.617 -0.1064  0.3045  0.0450
10479TIP3    H152928   5.943   2.566   4.560  0.0925  0.6532  0.2455
10479TIP3    H252929   5.812   2.642   4.571 -2.0995 -2.6645 -1.9980
10480TIP3   OH252930   6.616   3.819  11.949 -0.0934 -0.1381 -0.3629
10480TIP3    H152931   6.552   3.754  11.922  1.3582 -1.1456 -1.4796
10480TIP3    H252932   6.595   3.897  11.898 -0.1193 -0.6307 -1.1095
10481TIP3   OH252933   3.150   5.521  11.603 -0.3114 -0.1321  0.2224
10481TIP3    H152934   3.243   5.529  11.623 -0.4516  1.6240  0.2515
10481TIP3    H252935   3.107   5.517  11.689 -0.4846  2.0614  0.2644
10482TIP3   OH252936   6.342   4.121   3.330  0.1585 -0.1924  0.1850
10482TIP3    H152937   6.300   4.092   3.411  2.1250 -1.2299  0.8716
10482TIP3    H252938   6.270   4.141   3.271 -1.3151  0.7943  2.2643
10483TIP3   OH252939   2.133   5.655   2.407 -0.4068  0.0542 -0.5039
10483TIP3    H152940   2.139   5.652   2.503 -1.8993  0.8623 -0.3773
10483TIP3    H252941   2.155   5.745   2.385  0.8540 -0.3562 -1.0214
10484TIP3   OH252942   3.942   1.650  15.166  0.2259 -0.0633 -0.0278
10484TIP3    H152943   3.870   1.597  15.199 -0.4530  1.0414  0.2800
10484TIP3    H252944   3.931   1.651  15.071  0.8310 -1.3032 -0.1224
10485TIP3   OH252945   5.668   6.645  11.334  0.3865 -0.7206  0.1539
10485TIP3    H152946   5.584   6.690  11.327  0.1206 -1.4383 -1.1939
10485TIP3    H252947   5.682   6.636  11.429 -0.5791  0.2680  0.4001
10486TIP3   OH252948   1.203   0.701  16.396  0.0158 -0.0202  0.3631
10486TIP3    H152949   1.260   0.715  16.472  0.7616 -0.4673 -0.1030
10486TIP3    H252950   1.221   0.611  16.369 -1.5266 -0.4406  0.7027
10487TIP3   OH252951   3.652   4.243   5.850  0.3758 -0.1812  0.0931
10487TIP3    H152952   3.601   4.177   5.802  0.1728  0.6742 -0.8881
10487TIP3    H252953   3.743   4.220   5.833  0.3305 -1.5057  1.5577
10488TIP3   OH252954   3.065   1.506  12.255 -0.0618 -0.1480 -0.1568
10488TIP3    H152955   3.119   1.575  12.217  0.6561  0.2185  1.5138
10488TIP3    H252956   2.978   1.521  12.218  0.1200  1.5458  0.0637
10489TIP3   OH252957   4.531   2.155   4.559  0.1022 -0.4589  0.2503
10489TIP3    H152958   4.457   2.158   4.619  0.6976  1.4272  0.8932
10489TIP3    H252959   4.505   2.212   4.486  1.7760  1.9510  1.4874
10490TIP3   OH252960   5.010   3.039  13.202  0.0515  0.5234  1.0349
10490TIP3    H152961   4.923   2.999  13.204 -0.3131  1.3083  1.3531
10490TIP3    H252962   4.997   3.126  13.239  0.9414  0.7213  0.9045
10491TIP3   OH252963   4.831   3.465   1.154 -0.2815 -0.0985 -0.0070
10491TIP3    H152964   4.883   3.484   1.076 -0.1449 -0.7068 -0.0677
10491TIP3    H252965   4.740   3.464   1.122 -0.2262 -0.3385 -0.1555
10492TIP3   OH252966   3.859   6.318  15.448 -0.0113 -0.3865  0.0901
10492TIP3    H152967   3.892   6.406  15.430 -0.8126 -0.1713 -0.3084
10492TIP3    H252968   3.931   6.276  15.496  0.8270  0.1098 -0.7072
10493TIP3   OH252969   0.445   0.266  12.784 -0.5773 -0.6974  0.5472
10493TIP3    H152970   0.410   0.177  12.789 -0.5937 -0.8905 -2.1996
10493TIP3    H252971   0.376   0.316  12.739  0.8871 -0.1362 -1.1201
10494TIP3   OH252972   5.318   1.465  12.925 -0.7399  0.1857  0.4081
10494TIP3    H152973   5.381   1.421  12.981 -0.1038  1.4888  0.7289
10494TIP3    H252974   5.269   1.394  12.884 -0.7066 -0.7929  2.0273
10495TIP3   OH252975   1.500   3.313   4.001 -0.2663 -0.0087 -0.2373
10495TIP3    H152976   1.479   3.290   4.091 -1.6768 -0.2475 -0.6095
10495TIP3    H252977   1.585   3.356   4.006  0.5443 -1.7054  0.9684
10496TIP3   OH252978   6.107   2.554   4.471  0.5847  0.0832  0.5871
10496TIP3    H152979   6.150   2.503   4.402  0.5797  0.7728  0.0757
10496TIP3    H252980   6.136   2.644   4.456  0.2734  0.2912  1.2500
10497TIP3   OH252981   3.094   3.112   5.175  0.2057 -0.0153  0.7894
10497TIP3    H152982   3.109   3.137   5.267  0.6254 -0.8871  0.9609
10497TIP3    H252983   3.182   3.100   5.139  0.0990  1.9664 -0.2024
10498TIP3   OH252984   2.249   6.342   5.353 -0.1261 -0.0310 -0.0069
10498TIP3    H152985   2.183   6.306   5.293  0.9279 -1.7438 -0.1732
10498TIP3    H252986   2.206   6.343   5.438 -0.3271 -1.3143 -0.0817
10499TIP3   OH252987   5.718   3.322   2.746 -0.5280  0.6093  0.0729
10499TIP3    H152988   5.814   3.327   2.749 -0.2948 -0.7583 -3.0653
10499TIP3    H252989   5.692   3.401   2.700 -0.8192  0.5484  0.1363
10500TIP3   OH252990   6.330   5.461  11.464 -0.0101  0.4021  0.0818
10500TIP3    H152991   6.235   5.447  11.464 -0.2791  2.1009 -0.9963
10500TIP3    H252992   6.354   5.467  11.371  0.6089  3.2320  0.3610
10501TIP3   OH252993   2.514   0.608   4.042 -0.0096  0.4825  0.4527
10501TIP3    H152994   2.535   0.649   4.126 -0.9944  1.3727  0.2856
10501TIP3    H252995   2.513   0.514   4.060 -0.6876  0.6947  1.5527
10502TIP3   OH252996   1.643   2.136   6.306  0.7006 -0.3838  0.1145
10502TIP3    H152997   1.718   2.187   6.278  2.2961 -2.4155  0.5312
10502TIP3    H252998   1.623   2.079   6.231 -1.5591  1.3442 -0.6523
10503TIP3   OH252999   4.387   6.357  16.943  0.6794  0.1907 -0.0048
10503TIP3    H153000   4.398   6.407  16.862 -0.3440  1.7027  0.7768
10503TIP3    H253001   4.475   6.355  16.981  1.2890 -1.0175 -1.4079
10504TIP3   OH253002   5.344   5.502   0.547  0.1597 -0.0609  0.1536
10504TIP3    H153003   5.342   5.590   0.584 -2.2493 -0.2113  0.4825
10504TIP3    H253004   5.396   5.451   0.609  1.6382  1.1323 -0.0860
10505TIP3   OH253005   0.782   3.857   0.995 -0.1082 -0.2454  0.1114
10505TIP3    H153006   0.788   3.813   0.910 -1.1131  0.2470 -0.2162
10505TIP3    H253007   0.774   3.950   0.974  2.0278  0.1292  0.8065
10506TIP3   OH253008   5.047   2.933   0.544  0.2922 -0.9228 -0.1267
10506TIP3    H153009   5.122   2.876   0.561  0.5692 -0.2408  0.9522
10506TIP3    H253010   5.065   2.973   0.460  1.8160  0.3144  0.7690
10507TIP3   OH253011   5.525   6.005  16.011  0.3850  0.5473  0.0557
10507TIP3    H153012   5.556   5.997  16.101 -1.5956  1.5939  0.8551
10507TIP3    H253013   5.545   6.095  15.986 -2.3051  1.3846  0.7415
10508TIP3   OH253014   4.419   3.762  14.148  0.3318  0.4669 -0.6615
10508TIP3    H153015   4.389   3.678  14.113 -0.1288  0.0367  0.7663
10508TIP3    H253016   4.501   3.741  14.194  1.1987  1.1163 -1.8761
10509TIP3   OH253017   5.830   6.066   5.564 -0.3448  0.7732 -0.4686
10509TIP3    H153018   5.822   6.018   5.481  0.7447 -0.1768 -0.0410
10509TIP3    H253019   5.741   6.071   5.597 -0.4918 -0.9462 -0.5470
10510TIP3   OH253020   0.593   3.805   0.343  0.3721  0.4105 -0.2577
10510TIP3    H153021   0.604   3.839   0.254  1.1297  0.4210 -0.1654
10510TIP3    H253022   0.504   3.830   0.367  0.6289  1.6103 -0.4976
10511TIP3   OH253023   6.340   2.137   0.648 -0.3087  0.2416  0.6981
10511TIP3    H153024   6.355   2.120   0.741  0.0489  0.7539  0.7309
10511TIP3    H253025   6.268   2.201   0.647 -0.3592  0.1842  0.6182
10512TIP3   OH253026   3.315   4.096  13.154  0.5870  0.1977  0.1451
10512TIP3    H153027   3.348   4.021  13.105  2.2978  0.9626  0.0996
10512TIP3    H253028   3.381   4.164  13.141  0.5481  0.7474  2.6630
10513TIP3   OH253029   0.363   2.353  15.305 -0.1677  0.6499 -0.3105
10513TIP3    H153030   0.422   2.425  15.282  1.8059 -0.2117  1.9409
10513TIP3    H253031   0.314   2.387  15.380  0.3448 -0.1402  0.3788
10514TIP3   OH253032   6.001   4.015   1.135 -0.1157  0.6000 -0.1940
10514TIP3    H153033   6.065   4.075   1.174  1.5673  0.0305 -2.0053
10514TIP3    H253034   6.053   3.953   1.085 -1.6064 -3.9536  3.5443
10515TIP3   OH253035   5.750   3.659  16.675 -0.7066  0.3131 -0.0623
10515TIP3    H153036   5.698   3.644  16.754 -0.2726 -0.1031  0.1571
10515TIP3    H253037   5.740   3.752  16.656 -1.7536  0.1757 -0.1915
10516TIP3   OH253038   1.279   6.015  15.866  0.1525  0.1507 -0.7248
10516TIP3    H153039   1.231   6.057  15.794 -1.4750 -0.9441 -0.3033
10516TIP3    H253040   1.351   5.970  15.824  0.5275  1.3912 -1.4350
10517TIP3   OH253041   0.474   0.493  12.485 -0.0858 -0.4607 -0.2550
10517TIP3    H153042   0.423   0.477  12.564 -0.3768 -0.2496 -0.3980
10517TIP3    H253043   0.440   0.429  12.422  0.1181 -0.6023 -0.2220
10518TIP3   OH253044   0.396   6.210  13.569 -0.1026 -0.6646 -0.1633
10518TIP3    H153045   0.372   6.166  13.650 -1.0984  1.5552  0.7786
10518TIP3    H253046   0.323   6.191  13.509 -1.7379  1.6444  1.0113
10519TIP3   OH253047   4.201   4.154  12.754  0.1029 -0.2132 -0.2768
10519TIP3    H153048   4.196   4.201  12.671 -1.0909  0.4300  0.1467
10519TIP3    H253049   4.110   4.139  12.779  0.4311  0.3343  1.3246
10520TIP3   OH253050   2.162   1.910   5.870  0.2768  0.3484  0.9182
10520TIP3    H153051   2.152   1.820   5.903 -0.0556  0.3867  0.9287
10520TIP3    H253052   2.221   1.952   5.933 -0.8876  0.6185  1.8751
10521TIP3   OH253053   6.506   0.182  16.917  0.5639 -0.0633 -0.0641
10521TIP3    H153054   6.570   0.198  16.848  0.5243 -0.5214 -0.2126
10521TIP3    H253055   6.447   0.257  16.913  0.0909 -0.4807 -1.0633
10522TIP3   OH253056   5.138   0.160  15.757 -0.0126  0.6755 -0.2336
10522TIP3    H153057   5.126   0.176  15.663 -0.6430 -1.0877 -0.4788
10522TIP3    H253058   5.049   0.151  15.790  0.2665 -1.0545  0.0882
10523TIP3   OH253059   5.442   3.326  16.300 -0.2593  0.5370 -0.5632
10523TIP3    H153060   5.398   3.330  16.385 -0.8571  0.1420 -0.8466
10523TIP3    H253061   5.377   3.357  16.237 -1.2718 -2.9786 -1.3842
10524TIP3   OH253062   3.896   3.494   3.067 -0.4069  0.0137 -0.5201
10524TIP3    H153063   3.880   3.546   2.989 -1.2199 -0.5244 -0.7145
10524TIP3    H253064   3.990   3.507   3.085 -0.5894  1.4911 -0.5782
10525TIP3   OH253065   4.818   5.016   5.812  0.0801  0.4297  0.0530
10525TIP3    H153066   4.825   5.032   5.906  1.5077  2.4161 -0.3516
10525TIP3    H253067   4.822   5.103   5.773 -0.2540 -0.3961 -1.8708
10526TIP3   OH253068   1.278   6.563   4.758 -0.1752 -0.0347  0.3414
10526TIP3    H153069   1.282   6.518   4.674  1.4278  0.5935  0.0668
10526TIP3    H253070   1.185   6.560   4.782 -0.4823 -1.1789 -0.9110
10527TIP3   OH253071   0.055   1.261  15.681  0.7836 -0.4299 -0.5820
10527TIP3    H153072   0.068   1.353  15.657 -1.6608  0.3227  0.8223
10527TIP3    H253073   0.115   1.247  15.755  0.8498  0.1495 -0.5251
10528TIP3   OH253074   0.895   1.354   5.007 -0.3547 -0.2396  0.2438
10528TIP3    H153075   0.825   1.377   4.945 -0.5958 -1.6067 -0.0095
10528TIP3    H253076   0.849   1.332   5.088 -0.1574 -0.2004  0.3650
10529TIP3   OH253077   3.327   2.664   5.358 -0.2100  0.2881 -0.0194
10529TIP3    H153078   3.371   2.714   5.427 -0.6819  2.0109 -0.9286
10529TIP3    H253079   3.236   2.692   5.364 -0.1466  0.8804 -1.6978
10530TIP3   OH253080   1.536   4.314  14.671 -0.2652 -0.2003  0.1161
10530TIP3    H153081   1.587   4.234  14.659  1.5606  0.9809 -0.2900
10530TIP3    H253082   1.550   4.338  14.763  0.5231  0.5140 -0.1807
10531TIP3   OH253083   0.742   0.497   2.709  0.2189 -0.0358  0.1347
10531TIP3    H153084   0.692   0.430   2.755  1.1133 -1.9198 -1.5117
10531TIP3    H253085   0.677   0.547   2.660 -0.3278 -0.5208  0.3685
10532TIP3   OH253086   0.403   1.612   2.243  0.2174 -0.0288  0.0218
10532TIP3    H153087   0.483   1.625   2.294  0.0657 -0.4651  0.3817
10532TIP3    H253088   0.352   1.550   2.295 -1.2368  1.7731  0.8064
10533TIP3   OH253089   0.375   6.137  12.227  0.7316 -0.2510  0.2752
10533TIP3    H153090   0.305   6.095  12.277  1.4872 -2.0872 -0.1477
10533TIP3    H253091   0.359   6.109  12.137  0.5469  1.3988 -0.2175
10534TIP3   OH253092   5.558   4.643   1.484  0.7041  0.1080 -0.4576
10534TIP3    H153093   5.532   4.551   1.490 -0.5259  0.3889 -1.3763
10534TIP3    H253094   5.631   4.643   1.423  0.7694 -0.2669 -0.3829
10535TIP3   OH253095   5.223   0.003   2.143 -0.1148 -0.5418  0.1865
10535TIP3    H153096   5.157  -0.033   2.203 -1.4543  0.4531 -0.6687
10535TIP3    H253097   5.280  -0.071   2.123 -1.6072 -1.6964  0.0890
10536TIP3   OH253098   0.738   3.455   0.530 -0.0641 -0.3357 -0.6678
10536TIP3    H153099   0.671   3.512   0.569 -2.2415 -2.4931 -1.1044
10536TIP3    H253100   0.798   3.437   0.602 -0.8975  0.3087  0.2083
10537TIP3   OH253101   3.930   3.637   4.625 -0.1228  0.1344 -0.2325
10537TIP3    H153102   3.992   3.696   4.582 -1.5612  1.2343 -0.8491
10537TIP3    H253103   3.885   3.692   4.689 -0.8161 -0.5286 -0.1426
10538TIP3   OH253104   4.915   6.062  16.309 -0.5109 -0.8696  0.1801
10538TIP3    H153105   4.969   6.054  16.387 -0.5068 -2.3059  0.0259
10538TIP3    H253106   4.868   6.145  16.322  1.4900  0.2698  0.4375
10539TIP3   OH253107   3.291   3.084  12.064 -0.0639 -0.7869 -0.2831
10539TIP3    H153108   3.366   3.088  12.005 -1.3918  0.1072 -1.9645
10539TIP3    H253109   3.319   3.027  12.135  2.0126 -0.8802 -1.1476
10540TIP3   OH253110   3.867   4.617   3.905 -0.5716  0.3274 -0.5428
10540TIP3    H153111   3.784   4.646   3.943 -0.2391  0.9618 -0.2816
10540TIP3    H253112   3.888   4.684   3.840 -0.9796 -0.5925 -1.6362
10541TIP3   OH253113   1.266   4.656   4.467  0.4402  0.1941 -0.2106
10541TIP3    H153114   1.213   4.700   4.400  0.1621  1.2509  0.6975
10541TIP3    H253115   1.343   4.712   4.477  2.1093 -1.6926 -2.0187
10542TIP3   OH253116   4.738   1.386  17.128 -0.2692 -0.5933  0.2644
10542TIP3    H153117   4.779   1.465  17.093  0.5420 -1.0012  0.2904
10542TIP3    H253118   4.644   1.406  17.128 -0.1216  0.1229 -0.3363
10543TIP3   OH253119   4.703   6.490   3.765  0.4716  0.1287 -0.4738
10543TIP3    H153120   4.728   6.575   3.801  0.9764  0.4063 -1.4840
10543TIP3    H253121   4.613   6.503   3.734  0.2327  0.0437  0.1814
10544TIP3   OH253122   0.128   4.000   0.022  0.0599 -0.1043 -0.2231
10544TIP3    H153123   0.062   4.052   0.067 -0.3908  0.2982 -1.3272
10544TIP3    H253124   0.211   4.043   0.044  0.0604 -1.0488  1.7683
10545TIP3   OH253125   6.667   3.039   5.662  0.2837 -1.0161 -0.3595
10545TIP3    H153126   6.600   2.999   5.607 -0.5774 -0.1442  0.0399
10545TIP3    H253127   6.623   3.059   5.744  0.3965  1.6140 -0.8785
10546TIP3   OH253128   1.904   0.184   6.729 -0.3123  0.5971 -0.6574
10546TIP3    H153129   1.830   0.208   6.785  0.7164 -1.8121  1.8426
10546TIP3    H253130   1.981   0.202   6.782  0.7093 -1.3524 -1.4373
10547TIP3   OH253131   6.644   3.433  16.792 -0.4045 -0.3836  0.5408
10547TIP3    H153132   6.583   3.375  16.837 -0.9699 -0.7647 -0.6791
10547TIP3    H253133   6.723   3.432  16.846 -0.5677 -1.9418  0.7673
10548TIP3   OH253134   4.725   1.928   2.297 -0.1101  0.0288 -0.0901
10548TIP3    H153135   4.664   1.890   2.360  1.5166  1.4686  2.4570
10548TIP3    H253136   4.809   1.888   2.319 -0.2918 -3.0692 -4.5163
10549TIP3   OH253137   5.725   1.884   0.215 -0.0876  0.5289  0.0838
10549TIP3    H153138   5.663   1.940   0.262  0.7201  1.2634  0.2696
10549TIP3    H253139   5.723   1.801   0.263  2.7487  2.1027  3.1164
10550TIP3   OH253140   0.627   5.592   4.142  0.0951  0.6560 -0.7639
10550TIP3    H153141   0.654   5.664   4.085 -0.0662  1.2461 -0.0995
10550TIP3    H253142   0.641   5.625   4.230  0.5114 -0.3190 -0.4596
10551TIP3   OH253143   5.219   1.838   4.087  0.0972  0.0946  0.2732
10551TIP3    H153144   5.160   1.785   4.140  0.1577  0.3903  0.6418
10551TIP3    H253145   5.172   1.920   4.075  0.0347 -0.0178 -0.2315
10552TIP3   OH253146   2.314   2.517   4.965 -0.3024  0.3694 -0.0112
10552TIP3    H153147   2.392   2.561   4.999 -1.5878  1.7311  1.2624
10552TIP3    H253148   2.305   2.552   4.876  0.3660  0.4486 -0.0518
10553TIP3   OH253149   0.480   0.737   1.709 -0.0098 -0.4835 -0.6254
10553TIP3    H153150   0.414   0.749   1.778  0.8856  0.9509 -0.0014
10553TIP3    H253151   0.563   0.731   1.756  0.8121  2.2021 -1.6355
10554TIP3   OH253152   1.292   0.945   2.309 -0.3035  0.4139  0.3101
10554TIP3    H153153   1.338   0.915   2.230 -2.1924 -0.4418 -0.4977
10554TIP3    H253154   1.353   1.005   2.351  1.7560 -1.0737 -0.4673
10555TIP3   OH253155   5.252   6.586  17.069 -0.2926  0.0833  0.3590
10555TIP3    H153156   5.179   6.558  17.013 -0.3099 -1.1085  0.9724
10555TIP3    H253157   5.248   6.528  17.145  1.4122 -0.1272  0.3095
10556TIP3   OH253158   0.318   6.433  14.514  0.2407 -0.6599 -0.4652
10556TIP3    H153159   0.271   6.412  14.433 -2.0407  2.5977 -0.0738
10556TIP3    H253160   0.395   6.482  14.485  0.7618 -1.6470 -0.7837
10557TIP3   OH253161   5.657   6.512   4.790 -0.1333  0.0010 -0.5248
10557TIP3    H153162   5.751   6.500   4.801  0.2313  0.2529 -2.9544
10557TIP3    H253163   5.618   6.436   4.832  1.0971  0.2892  1.1918
10558TIP3   OH253164   4.300   4.198   2.190 -0.1266  0.7858 -0.6640
10558TIP3    H153165   4.270   4.176   2.102 -0.7159 -2.8744  0.3829
10558TIP3    H253166   4.395   4.208   2.181 -0.1381  0.0227 -1.6360
10559TIP3   OH253167   0.061   0.776  13.179 -0.1409 -0.6120 -0.0381
10559TIP3    H153168   0.127   0.833  13.219 -1.3934 -0.3636  1.7548
10559TIP3    H253169  -0.021   0.825  13.189 -1.1286 -2.4172  0.9151
10560TIP3   OH253170   4.213   0.893  15.870 -0.0550 -0.4556 -0.0588
10560TIP3    H153171   4.224   0.917  15.778  1.5209  1.2780  0.5302
10560TIP3    H253172   4.290   0.840  15.890  0.3106  0.2930  0.5787
10561TIP3   OH253173   2.495   5.857   4.353 -0.7117 -0.2240 -0.1905
10561TIP3    H153174   2.539   5.918   4.294  0.0246  0.7925  1.3452
10561TIP3    H253175   2.503   5.772   4.311  2.9712 -0.1099  0.1055
10562TIP3   OH253176   0.829   1.022  16.590 -0.0841  0.6798  0.6325
10562TIP3    H153177   0.842   0.971  16.670 -0.2803  0.8632  0.7823
10562TIP3    H253178   0.839   0.959  16.519 -0.3255  0.4312  0.8182
10563TIP3   OH253179   2.393   5.597  15.877  0.0112 -0.2211  0.0410
10563TIP3    H153180   2.392   5.667  15.812 -0.1484  0.1256  0.4174
10563TIP3    H253181   2.419   5.639  15.958  0.6646 -0.7466  0.1072
10564TIP3   OH253182   4.498   0.878  15.392  0.3086  0.8436  0.0028
10564TIP3    H153183   4.547   0.866  15.310 -0.8760 -0.2298 -0.5665
10564TIP3    H253184   4.443   0.955  15.375  0.8377  1.2636  0.1776
10565TIP3   OH253185   3.992   1.547  10.458 -0.5267  0.3640  0.8937
10565TIP3    H153186   3.950   1.468  10.492  2.0900 -0.7589  1.6958
10565TIP3    H253187   4.043   1.516  10.383 -0.9572  1.6532  0.0568
10566TIP3   OH253188   5.265   3.873   0.183 -0.5075 -0.1525 -0.1715
10566TIP3    H153189   5.227   3.939   0.125 -1.6381 -0.6136  0.0241
10566TIP3    H253190   5.319   3.922   0.245  0.9880  0.3250 -1.8014
10567TIP3   OH253191   2.327   0.809   2.993 -0.0179  0.8235  0.1736
10567TIP3    H153192   2.398   0.767   3.042  0.0141  1.3889  0.6188
10567TIP3    H253193   2.367   0.888   2.957 -0.4432  1.1797  0.4846
10568TIP3   OH253194   6.479   6.444  12.105  0.4241  0.8854 -0.3153
10568TIP3    H153195   6.449   6.411  12.190  0.3573  1.2733 -0.1861
10568TIP3    H253196   6.545   6.510  12.126  0.8091  0.5901 -0.5823
10569TIP3   OH253197   1.357   6.158   3.031  0.0761 -0.2388  0.2141
10569TIP3    H153198   1.268   6.122   3.028  0.1209 -0.7719  3.4444
10569TIP3    H253199   1.345   6.251   3.010 -0.9469 -0.7269 -1.4585
10570TIP3   OH253200   3.444   3.065   4.034 -0.0615 -0.1977 -0.5434
10570TIP3    H153201   3.367   3.123   4.038  0.9190  1.0174  1.5922
10570TIP3    H253202   3.496   3.089   4.110  1.4870 -2.3875 -0.8614
10571TIP3   OH253203   4.033   1.097  15.413 -0.6661  0.2070  0.1455
10571TIP3    H153204   4.003   1.076  15.325  0.9534 -0.2850 -0.3075
10571TIP3    H253205   4.040   1.192  15.415  0.4515  0.1465 -0.6566
10572TIP3   OH253206   4.901   6.095  12.750 -0.0203 -0.1227 -0.0774
10572TIP3    H153207   4.863   6.017  12.709  0.1871 -0.3245  0.1170
10572TIP3    H253208   4.866   6.095  12.839  0.6035 -0.4208  0.1656
10573TIP3   OH253209   1.386   1.145  16.418  0.1751 -1.2844  0.2824
10573TIP3    H153210   1.319   1.103  16.472 -0.0840  0.9655  1.7858
10573TIP3    H253211   1.350   1.146  16.330 -2.1419  0.6272  1.2184
10574TIP3   OH253212   1.874   0.136  13.425 -0.0476 -0.3834  0.6871
10574TIP3    H153213   1.905   0.204  13.485  0.7889  1.5333 -1.8413
10574TIP3    H253214   1.954   0.103  13.383 -0.8121  0.0134 -1.1295
10575TIP3   OH253215   5.411   3.453   2.179 -0.2853 -0.4961  0.1449
10575TIP3    H153216   5.336   3.500   2.215  0.6825 -0.3235  1.9775
10575TIP3    H253217   5.453   3.413   2.255  4.1044  3.1572 -0.1296
10576TIP3   OH253218   0.382   2.602   0.098  0.1201 -0.1583  0.1001
10576TIP3    H153219   0.425   2.595   0.012 -0.3546 -0.6325 -0.0978
10576TIP3    H253220   0.381   2.696   0.116  0.4546 -0.0726 -0.2938
10577TIP3   OH253221   3.318   5.629   6.654  0.4071  0.2277 -0.1924
10577TIP3    H153222   3.302   5.545   6.697 -0.0096  0.7972  0.7815
10577TIP3    H253223   3.409   5.649   6.675 -1.0131  2.6413  4.2787
10578TIP3   OH253224   0.859   1.081  15.916  0.0705  0.0235  0.1962
10578TIP3    H153225   0.768   1.073  15.944  0.4883 -1.2238  1.2267
10578TIP3    H253226   0.891   1.160  15.960 -0.3438  0.1422  0.2862
10579TIP3   OH253227   4.487   5.485  13.519 -0.7367 -0.0600  0.2585
10579TIP3    H153228   4.549   5.554  13.496 -0.4545  0.1481  1.6299
10579TIP3    H253229   4.515   5.410  13.466 -0.8118  0.7563 -0.9455
10580TIP3   OH253230   4.404   5.467  16.118  1.5068 -0.3033  0.3032
10580TIP3    H153231   4.390   5.375  16.096  2.2751 -0.5033  0.6243
10580TIP3    H253232   4.370   5.515  16.043 -0.3260 -0.7827  0.8011
10581TIP3   OH253233   6.303   4.890   0.664 -0.7136 -0.2140 -0.0120
10581TIP3    H153234   6.354   4.903   0.585 -0.5015 -0.4154  0.0910
10581TIP3    H253235   6.232   4.832   0.638  0.1164 -1.3590  0.2566
10582TIP3   OH253236   5.214   4.144  16.669  0.1120  0.6715 -0.6657
10582TIP3    H153237   5.159   4.212  16.630 -0.6837  0.2348 -0.3061
10582TIP3    H253238   5.155   4.071  16.685  1.0310 -0.2576 -1.3986
10583TIP3   OH253239   5.425   1.949  15.238  0.4891  0.2977  0.0003
10583TIP3    H153240   5.403   1.980  15.326 -1.8743  0.0013 -0.4516
10583TIP3    H253241   5.487   1.878  15.253 -1.3144 -0.9995  1.5524
10584TIP3   OH253242   3.778   1.771  14.845 -0.0304 -0.4027  0.0167
10584TIP3    H153243   3.858   1.742  14.801 -1.1147 -0.4098 -1.9961
10584TIP3    H253244   3.803   1.854  14.887  1.1109 -0.5621 -0.3196
10585TIP3   OH253245   5.753   6.027   3.515  0.2913 -0.2743 -0.1104
10585TIP3    H153246   5.704   6.012   3.434 -2.3414 -0.4587  1.4595
10585TIP3    H253247   5.829   6.079   3.488  0.1742 -1.4478 -2.8863
10586TIP3   OH253248   2.583   4.888  16.960  0.2845  0.0097 -0.2501
10586TIP3    H153249   2.609   4.868  16.871  0.9816  0.3032 -0.1071
10586TIP3    H253250   2.597   4.806  17.008 -1.1278 -0.4756 -0.6353
10587TIP3   OH253251   5.779   2.865   3.808  0.6164 -0.0814  0.3720
10587TIP3    H153252   5.836   2.915   3.749  0.7682  0.3790  0.8994
10587TIP3    H253253   5.804   2.895   3.896  0.1375 -0.4886  0.6466
10588TIP3   OH253254   1.897   1.837  17.184  0.8905  0.5523 -0.4341
10588TIP3    H153255   1.805   1.810  17.177  0.7975  0.6049  0.5704
10588TIP3    H253256   1.921   1.863  17.095  0.6385 -1.7064 -1.1987
10589TIP3   OH253257   4.551   5.138   1.025 -0.0069 -0.7780 -0.2063
10589TIP3    H153258   4.503   5.059   0.999 -1.0081 -0.3967  0.4292
10589TIP3    H253259   4.603   5.161   0.948  0.1408 -1.9420 -0.4646
10590TIP3   OH253260   2.716   6.235   1.771 -0.3120  0.6552 -0.5023
10590TIP3    H153261   2.725   6.297   1.843  0.2268 -0.1422  0.1225
10590TIP3    H253262   2.628   6.197   1.782  0.5950 -1.0800  1.0506
10591TIP3   OH253263   0.706   4.370  11.492 -0.2497 -1.0950  0.4399
10591TIP3    H153264   0.756   4.336  11.418 -1.2787 -0.1831 -0.6842
10591TIP3    H253265   0.766   4.364  11.566  1.3633 -0.4599 -0.7922
10592TIP3   OH253266   1.111   4.650  10.989  0.0593 -0.0706  0.0212
10592TIP3    H153267   1.096   4.732  10.942 -3.1703 -0.7177 -0.1548
10592TIP3    H253268   1.153   4.593  10.924  1.9792  1.2615  0.0387
10593TIP3   OH253269   6.762   2.323   2.851  0.3941  0.0100 -0.1751
10593TIP3    H153270   6.772   2.250   2.790 -0.2884  0.0995 -0.3990
10593TIP3    H253271   6.713   2.286   2.924  0.9134 -0.0085  0.1636
10594TIP3   OH253272   1.829   2.609  12.976 -0.2396 -0.7100 -0.7163
10594TIP3    H153273   1.820   2.693  13.022 -1.1197 -0.0410 -2.0806
10594TIP3    H253274   1.882   2.630  12.899 -0.7229 -1.3376 -1.2188
10595TIP3   OH253275   3.481   5.687  16.530 -0.2007  0.2744 -0.1290
10595TIP3    H153276   3.521   5.658  16.448 -1.3133  2.1671 -1.3849
10595TIP3    H253277   3.402   5.634  16.539  0.4526 -0.6433  0.2616
10596TIP3   OH253278   5.530   4.251  10.613  0.5963  0.4182  0.3184
10596TIP3    H153279   5.475   4.210  10.546  0.4431  0.6877  0.2814
10596TIP3    H253280   5.469   4.303  10.666  0.4349 -1.1132  1.6950
10597TIP3   OH253281   5.385   5.072   5.197  0.4003 -0.3067 -0.4401
10597TIP3    H153282   5.426   5.109   5.275 -0.8638 -0.9441  0.5659
10597TIP3    H253283   5.432   5.110   5.123  0.6933  1.4092  0.6198
10598TIP3   OH253284   6.280   2.553  12.636 -0.2275 -0.7163  0.2840
10598TIP3    H153285   6.374   2.565  12.647 -0.4354  0.8669  0.4445
10598TIP3    H253286   6.247   2.639  12.610 -1.6330 -1.2421  0.2545
10599TIP3   OH253287   0.234   5.564   1.215  0.2644  0.1757  0.0219
10599TIP3    H153288   0.311   5.510   1.196 -0.1312 -0.3946  0.0447
10599TIP3    H253289   0.161   5.516   1.176 -0.4866 -0.7455  2.5065
10600TIP3   OH253290   2.717   3.643   3.461  0.5832 -0.0567 -0.0664
10600TIP3    H153291   2.766   3.591   3.525  0.5675  0.2312  0.1782
10600TIP3    H253292   2.775   3.649   3.386  1.0668  0.5947  0.3626
10601TIP3   OH253293   1.286   0.321  17.059 -0.6659 -0.0214 -0.0611
10601TIP3    H153294   1.292   0.413  17.035  0.1530  0.3403  1.4429
10601TIP3    H253295   1.321   0.317  17.148  0.0500 -1.9143 -0.3915
10602TIP3   OH253296   1.358   1.674  13.784  0.6318 -0.0758  0.0365
10602TIP3    H153297   1.349   1.769  13.782  1.2702 -0.0256 -1.8861
10602TIP3    H253298   1.322   1.645  13.700  0.1895 -1.5552  0.7237
10603TIP3   OH253299   4.860   5.688  17.074  0.0797  0.0552 -0.0053
10603TIP3    H153300   4.781   5.729  17.107  0.2328  0.0093  0.4224
10603TIP3    H253301   4.877   5.731  16.990  0.2311  0.8551  0.4330
10604TIP3   OH253302   4.328   0.863   3.758 -0.2231  0.2787 -0.5145
10604TIP3    H153303   4.262   0.799   3.784 -0.1813  0.7830  0.8645
10604TIP3    H253304   4.378   0.879   3.838  0.0523  1.7000 -0.9707
10605TIP3   OH253305   3.037   4.656  11.065 -0.3983 -0.1950  0.4216
10605TIP3    H153306   2.969   4.610  11.016  0.8066 -2.6557  0.9838
10605TIP3    H253307   3.118   4.609  11.044  0.9540  1.8577  0.8034
10606TIP3   OH253308   2.752   5.664   6.616 -0.2827  0.2969 -0.2061
10606TIP3    H153309   2.663   5.699   6.622 -0.3304  0.4959 -1.7832
10606TIP3    H253310   2.748   5.579   6.660 -1.6120 -0.3423 -1.5147
10607TIP3   OH253311   6.804   0.322   0.629  0.3335 -0.2028  0.3728
10607TIP3    H153312   6.887   0.316   0.677  0.4872  1.6622  0.4107
10607TIP3    H253313   6.830   0.349   0.541 -0.2566  0.9610  0.5468
10608TIP3   OH253314   4.108   4.234  13.487  0.1214  0.0594 -0.2591
10608TIP3    H153315   4.179   4.233  13.423  1.2060 -0.6511  0.9297
10608TIP3    H253316   4.036   4.188  13.443  1.1024 -1.0965 -0.6941
10609TIP3   OH253317   6.382   5.733   5.191  0.6030  0.1124 -0.2014
10609TIP3    H153318   6.350   5.761   5.276  1.6525 -0.7967  0.5094
10609TIP3    H253319   6.361   5.639   5.186  1.1783  0.0006 -0.6385
10610TIP3   OH253320   3.819   1.858   3.194 -0.7664  0.1717  0.2029
10610TIP3    H153321   3.905   1.849   3.152  0.4247 -0.3389  2.6382
10610TIP3    H253322   3.837   1.904   3.276 -3.0856  1.5266  0.0056
10611TIP3   OH253323   2.806   1.010   2.974 -0.1281  0.1018 -0.0466
10611TIP3    H153324   2.866   1.082   2.956  1.3236 -0.9260  0.6093
10611TIP3    H253325   2.861   0.941   3.012 -1.3067 -1.7122 -1.5282
10612TIP3   OH253326   4.251   5.149   1.070  0.0486 -0.5851 -0.4900
10612TIP3    H153327   4.167   5.106   1.084  0.8001 -2.8343 -2.6904
10612TIP3    H253328   4.233   5.217   1.005 -0.1742 -0.5942 -0.4395
10613TIP3   OH253329   3.700   2.889  17.164  0.2960 -0.1910 -0.2228
10613TIP3    H153330   3.748   2.955  17.213  1.1977 -0.5496 -0.6227
10613TIP3    H253331   3.696   2.924  17.074 -1.3613  0.4715  0.0930
10614TIP3   OH253332   4.984   5.753  11.150  0.5620  1.2228  0.0633
10614TIP3    H153333   4.959   5.726  11.238  0.4468  0.0633 -0.3180
10614TIP3    H253334   4.901   5.763  11.103  0.6972 -1.4217 -0.8485
10615TIP3   OH253335   0.472   4.875   5.584  0.0897 -0.0247  0.5195
10615TIP3    H153336   0.428   4.884   5.499 -1.2840 -0.1384  1.2041
10615TIP3    H253337   0.499   4.964   5.607  2.2496 -0.2804 -0.9669
10616TIP3   OH253338   3.076   0.760   3.994  0.0967  0.0886  0.3988
10616TIP3    H153339   3.082   0.666   3.975 -0.2694  0.1911 -0.2174
10616TIP3    H253340   2.995   0.768   4.044  1.4265 -0.2879  2.7044
10617TIP3   OH253341   6.534   2.403   6.519  0.2544 -0.0729 -0.2730
10617TIP3    H153342   6.587   2.474   6.481 -0.2999  0.1830 -0.5697
10617TIP3    H253343   6.504   2.439   6.603  1.9574 -0.8508  0.6999
10618TIP3   OH253344   5.721   6.782  13.506  0.2707 -0.0493 -0.8947
10618TIP3    H153345   5.782   6.713  13.482  0.1039 -0.3913 -0.3560
10618TIP3    H253346   5.763   6.827  13.579 -0.0365 -0.1679 -0.6439
10619TIP3   OH253347   4.305   3.069   3.701 -0.2325 -0.7810  0.1303
10619TIP3    H153348   4.313   3.128   3.626 -0.8017 -0.9010 -0.0242
10619TIP3    H253349   4.211   3.049   3.707 -0.2218 -0.5746  1.0257
10620TIP3   OH253350   4.761   1.312   5.393 -0.0058  0.5998  0.1990
10620TIP3    H153351   4.792   1.242   5.450 -0.9019 -1.4573 -1.8013
10620TIP3    H253352   4.822   1.313   5.320 -1.0041  0.7347 -0.6455
10621TIP3   OH253353   6.672   1.994  10.883 -0.1561 -0.2060  0.5529
10621TIP3    H153354   6.664   2.066  10.946  0.2370 -0.3317  0.7504
10621TIP3    H253355   6.753   2.013  10.836 -0.3938 -0.1728  0.1622
10622TIP3   OH253356   5.402   2.855  15.232  0.2098  0.0133 -0.1951
10622TIP3    H153357   5.411   2.852  15.137 -3.4393 -1.7744 -0.5850
10622TIP3    H253358   5.354   2.936  15.249  0.6656  0.2204  0.1255
10623TIP3   OH253359   4.219   1.513  12.590 -0.2115  0.1025 -0.0443
10623TIP3    H153360   4.276   1.533  12.515 -0.9015  0.3216 -0.5159
10623TIP3    H253361   4.174   1.433  12.564  0.2525 -0.3496  0.5426
10624TIP3   OH253362   5.420   2.240  13.378 -0.5482  0.4782  0.4761
10624TIP3    H153363   5.475   2.315  13.355  0.4910  0.6415  3.2459
10624TIP3    H253364   5.479   2.164  13.372 -0.1274  0.5707  2.7698
10625TIP3   OH253365   3.469   6.243  16.015 -0.1616  0.2539  0.3826
10625TIP3    H153366   3.477   6.329  16.057  1.1645 -0.8568  2.4778
10625TIP3    H253367   3.498   6.258  15.925 -2.7322  2.6095 -0.1281
10626TIP3   OH253368   2.065   3.572  15.474 -0.4582 -0.3081 -0.7119
10626TIP3    H153369   2.030   3.644  15.526 -0.4732  0.6056 -1.9792
10626TIP3    H253370   2.139   3.609  15.426 -1.4902 -0.6806 -2.6587
10627TIP3   OH253371   4.865   0.762   4.087  0.1006 -0.4709  0.2116
10627TIP3    H153372   4.846   0.718   4.004 -0.8204 -1.1527  0.7711
10627TIP3    H253373   4.945   0.811   4.070  0.7510 -1.7771 -0.6467
10628TIP3   OH253374   2.497   1.471  15.230 -0.3466  0.7692 -0.3476
10628TIP3    H153375   2.439   1.545  15.246  0.1790  0.9430  0.7678
10628TIP3    H253376   2.576   1.491  15.280 -0.6929 -1.1577  1.0265
10629TIP3   OH253377   1.184   0.835  12.909 -0.5057  0.3987  0.4753
10629TIP3    H153378   1.215   0.925  12.919  2.2857 -0.4152 -0.2406
10629TIP3    H253379   1.239   0.784  12.968  0.4235 -1.2883 -1.7583
10630TIP3   OH253380   3.724   0.486  11.698 -0.4202  0.1425 -0.3945
10630TIP3    H153381   3.777   0.418  11.656 -0.6081 -0.4751  0.3426
10630TIP3    H253382   3.784   0.560  11.709  0.6761 -0.9791  1.5651
10631TIP3   OH253383   5.787   3.545   5.026  0.4682  0.0872 -0.2831
10631TIP3    H153384   5.748   3.479   4.969  0.9048 -0.3470 -0.0799
10631TIP3    H253385   5.725   3.554   5.098  0.7274 -0.5889  0.0299
10632TIP3   OH253386   1.968   2.865  15.003  0.3530 -0.0110  0.1598
10632TIP3    H153387   1.956   2.866  15.098  0.1553 -0.5850  0.1431
10632TIP3    H253388   1.889   2.821  14.970 -0.4233  1.7743 -0.3934
10633TIP3   OH253389   3.686   4.587   5.264 -0.1638 -0.1617 -0.1613
10633TIP3    H153390   3.675   4.568   5.171 -0.3819  1.2980 -0.4422
10633TIP3    H253391   3.728   4.673   5.266 -0.2728 -0.1311  1.0956
10634TIP3   OH253392   3.572   3.971  14.085 -0.2837  0.2000  0.5041
10634TIP3    H153393   3.550   3.944  14.174 -1.5974 -1.2515 -0.2414
10634TIP3    H253394   3.491   4.010  14.051 -1.1686 -3.1831 -1.5066
10635TIP3   OH253395   4.748   1.048  15.278  0.1757 -0.2885 -0.2230
10635TIP3    H153396   4.775   0.974  15.223  0.8862 -0.1545 -0.0569
10635TIP3    H253397   4.828   1.098  15.292 -0.6642  1.5847 -1.9220
10636TIP3   OH253398   0.421   5.575  15.442  0.4382 -0.1167  0.2499
10636TIP3    H153399   0.334   5.578  15.482  0.0458  1.3112 -0.6773
10636TIP3    H253400   0.482   5.585  15.515 -0.3055  5.3462  0.3500
10637TIP3   OH253401   2.931   0.980  11.366  0.3322 -0.1786 -0.1366
10637TIP3    H153402   2.952   1.068  11.336  0.8120 -0.0011  0.7080
10637TIP3    H253403   2.983   0.923  11.309  1.6616  0.1773  0.6981
10638TIP3   OH253404   2.928   1.077   6.053  0.0733  0.3128  0.0837
10638TIP3    H153405   2.985   1.038   5.987 -1.4759  2.0719 -2.3860
10638TIP3    H253406   2.900   1.004   6.108  2.7511 -0.9258 -0.1129
10639TIP3   OH253407   6.011   3.388   0.304  0.1260  0.3181 -0.0377
10639TIP3    H153408   6.017   3.294   0.317 -0.3654  0.3062  0.1204
10639TIP3    H253409   5.922   3.402   0.270  0.5087  0.6263 -0.9350
10640TIP3   OH253410   0.686   4.995  12.696 -0.8357  0.5615  0.3243
10640TIP3    H153411   0.781   4.994  12.688 -0.9132  0.1226 -0.6037
10640TIP3    H253412   0.654   4.987  12.606 -1.7496 -2.0446  0.8588
10641TIP3   OH253413   5.269   6.019  11.663 -0.1204  0.1394 -0.0545
10641TIP3    H153414   5.217   6.080  11.611 -0.4595  0.1767  0.3269
10641TIP3    H253415   5.219   6.007  11.744  1.5404  2.0374  1.3491
10642TIP3   OH253416   0.324   6.322  13.300 -0.5699  0.6327  0.5416
10642TIP3    H153417   0.384   6.261  13.343 -2.2498 -0.7970  0.9264
10642TIP3    H253418   0.335   6.304  13.207  1.3006  2.0427  0.4603
10643TIP3   OH253419   1.895   6.371   4.934 -0.5679  0.3375 -0.1388
10643TIP3    H153420   1.920   6.415   4.852 -0.1020  0.4690  0.0741
10643TIP3    H253421   1.844   6.436   4.982 -1.1675  0.1310 -0.4939
10644TIP3   OH253422   5.817   0.090   4.736 -0.0186  0.5122  0.2208
10644TIP3    H153423   5.732   0.048   4.724  0.5308 -0.6109  0.1863
10644TIP3    H253424   5.878   0.035   4.687  0.8696  0.7876  0.9984
10645TIP3   OH253425   0.973   0.870  14.817  0.0846 -0.2944  0.1150
10645TIP3    H153426   1.009   0.901  14.734 -0.4816  1.6041  0.5531
10645TIP3    H253427   0.989   0.943  14.878 -1.3758 -0.8329  1.1452
10646TIP3   OH253428   1.346   1.641   5.642 -0.5610  0.5396  0.4669
10646TIP3    H153429   1.439   1.664   5.635  0.5896 -4.1545 -2.1975
10646TIP3    H253430   1.302   1.698   5.581  1.0771  0.6009 -0.6918
10647TIP3   OH253431   1.452   0.915   6.008 -0.0646 -0.6873  0.0163
10647TIP3    H153432   1.426   1.003   5.981  0.0937 -1.1236 -1.5708
10647TIP3    H253433   1.424   0.909   6.100 -0.4655  0.8540  0.0037
10648TIP3   OH253434   5.597   0.729  16.184  0.6567  0.0014 -0.2195
10648TIP3    H153435   5.657   0.789  16.229  1.0948 -0.2124 -0.5110
10648TIP3    H253436   5.510   0.766  16.198  0.8329  0.1739  0.4356
10649TIP3   OH253437   5.087   6.735   0.554 -0.0755  0.2889 -0.2325
10649TIP3    H153438   5.032   6.664   0.523 -0.4055  0.8415 -0.9352
10649TIP3    H253439   5.091   6.724   0.649 -0.8367 -0.1478 -0.2515
10650TIP3   OH253440   1.520   5.928  11.515  0.0145  0.0375 -0.1995
10650TIP3    H153441   1.446   5.934  11.455 -0.7581  0.9266  0.8041
10650TIP3    H253442   1.513   6.008  11.569 -0.3858 -1.6109  2.2748
10651TIP3   OH253443   0.195   0.546   0.502 -0.2046  0.2359 -0.3040
10651TIP3    H153444   0.120   0.570   0.448 -0.8512 -1.2305 -0.0736
10651TIP3    H253445   0.256   0.619   0.492 -1.4944  1.2675 -0.7948
10652TIP3   OH253446   0.404   0.007   0.092 -0.0366  0.0951  0.6362
10652TIP3    H153447   0.452  -0.074   0.076 -1.2893 -0.8497  1.6490
10652TIP3    H253448   0.441   0.041   0.173 -1.2486 -0.7716  1.5605
10653TIP3   OH253449   2.007   2.513   3.993 -0.5476 -0.0314 -0.2347
10653TIP3    H153450   2.081   2.455   3.975 -0.2559  0.3338 -0.2053
10653TIP3    H253451   1.943   2.456   4.037 -0.8070 -0.6400 -1.3954
10654TIP3   OH253452   3.405   3.050  11.792 -0.4866 -0.4647  0.4201
10654TIP3    H153453   3.478   3.106  11.767 -0.8310 -0.3352 -0.3221
10654TIP3    H253454   3.415   2.971  11.738  0.1798 -1.2666  1.6967
10655TIP3   OH253455   0.366   5.273   1.725  0.6270 -0.5748 -0.1228
10655TIP3    H153456   0.339   5.183   1.705 -0.6278 -0.1396 -0.4516
10655TIP3    H253457   0.309   5.327   1.670 -0.0823  0.4896  1.6364
10656TIP3   OH253458   5.666   1.535  12.857  0.1397  0.1777  0.2871
10656TIP3    H153459   5.604   1.476  12.814 -0.2618 -0.1506  1.3025
10656TIP3    H253460   5.734   1.550  12.792 -0.5196 -0.2198 -0.5022
10657TIP3   OH253461   4.162   1.704   4.477 -0.4998  0.2353 -0.0604
10657TIP3    H153462   4.220   1.709   4.553 -0.7927 -2.5826  0.4142
10657TIP3    H253463   4.219   1.721   4.402  0.8332 -1.6544  0.4589
10658TIP3   OH253464   5.182   0.376  12.740  0.4907  0.7099  0.1149
10658TIP3    H153465   5.153   0.464  12.719  1.6547  1.7312  2.6374
10658TIP3    H253466   5.251   0.388  12.806  1.0567 -2.0425  0.0963
10659TIP3   OH253467   4.528   0.922   3.950 -0.6323  0.1114  0.0439
10659TIP3    H153468   4.573   0.881   4.024 -0.6961  0.5334  0.3162
10659TIP3    H253469   4.590   0.987   3.917 -0.1536 -0.8417 -0.9802
10660TIP3   OH253470   0.065   6.447   2.376 -0.0566 -0.5704 -0.0019
10660TIP3    H153471   0.052   6.400   2.459  2.3111  1.9591  1.8882
10660TIP3    H253472   0.007   6.522   2.381  0.2580 -0.2848 -0.5596
10661TIP3   OH253473   4.661   2.709   0.343  0.6518  0.1262  0.0154
10661TIP3    H153474   4.569   2.733   0.329  0.5141  0.7096  1.8189
10661TIP3    H253475   4.710   2.770   0.288  0.1104  2.1572  1.7152
10662TIP3   OH253476   0.199   6.018   4.485 -0.3832 -0.1058  0.0686
10662TIP3    H153477   0.211   6.072   4.406  0.5516 -0.0345  0.2584
10662TIP3    H253478   0.190   6.081   4.556 -1.4030 -0.1672  0.0082
10663TIP3   OH253479   0.704   5.365  13.768 -0.2408  0.0213 -0.4502
10663TIP3    H153480   0.642   5.432  13.739 -0.3250 -0.9624 -2.6149
10663TIP3    H253481   0.653   5.285  13.774 -0.3069  0.2149  2.8664
10664TIP3   OH253482   5.419   4.787   1.705  0.0439 -0.5902 -0.6972
10664TIP3    H153483   5.378   4.740   1.777 -0.7189  0.8576 -0.1557
10664TIP3    H253484   5.470   4.721   1.658 -1.7899 -2.1237 -0.5481
10665TIP3   OH253485   2.480   1.757   6.163  0.0379 -0.0229  0.0283
10665TIP3    H153486   2.501   1.689   6.098 -0.9135 -0.1050 -0.1918
10665TIP3    H253487   2.531   1.732   6.240 -0.0937 -0.8280 -0.1427
10666TIP3   OH253488   0.357   3.834   2.023  0.0398  0.3739  0.3122
10666TIP3    H153489   0.324   3.913   2.066 -0.1668 -0.5028  1.8054
10666TIP3    H253490   0.321   3.838   1.935 -4.1208 -0.5178  1.8537
10667TIP3   OH253491   3.885   2.651   5.860 -0.1940  0.2626 -0.3216
10667TIP3    H153492   3.937   2.571   5.855  0.3357  0.6465 -1.3665
10667TIP3    H253493   3.796   2.622   5.876 -0.1747 -0.6016 -1.7093
10668TIP3   OH253494   5.550   5.886   5.475  0.0259 -0.1871  0.6655
10668TIP3    H153495   5.567   5.906   5.567  0.8313 -0.3892  0.5565
10668TIP3    H253496   5.530   5.972   5.435 -0.0154 -0.0624  0.9549
10669TIP3   OH253497   1.396   1.898  15.967 -0.2811  0.0782  0.0135
10669TIP3    H153498   1.388   1.959  15.894  3.3954  2.2677  1.2649
10669TIP3    H253499   1.384   1.812  15.928 -1.8056  1.3647 -2.5074
10670TIP3   OH253500   1.694   0.676  12.534  0.3992  0.0447 -0.6585
10670TIP3    H153501   1.649   0.706  12.613  0.2998  0.2289 -0.7836
10670TIP3    H253502   1.712   0.756  12.485  1.3876  0.0312 -0.3310
10671TIP3   OH253503   5.785   2.925   1.582  0.3243  0.6952 -0.0436
10671TIP3    H153504   5.698   2.939   1.543  0.4930  0.4808 -0.4980
10671TIP3    H253505   5.767   2.884   1.666  0.0663 -1.2103 -0.9996
10672TIP3   OH253506   5.714   1.733  16.700  0.7401 -0.0151 -0.1229
10672TIP3    H153507   5.729   1.640  16.715  0.7873  0.3308  2.2232
10672TIP3    H253508   5.672   1.764  16.780 -0.5325  1.7212 -1.4071
10673TIP3   OH253509   1.171   6.630  17.203 -0.2628  0.1699 -0.3007
10673TIP3    H153510   1.255   6.637  17.249 -0.9512 -0.6312  1.1312
10673TIP3    H253511   1.124   6.560  17.250 -0.0136 -2.4659 -3.7792
10674TIP3   OH253512   2.392   3.673   1.835  0.0954 -0.0246 -0.2305
10674TIP3    H153513   2.481   3.637   1.838 -0.6041 -1.7553  0.0227
10674TIP3    H253514   2.353   3.649   1.918 -0.9258 -0.0435 -0.7035
10675TIP3   OH253515   5.209   6.399   6.565  0.2653 -0.1963 -0.0258
10675TIP3    H153516   5.235   6.441   6.647  1.1711 -0.1896 -0.3111
10675TIP3    H253517   5.257   6.316   6.565  1.5374  0.5151 -1.3053
10676TIP3   OH253518   6.060   2.364   3.909 -0.2622  0.0662 -0.6424
10676TIP3    H153519   6.087   2.275   3.934 -0.8400  0.5099  1.7118
10676TIP3    H253520   5.970   2.370   3.941  0.6903  2.4350  1.7402
10677TIP3   OH253521   5.826   2.138   1.283  0.0589 -0.2978  0.6859
10677TIP3    H153522   5.816   2.054   1.238 -1.1433  0.1954  0.0190
10677TIP3    H253523   5.741   2.182   1.272  1.0511  1.4956  0.0468
10678TIP3   OH253524   3.827   4.735  11.954  0.4065 -0.2486 -0.2765
10678TIP3    H153525   3.782   4.711  11.873 -0.4177 -0.5850  0.2797
10678TIP3    H253526   3.757   4.748  12.017  1.0616 -0.1824  0.4375
10679TIP3   OH253527   6.643   5.492  11.429 -0.2874 -0.0780 -0.0280
10679TIP3    H153528   6.667   5.574  11.386  0.9325 -0.5682 -0.3118
10679TIP3    H253529   6.574   5.516  11.490 -1.6297  0.7451 -1.8298
10680TIP3   OH253530   0.949   5.950  11.822 -0.1281  0.0442 -0.5557
10680TIP3    H153531   0.892   6.024  11.804 -0.2270  0.2864  0.7456
10680TIP3    H253532   0.890   5.876  11.834 -0.0336 -0.2528 -1.7594
10681TIP3   OH253533   4.194   5.957  12.496 -0.4143  0.1772 -0.9611
10681TIP3    H153534   4.161   5.928  12.581  1.3729  2.3960  0.5203
10681TIP3    H253535   4.118   5.953  12.439 -1.3151 -2.8106  0.3163
10682TIP3   OH253536   1.736   3.074   4.195 -0.1638 -0.2207  0.0605
10682TIP3    H153537   1.735   2.982   4.221 -0.4257 -0.5927 -1.2380
10682TIP3    H253538   1.824   3.087   4.160 -0.2291 -0.0540 -0.0378
10683TIP3   OH253539   6.206   5.331  16.218 -0.2373 -0.0503  0.0343
10683TIP3    H153540   6.139   5.355  16.283 -1.1237  0.7952 -1.1828
10683TIP3    H253541   6.288   5.362  16.256 -0.7257  0.3266  0.8097
10684TIP3   OH253542   0.584   0.788  16.868  0.0599 -0.0572 -0.3760
10684TIP3    H153543   0.677   0.809  16.858  0.0585  0.3271  0.3632
10684TIP3    H253544   0.583   0.693  16.880  0.2704 -0.1887 -1.3650
10685TIP3   OH253545   3.313   4.183  16.112 -0.6403 -0.5967  0.2728
10685TIP3    H153546   3.268   4.246  16.055  0.6761  1.3000  1.2762
10685TIP3    H253547   3.394   4.161  16.066 -0.9294 -1.2853  0.0901
10686TIP3   OH253548   3.789   5.820   6.015  0.1844  0.2897  0.0121
10686TIP3    H153549   3.871   5.825   5.966  0.6007 -1.8853  0.4202
10686TIP3    H253550   3.811   5.857   6.101  1.2006 -1.7089  0.6476
10687TIP3   OH253551   0.304   4.116   0.224  0.0954  0.2418 -0.2864
10687TIP3    H153552   0.269   4.177   0.289 -2.8758 -0.8033 -0.8210
10687TIP3    H253553   0.345   4.046   0.276 -0.4833  0.4262  0.4269
10688TIP3   OH253554   0.149   4.198  13.089 -0.2843  0.2502 -0.5708
10688TIP3    H153555   0.128   4.107  13.112 -2.4905  0.9477  0.2273
10688TIP3    H253556   0.240   4.209  13.117  0.1222 -1.8096 -1.0069
10689TIP3   OH253557   3.878   1.889   6.547 -0.1493  0.6830 -0.8295
10689TIP3    H153558   3.808   1.837   6.587  0.5703 -0.3023 -0.8407
10689TIP3    H253559   3.876   1.866   6.455  2.5638 -2.1623 -0.2465
10690TIP3   OH253560   5.475   5.131  14.717 -0.4041  0.4847  0.2253
10690TIP3    H153561   5.487   5.171  14.804 -2.2778  1.4469  0.0681
10690TIP3    H253562   5.470   5.037  14.735  1.2542  0.5198  0.9281
10691TIP3   OH253563   2.850   4.219  12.242 -0.2290 -0.3541  0.7146
10691TIP3    H153564   2.892   4.257  12.319  1.2772 -2.6008  1.0424
10691TIP3    H253565   2.868   4.125  12.249 -2.0386 -0.8713 -1.1769
10692TIP3   OH253566   1.326   3.324  16.114 -0.4167 -0.5436  1.0160
10692TIP3    H153567   1.420   3.310  16.105  0.1111  0.8035  3.8109
10692TIP3    H253568   1.299   3.259  16.179 -1.3000 -0.4162  0.7812
10693TIP3   OH253569   3.025   1.223   2.948  0.1365  0.0422  0.5877
10693TIP3    H153570   2.996   1.261   2.865 -0.1257 -2.7059 -0.6449
10693TIP3    H253571   3.019   1.295   3.011 -3.4597  1.2053 -0.9298
10694TIP3   OH253572   1.529   6.389  12.866  0.6860 -0.0987 -0.2210
10694TIP3    H153573   1.435   6.406  12.855  0.4717 -0.0104  1.6300
10694TIP3    H253574   1.571   6.472  12.844  0.3591 -0.2491 -1.4260
10695TIP3   OH253575   3.260   2.649   4.689 -0.6823 -0.5349 -0.0563
10695TIP3    H153576   3.176   2.681   4.722  0.5343  0.7678  1.8790
10695TIP3    H253577   3.292   2.720   4.633  0.5177  0.2883  1.6429
10696TIP3   OH253578   3.223   3.184   3.008 -0.3412  0.7943 -0.0242
10696TIP3    H153579   3.293   3.239   2.972  0.9961 -0.2513  0.9590
10696TIP3    H253580   3.263   3.099   3.021 -1.9574  0.0254  0.0461
10697TIP3   OH253581   1.443   6.714   0.967 -0.2604  0.7998 -0.1641
10697TIP3    H153582   1.473   6.803   0.951 -0.5010  1.0972  1.0200
10697TIP3    H253583   1.356   6.724   1.006 -0.8856  0.0046 -1.2948
10698TIP3   OH253584   5.707   3.381  15.263 -0.6562  0.4543 -0.0749
10698TIP3    H153585   5.641   3.317  15.237  1.8741 -2.4769  0.5255
10698TIP3    H253586   5.716   3.371  15.357  1.5006 -0.0747 -0.3039
10699TIP3   OH253587   3.013   0.957   2.352  0.3351 -0.0285  0.1817
10699TIP3    H153588   3.054   1.022   2.409  3.4591 -1.3984 -0.4131
10699TIP3    H253589   3.010   0.999   2.266  1.1861 -0.1983  0.0685
10700TIP3   OH253590   1.315   1.686  11.766  0.1646 -0.3654 -0.7196
10700TIP3    H153591   1.327   1.604  11.717 -3.0266 -0.3118 -1.6554
10700TIP3    H253592   1.241   1.669  11.824  0.5971  1.3201  0.3703
10701TIP3   OH253593   4.442   0.309   1.986 -0.3010 -0.2469 -0.4536
10701TIP3    H153594   4.384   0.300   2.062 -0.6237 -1.4611 -0.8441
10701TIP3    H253595   4.442   0.223   1.945  0.9537  0.0348 -1.0620
10702TIP3   OH253596   1.170   4.616   1.767  0.4967 -0.2582 -0.1171
10702TIP3    H153597   1.098   4.633   1.827  0.2463 -0.7112 -0.2845
10702TIP3    H253598   1.163   4.684   1.700  0.6234  0.0941  0.2233
10703TIP3   OH253599   4.479   3.173  12.827 -0.0262 -0.5341  0.5620
10703TIP3    H153600   4.548   3.108  12.813  0.7774  0.1320  1.3204
10703TIP3    H253601   4.509   3.223  12.903  0.3602  1.9940 -1.1853
10704TIP3   OH253602   2.852   0.838   0.609  0.4323  0.1367 -0.4295
10704TIP3    H153603   2.947   0.852   0.616  0.7585 -0.9934 -2.1713
10704TIP3    H253604   2.840   0.746   0.630 -0.3830  0.4314  0.4440
10705TIP3   OH253605   5.092   4.857  15.183 -0.1745 -0.0104  0.0494
10705TIP3    H153606   5.098   4.804  15.262 -2.1294 -1.8971 -1.0163
10705TIP3    H253607   5.108   4.947  15.213  0.4533 -0.8581  2.3449
10706TIP3   OH253608   2.006   5.269   1.407  0.1634 -0.1952 -0.2864
10706TIP3    H153609   1.988   5.183   1.368  2.4452 -0.5530 -0.6384
10706TIP3    H253610   2.028   5.325   1.332 -0.2848  0.4057  0.0378
10707TIP3   OH253611   2.482   2.275   0.312 -0.1719  0.2064  0.4517
10707TIP3    H153612   2.498   2.189   0.273  1.2236  0.5814  0.1733
10707TIP3    H253613   2.560   2.326   0.291 -1.0502  1.5915  0.4989
10708TIP3   OH253614   4.055   4.048   0.798 -0.1246 -0.6554 -0.1443
10708TIP3    H153615   4.088   4.022   0.712 -1.2454 -1.0370 -0.4698
10708TIP3    H253616   3.973   4.093   0.779 -0.9593 -1.7435  0.7893
10709TIP3   OH253617   6.401   5.912  14.950  0.5062 -0.3514  0.3232
10709TIP3    H153618   6.492   5.908  14.919  0.1173  0.6266 -0.9989
10709TIP3    H253619   6.361   5.982  14.898 -0.1653  1.4011  3.0901
10710TIP3   OH253620   6.230   2.910  17.208 -0.2255 -0.1024 -0.3157
10710TIP3    H153621   6.283   2.830  17.208  1.1621  0.8170 -0.1027
10710TIP3    H253622   6.290   2.979  17.184 -1.6723  0.7446 -1.5371
10711TIP3   OH253623   3.198   5.493  13.766  0.0944 -0.2507 -0.2059
10711TIP3    H153624   3.278   5.545  13.770 -0.6479  0.9511 -0.3263
10711TIP3    H253625   3.129   5.558  13.747 -1.2742 -0.8490  2.5101
10712TIP3   OH253626   6.417   3.580   5.139 -0.0780  0.0697  0.5063
10712TIP3    H153627   6.383   3.540   5.219 -1.8990 -0.5613 -0.5412
10712TIP3    H253628   6.383   3.670   5.142  0.6365  0.3294  0.8908
10713TIP3   OH253629   6.436   4.265  15.165  0.0867 -0.2186 -0.6834
10713TIP3    H153630   6.512   4.224  15.124 -0.4911 -1.4699 -0.5469
10713TIP3    H253631   6.369   4.264  15.097 -0.6601 -1.6752  0.0450
10714TIP3   OH253632   1.991   3.015  12.209  0.0673  0.1507 -0.1663
10714TIP3    H153633   2.085   2.996  12.214 -0.1521 -0.5703  1.2585
10714TIP3    H253634   1.984   3.106  12.239  0.5289  0.9423 -2.2967
10715TIP3   OH253635   4.851   5.569   3.401 -0.3749 -0.0747  0.0950
10715TIP3    H153636   4.808   5.554   3.316 -0.6830 -1.1568  0.4356
10715TIP3    H253637   4.937   5.528   3.392  0.9740  2.8333 -0.8847
10716TIP3   OH253638   2.388   4.857  11.579 -0.0001 -0.0639  0.4154
10716TIP3    H153639   2.450   4.814  11.638  1.0138 -0.6031 -1.0171
10716TIP3    H253640   2.322   4.791  11.561  0.6280 -0.4734 -0.4168
10717TIP3   OH253641   0.062   2.216  12.996  0.4464 -0.8444  0.1567
10717TIP3    H153642   0.140   2.257  13.034  0.9986  0.6513 -2.4865
10717TIP3    H253643   0.001   2.207  13.070  2.2078  0.1663  1.7653
10718TIP3   OH253644   1.912   2.319   1.048  0.6943  0.5866  0.1413
10718TIP3    H153645   1.871   2.266   0.980  0.9485  2.0338 -1.1707
10718TIP3    H253646   1.850   2.389   1.065  1.1597  0.9068  0.5322
10719TIP3   OH253647   4.146   3.497  11.309 -0.3137  0.7193 -0.1109
10719TIP3    H153648   4.100   3.515  11.227  1.3049 -1.5579 -1.6097
10719TIP3    H253649   4.092   3.430  11.352  0.5707 -0.5612 -0.9621
10720TIP3   OH253650   3.319   6.151  15.387  0.3466  0.4537 -0.1602
10720TIP3    H153651   3.330   6.192  15.301 -2.6946 -1.3755 -1.4945
10720TIP3    H253652   3.350   6.061  15.375  0.2039  0.2827  0.7423
10721TIP3   OH253653   1.449   4.643  15.064 -0.4044  0.2002 -0.5700
10721TIP3    H153654   1.504   4.710  15.105 -0.0566  0.8636 -2.0790
10721TIP3    H253655   1.366   4.648  15.112  0.1982  0.5145  0.4621
10722TIP3   OH253656   6.266   4.470   5.329 -0.1159  0.6417  0.3453
10722TIP3    H153657   6.261   4.504   5.418 -1.2736  0.3024  0.4204
10722TIP3    H253658   6.177   4.443   5.309  0.2151  0.3680 -0.7820
10723TIP3   OH253659   4.759   5.658   3.874 -0.2414  0.3175 -0.0113
10723TIP3    H153660   4.763   5.720   3.947 -0.9430 -0.3558  0.6043
10723TIP3    H253661   4.850   5.635   3.858  0.0629  1.8225 -0.5183
10724TIP3   OH253662   5.352   5.953  14.391 -0.5285  0.5968 -0.2082
10724TIP3    H153663   5.317   5.949  14.480  1.7208  0.7826  0.7401
10724TIP3    H253664   5.349   5.863  14.359 -2.4597  0.7197 -0.4210
10725TIP3   OH253665   6.404   5.859   0.289 -0.0117  0.0130  0.3636
10725TIP3    H153666   6.401   5.803   0.211 -0.0678 -1.1362  1.1789
10725TIP3    H253667   6.482   5.830   0.335 -0.1121  0.5323  0.8554
10726TIP3   OH253668   4.361   3.192  13.675 -0.0202  0.5750 -0.0987
10726TIP3    H153669   4.433   3.189  13.613  2.3782  0.0553  2.5605
10726TIP3    H253670   4.318   3.106  13.666  1.3924 -0.1759  0.1671
10727TIP3   OH253671   2.779   0.246   3.634 -0.6017 -0.0919 -0.0103
10727TIP3    H153672   2.717   0.319   3.627 -0.5344 -0.0288  0.0485
10727TIP3    H253673   2.787   0.212   3.544  1.5446  1.7859 -0.5714
10728TIP3   OH253674   4.462   5.877   0.847 -0.1587  0.1737  0.3951
10728TIP3    H153675   4.377   5.869   0.890 -0.0348  0.4524  0.6964
10728TIP3    H253676   4.517   5.923   0.911  0.2767 -0.1883  0.2792
10729TIP3   OH253677   1.596   5.698   0.206 -0.0517 -0.2351 -0.5672
10729TIP3    H153678   1.620   5.614   0.168  0.1176 -0.4337 -0.0190
10729TIP3    H253679   1.533   5.735   0.145  0.5202 -0.3745 -1.2500
10730TIP3   OH253680   2.376   2.540   3.564 -0.0308 -0.4607  0.5023
10730TIP3    H153681   2.428   2.607   3.521  0.8295 -3.7340 -3.9268
10730TIP3    H253682   2.436   2.500   3.627  0.3116  1.0397  1.1323
10731TIP3   OH253683   5.846   5.784   6.649 -1.2180 -0.1615 -0.6000
10731TIP3    H153684   5.805   5.775   6.563 -1.6893  1.3151 -0.5435
10731TIP3    H253685   5.773   5.779   6.711 -1.3064  2.0433 -0.4778
10732TIP3   OH253686   1.520   3.940  16.185 -0.1660 -0.1905  0.5384
10732TIP3    H153687   1.493   3.879  16.117 -0.9349  0.4614  0.2471
10732TIP3    H253688   1.441   3.991  16.204  0.7148  1.4114  0.0105
10733TIP3   OH253689   3.016   5.314   0.336 -0.6318  0.1016  0.2935
10733TIP3    H153690   3.105   5.293   0.309  0.0270 -2.5318  4.0743
10733TIP3    H253691   2.960   5.260   0.281  0.2151  0.3674 -0.8330
10734TIP3   OH253692   0.689   4.038  11.225  0.3900 -0.2509  0.3305
10734TIP3    H153693   0.650   4.036  11.138  0.9386 -0.3209  0.0846
10734TIP3    H253694   0.651   3.963  11.271  0.1264 -0.2309  0.1461
10735TIP3   OH253695   0.438   4.667  13.905 -1.0644  0.0695  0.5982
10735TIP3    H153696   0.506   4.600  13.915  0.3114  1.0673 -1.6935
10735TIP3    H253697   0.413   4.662  13.812 -1.2554  2.3960  0.4894
10736TIP3   OH253698   5.904   5.024   4.271 -0.3953 -0.0028  0.2170
10736TIP3    H153699   5.860   5.106   4.249  0.1258  0.9670  2.5770
10736TIP3    H253700   5.839   4.956   4.254 -1.5116  1.0880  0.1001
10737TIP3   OH253701   6.701   0.325   1.081  0.6612  0.0536  0.0616
10737TIP3    H153702   6.701   0.242   1.033  0.7225  0.2267 -0.2447
10737TIP3    H253703   6.756   0.309   1.157 -2.8390 -1.5278  2.3838
10738TIP3   OH253704   1.704   4.212   2.398  0.2352  0.5447 -0.0517
10738TIP3    H153705   1.778   4.220   2.338  0.1749 -0.8421 -0.3199
10738TIP3    H253706   1.632   4.180   2.343  0.4379 -1.6822  0.9240
10739TIP3   OH253707   0.529   2.101  14.337 -0.4692 -0.5395 -0.0350
10739TIP3    H153708   0.452   2.046  14.320 -0.8511 -0.3136  0.9117
10739TIP3    H253709   0.493   2.189  14.349  0.0075 -0.3150 -0.2503
10740TIP3   OH253710   0.175   5.712  16.752  0.2215  0.1475  0.2709
10740TIP3    H153711   0.173   5.779  16.821 -0.1148  0.0019  0.4017
10740TIP3    H253712   0.250   5.736  16.698  1.0195 -0.2298  1.1876
10741TIP3   OH253713   6.512   6.055   4.068 -0.0854 -0.5719 -0.1373
10741TIP3    H153714   6.575   6.041   4.138  1.3520  1.1488 -1.0466
10741TIP3    H253715   6.429   6.076   4.112  0.9688  1.1910  1.0498
10742TIP3   OH253716   4.021   6.169  13.584 -0.2297  0.1777 -0.0899
10742TIP3    H153717   4.106   6.135  13.611  0.6877  1.4380 -1.2695
10742TIP3    H253718   3.960   6.097  13.597  0.7550 -0.2957  2.1233
10743TIP3   OH253719   3.311   4.687  10.405 -0.7084  0.7077 -0.1505
10743TIP3    H153720   3.292   4.711  10.496 -2.2341  0.5961 -0.4192
10743TIP3    H253721   3.240   4.626  10.381  1.3428 -1.6544 -0.4592
10744TIP3   OH253722   4.572   3.776  15.239  0.2126 -0.2079  0.1816
10744TIP3    H153723   4.502   3.789  15.304 -0.6799 -1.2398 -0.5664
10744TIP3    H253724   4.611   3.692  15.263  0.7853  0.0654  0.2062
10745TIP3   OH253725   3.564   3.554   2.203  0.0110 -0.0666  0.1202
10745TIP3    H153726   3.614   3.625   2.243  0.4049 -1.6282  2.5060
10745TIP3    H253727   3.606   3.474   2.235 -0.9843 -1.4031 -1.7850
10746TIP3   OH253728   6.731   1.922  11.617  0.1511 -0.9792 -0.2841
10746TIP3    H153729   6.692   1.915  11.704  0.9603  1.6507  0.3254
10746TIP3    H253730   6.656   1.920  11.557 -0.7802  1.4411  0.7407
10747TIP3   OH253731   5.140   4.119  12.186 -0.1008 -0.7001 -0.1072
10747TIP3    H153732   5.101   4.181  12.247  1.0802  0.4811 -0.5290
10747TIP3    H253733   5.139   4.164  12.101 -0.3029 -1.7197 -0.6635
10748TIP3   OH253734   6.215   4.503  11.569  0.2839 -0.1608 -0.5118
10748TIP3    H153735   6.251   4.477  11.484  0.1511 -0.4525 -0.4793
10748TIP3    H253736   6.156   4.575  11.548 -0.1276 -0.5578 -0.7307
10749TIP3   OH253737   4.424   1.142  13.594  0.5325  0.3169  0.4552
10749TIP3    H153738   4.426   1.147  13.690  1.0921  1.8516  0.3695
10749TIP3    H253739   4.336   1.110  13.574  0.3985  0.0185  1.4827
10750TIP3   OH253740   5.919   6.538   4.843  0.1881 -0.1173 -0.0385
10750TIP3    H153741   5.925   6.626   4.880  0.0125 -0.2224  0.2416
10750TIP3    H253742   5.934   6.480   4.918 -0.5872 -0.3366 -0.0485
10751TIP3   OH253743   2.518   6.153  11.187 -0.8505 -0.2084  0.9214
10751TIP3    H153744   2.457   6.226  11.189 -1.7179 -0.8237 -1.4974
10751TIP3    H253745   2.472   6.084  11.139  1.1861 -1.1856  0.3062
10752TIP3   OH253746   5.882   1.953   1.003  0.4727  0.1616 -0.1086
10752TIP3    H153747   5.947   2.022   0.991  0.1696  0.0017 -2.9796
10752TIP3    H253748   5.929   1.882   1.047  1.4487  1.2012  0.5419
10753TIP3   OH253749   6.669   2.425  16.463  0.2602  0.2585 -0.2558
10753TIP3    H153750   6.692   2.359  16.397  0.3777 -0.3384  0.3795
10753TIP3    H253751   6.685   2.509  16.419  0.1955 -0.1297 -1.0405
10754TIP3   OH253752   0.568   4.000   2.271 -0.2581  0.2692  0.1432
10754TIP3    H153753   0.615   3.944   2.333  0.3363 -0.9869 -1.3957
10754TIP3    H253754   0.631   4.016   2.201 -1.3087  0.6840 -0.7260
10755TIP3   OH253755   3.666   2.361  16.460  0.5035  0.2647  0.6079
10755TIP3    H153756   3.713   2.411  16.394 -1.2743  3.6972  1.8381
10755TIP3    H253757   3.729   2.350  16.531  1.0349  0.4369  0.1621
10756TIP3   OH253758   2.845   2.055   1.875  0.5520  0.6499  0.0268
10756TIP3    H153759   2.856   2.124   1.810  0.3399  1.0052  0.3589
10756TIP3    H253760   2.920   1.996   1.862  1.6499  1.8330  0.8127
10757TIP3   OH253761   4.046   3.166  16.037 -0.8100  0.2993  0.2657
10757TIP3    H153762   4.082   3.152  16.124 -1.4924  0.6842  0.6148
10757TIP3    H253763   4.040   3.261  16.029  0.0425  0.2981 -0.5328
10758TIP3   OH253764   6.568   0.837   2.584 -0.7371  0.4532  0.3728
10758TIP3    H153765   6.534   0.798   2.665  0.0448 -1.5106 -0.2045
10758TIP3    H253766   6.642   0.890   2.612  0.2247 -1.0951  0.8696
10759TIP3   OH253767   6.223   3.529   5.709 -0.5247 -0.2195 -0.0792
10759TIP3    H153768   6.175   3.495   5.784 -0.1823 -0.6031 -0.0304
10759TIP3    H253769   6.241   3.621   5.732  1.4780 -0.9140  1.2971
10760TIP3   OH253770   5.515   1.674   1.279 -0.1077  0.6667  0.5113
10760TIP3    H153771   5.509   1.649   1.371  3.3006  0.2120  0.6764
10760TIP3    H253772   5.492   1.594   1.231  0.9733  0.0607  0.9920
10761TIP3   OH253773   3.616   6.145  11.313 -0.3782 -0.2825 -0.2542
10761TIP3    H153774   3.599   6.055  11.339  0.5007 -0.6769 -0.9947
10761TIP3    H253775   3.533   6.177  11.279 -0.8665 -0.5887  0.6479
10762TIP3   OH253776   3.529   2.167   4.747  0.5805  0.6926 -0.2871
10762TIP3    H153777   3.452   2.224   4.747 -1.1154 -1.5177 -1.2446
10762TIP3    H253778   3.576   2.192   4.667 -0.8312 -0.0812 -1.3935
10763TIP3   OH253779   3.644   1.168  13.271 -0.0619  0.1452 -0.5085
10763TIP3    H153780   3.568   1.138  13.320  0.9058  0.2348  1.0973
10763TIP3    H253781   3.684   1.089  13.236 -0.1412 -0.0283 -0.2046
10764TIP3   OH253782   1.908   0.354   6.201 -0.2589 -0.1762 -0.2521
10764TIP3    H153783   1.903   0.288   6.270 -1.1412  0.0136 -0.1291
10764TIP3    H253784   1.872   0.433   6.241  0.3032  0.2459 -0.5674
10765TIP3   OH253785   2.996   3.780  16.841 -0.6648  0.3645 -0.3480
10765TIP3    H153786   2.960   3.867  16.823  1.1212  1.2711  0.2920
10765TIP3    H253787   2.921   3.727  16.865 -1.6658  1.9765  0.1542
10766TIP3   OH253788   1.697   1.263   2.622 -0.4379  0.1218 -0.9341
10766TIP3    H153789   1.690   1.287   2.529 -0.8842  0.0017 -0.9323
10766TIP3    H253790   1.725   1.343   2.666 -2.2620  0.7509 -0.8692
10767TIP3   OH253791   2.978   0.631   4.681 -0.3421 -0.0131 -0.1300
10767TIP3    H153792   2.962   0.680   4.762 -1.2981  0.3136 -0.5126
10767TIP3    H253793   3.023   0.551   4.710  1.2640  1.0921  0.4972
10768TIP3   OH253794   4.099   1.292  15.120 -0.2183 -0.0666  0.3476
10768TIP3    H153795   4.011   1.315  15.150 -1.4321 -0.4418 -2.7802
10768TIP3    H253796   4.086   1.242  15.040  2.8486 -0.4115 -0.0199
10769TIP3   OH253797   1.006   1.131   6.044  0.2179 -0.2406 -0.3139
10769TIP3    H153798   0.980   1.217   6.010  0.3864 -0.1521 -0.2142
10769TIP3    H253799   0.977   1.132   6.135 -1.2229 -0.8860 -0.7505
10770TIP3   OH253800   3.852   2.218   2.435  0.7317 -0.9113 -0.2217
10770TIP3    H153801   3.870   2.295   2.488 -0.1452 -0.5660 -0.4072
10770TIP3    H253802   3.817   2.154   2.496  1.2030 -1.0648 -0.1139
10771TIP3   OH253803   6.638   2.760   2.728 -0.2041  0.6335 -0.1935
10771TIP3    H153804   6.600   2.830   2.782 -1.3179 -0.2287  0.1592
10771TIP3    H253805   6.663   2.803   2.647  0.2004  1.6747  0.4750
10772TIP3   OH253806   6.291   5.403   1.435 -0.1890 -0.1807  0.1876
10772TIP3    H153807   6.272   5.314   1.407  2.4346 -0.4628 -0.8823
10772TIP3    H253808   6.373   5.425   1.390 -1.2858  3.1248 -0.3053
10773TIP3   OH253809   4.150   1.143  17.112 -0.4163 -0.1179  0.0784
10773TIP3    H153810   4.075   1.115  17.165  0.1222 -1.0932  0.3585
10773TIP3    H253811   4.214   1.174  17.177 -0.2173 -0.1962 -0.0799
10774TIP3   OH253812   1.559   6.167  16.811 -0.2815 -0.2623  0.3923
10774TIP3    H153813   1.598   6.106  16.748  3.2870  1.3373  0.9190
10774TIP3    H253814   1.507   6.227  16.756 -0.2585 -1.1427 -0.6080
10775TIP3   OH253815   6.298   0.269  15.655 -0.8190  0.4353 -0.3484
10775TIP3    H153816   6.247   0.188  15.646 -0.6048  0.2534  0.0907
10775TIP3    H253817   6.387   0.244  15.630 -0.4183  0.1555  1.3170
10776TIP3   OH253818   0.402   3.882   1.298 -0.0191 -0.0005 -0.4104
10776TIP3    H153819   0.496   3.900   1.297 -0.0268  0.0163 -0.7880
10776TIP3    H253820   0.377   3.880   1.206 -0.4793  0.4697 -0.3000
10777TIP3   OH253821   6.731   3.477   1.718 -0.1037  0.2057 -0.1394
10777TIP3    H153822   6.763   3.458   1.630  0.5597  0.9328 -0.0583
10777TIP3    H253823   6.636   3.471   1.711 -0.0067 -0.8692 -0.6383
10778TIP3   OH253824   3.997   3.099  13.015 -0.0103 -0.3287  0.0259
10778TIP3    H153825   3.902   3.113  13.020  0.6608  4.2289  1.4868
10778TIP3    H253826   4.006   3.028  12.950 -4.4103 -1.5851  0.5776
10779TIP3   OH253827   6.323   2.337  15.180  0.2786 -0.1593 -0.0532
10779TIP3    H153828   6.323   2.376  15.267 -0.7638  2.0909 -1.0161
10779TIP3    H253829   6.373   2.399  15.126  0.4942 -1.2706 -1.1653
10780TIP3   OH253830   1.872   6.643  13.482  0.2549  0.0958  0.2485
10780TIP3    H153831   1.805   6.661  13.416  0.9840 -0.0365 -0.5411
10780TIP3    H253832   1.953   6.677  13.444  1.0650 -1.8502  0.1353
10781TIP3   OH253833   5.320   6.408  15.921 -0.0064 -0.4264  0.1057
10781TIP3    H153834   5.385   6.338  15.910 -1.2343 -1.6611  0.5767
10781TIP3    H253835   5.293   6.402  16.012  1.2120  1.8841  0.6717
10782TIP3   OH253836   5.768   3.326   5.530  0.0785  0.0082 -0.2063
10782TIP3    H153837   5.851   3.337   5.483 -0.3618  1.5225 -0.6716
10782TIP3    H253838   5.791   3.275   5.608  1.8253  1.9574  0.6209
10783TIP3   OH253839   2.818   5.098  11.875  1.0214 -0.0078 -0.1116
10783TIP3    H153840   2.897   5.144  11.901  0.7002  1.6441 -1.9621
10783TIP3    H253841   2.846   5.042  11.803  0.4755  0.7241 -0.8976
10784TIP3   OH253842   5.191   2.560  10.868 -0.0306  0.3290  0.1430
10784TIP3    H153843   5.185   2.606  10.785  2.0478  0.9102  0.2993
10784TIP3    H253844   5.209   2.469  10.844  1.8556  0.7336 -0.0310
10785TIP3   OH253845   3.869   4.096  15.464  0.3403 -0.5968 -0.2439
10785TIP3    H153846   3.815   4.026  15.428  1.4065 -1.2159 -0.6643
10785TIP3    H253847   3.847   4.098  15.558 -0.5185 -0.7316 -0.4396
10786TIP3   OH253848   4.332   4.262  15.392 -0.2941 -0.1840 -0.1822
10786TIP3    H153849   4.286   4.181  15.372  0.2084 -0.3184 -0.8161
10786TIP3    H253850   4.361   4.294  15.306  0.2995  0.1910  0.1563
10787TIP3   OH253851   4.944   2.557  13.140 -0.3102 -0.1149  0.4506
10787TIP3    H153852   5.026   2.599  13.165  0.8731 -1.3882 -1.0632
10787TIP3    H253853   4.946   2.472  13.185  1.0905 -1.7560 -2.5487
10788TIP3   OH253854   2.085   2.890   3.408  0.5238 -0.0397 -0.6931
10788TIP3    H153855   2.117   2.913   3.495 -0.8812 -1.3322  0.1870
10788TIP3    H253856   2.039   2.968   3.378  0.0832  0.0410  0.1773
10789TIP3   OH253857   1.408   4.542   3.412 -0.1987  0.1654  0.2717
10789TIP3    H153858   1.343   4.612   3.426 -0.9258 -0.6708  1.1542
10789TIP3    H253859   1.392   4.480   3.483  0.1891 -1.1038 -0.7281
10790TIP3   OH253860   1.855   1.676   0.272  0.1266 -0.2375 -0.3665
10790TIP3    H153861   1.800   1.634   0.206 -0.9095  0.5578 -0.0274
10790TIP3    H253862   1.838   1.627   0.352  0.9482 -0.8433 -0.5603
10791TIP3   OH253863   1.133   1.078   0.945 -0.4183 -0.0991  0.6244
10791TIP3    H153864   1.216   1.031   0.949 -0.1047  0.4534  0.7813
10791TIP3    H253865   1.152   1.162   0.988  0.2569  1.9821 -3.5198
10792TIP3   OH253866   4.650   1.902   4.118  0.1266 -0.2096 -0.0193
10792TIP3    H153867   4.556   1.922   4.120  0.5952  1.9809  1.9029
10792TIP3    H253868   4.687   1.971   4.062  0.7120 -0.5108  0.0050
10793TIP3   OH253869   2.859   5.960  14.425 -0.1102  0.1864  0.4522
10793TIP3    H153870   2.909   5.998  14.497 -0.6291  1.5057  0.1207
10793TIP3    H253871   2.890   6.005  14.347 -0.1646 -0.6264 -0.0459
10794TIP3   OH253872   6.474   6.108  17.005  0.0557  0.3687 -0.7646
10794TIP3    H153873   6.508   6.189  16.968 -0.1599  0.6363 -0.3871
10794TIP3    H253874   6.410   6.077  16.941 -1.6238  1.7635  0.1879
10795TIP3   OH253875   4.430   2.608  11.238  0.2612 -0.0028 -0.0167
10795TIP3    H153876   4.353   2.562  11.205 -0.3035  0.3989  0.7333
10795TIP3    H253877   4.468   2.548  11.304  0.9951 -0.5041 -0.8798
10796TIP3   OH253878   5.332   2.274   2.246  0.1787  0.7030 -0.2661
10796TIP3    H153879   5.242   2.241   2.239  0.0346  1.3562 -1.6288
10796TIP3    H253880   5.380   2.202   2.286 -1.0713  0.5800  1.0878
10797TIP3   OH253881   1.079   5.592   3.343  0.0286 -0.4158 -0.2674
10797TIP3    H153882   1.089   5.536   3.266 -1.0529 -0.6101 -0.2787
10797TIP3    H253883   0.997   5.639   3.327  0.6556  0.7853 -0.0133
10798TIP3   OH253884   6.013   5.878  14.883  0.5728 -0.1530  0.1599
10798TIP3    H153885   6.101   5.841  14.888  0.9922  0.4690 -1.9643
10798TIP3    H253886   5.981   5.849  14.797 -0.9431  0.3822  0.5430
10799TIP3   OH253887   3.064   0.402   2.782  0.0059  0.0217  0.8436
10799TIP3    H153888   3.047   0.481   2.731 -1.9718 -1.0121 -0.1714
10799TIP3    H253889   3.006   0.410   2.858 -0.8589 -0.8357  0.2900
10800TIP3   OH253890   3.063   2.778  13.974 -0.1159 -0.7177  0.0519
10800TIP3    H153891   3.124   2.787  13.901  1.2626  0.6804  1.3382
10800TIP3    H253892   3.011   2.700  13.953  0.6899 -0.6985 -2.0874
10801TIP3   OH253893   4.751   4.072   3.652 -0.2558 -0.0233 -0.7978
10801TIP3    H153894   4.717   4.135   3.716 -2.1158 -2.2282  0.4580
10801TIP3    H253895   4.846   4.081   3.658 -0.4475  1.4934  0.5313
10802TIP3   OH253896   1.836   2.959   3.901  0.1324 -0.1699 -0.5634
10802TIP3    H153897   1.817   2.867   3.884  1.0330 -0.1149 -1.9448
10802TIP3    H253898   1.916   2.977   3.851  0.5955  1.0742  0.5822
10803TIP3   OH253899   2.175   6.246  11.901 -0.1900 -0.3164 -0.6249
10803TIP3    H153900   2.188   6.157  11.935  0.1578 -0.2410 -0.5578
10803TIP3    H253901   2.251   6.294  11.931 -1.0830  0.3797  0.5598
10804TIP3   OH253902   6.681   0.736   3.099 -0.5736 -0.3390 -0.6436
10804TIP3    H153903   6.753   0.754   3.039  0.8972  0.6881  1.3755
10804TIP3    H253904   6.721   0.689   3.172 -2.0531 -0.2655  0.2377
10805TIP3   OH253905   5.920   4.314  15.663 -0.0011  0.1121  0.6274
10805TIP3    H153906   5.968   4.390  15.696 -1.7776  1.4360  0.1535
10805TIP3    H253907   5.870   4.346  15.589  2.5974 -2.4749 -2.4378
10806TIP3   OH253908   0.466   2.064  16.813  0.0789 -0.1682 -0.3430
10806TIP3    H153909   0.541   2.119  16.837 -0.1018 -1.1924  2.6992
10806TIP3    H253910   0.499   2.010  16.741  1.4604  1.1179 -0.7130
10807TIP3   OH253911   4.632   4.633  12.966  0.2545 -0.3479  0.0280
10807TIP3    H153912   4.560   4.607  12.909  0.8787  3.3942 -2.5777
10807TIP3    H253913   4.708   4.588  12.931  0.4218  1.0341 -1.3912
10808TIP3   OH253914   0.111   0.328  14.793  0.0273 -0.6771 -0.0278
10808TIP3    H153915   0.060   0.396  14.836 -0.5762 -1.0238 -0.1883
10808TIP3    H253916   0.113   0.256  14.856 -0.3695 -0.9675 -0.3416
10809TIP3   OH253917   5.358   5.794  12.602  0.3140  0.5593 -0.3753
10809TIP3    H153918   5.339   5.774  12.694 -0.5302  1.3449 -0.3766
10809TIP3    H253919   5.435   5.741  12.582 -0.8456 -1.3656  0.1223
10810TIP3   OH253920   3.823   2.638  14.926  0.1095 -0.4038 -0.3172
10810TIP3    H153921   3.824   2.545  14.905 -0.8343 -0.0799 -1.8385
10810TIP3    H253922   3.763   2.677  14.863 -0.5792  1.0443  1.1729
10811TIP3   OH253923   2.166   4.720   2.529 -0.2540 -0.6291  0.2654
10811TIP3    H153924   2.252   4.685   2.553 -0.5677 -0.9360  0.9518
10811TIP3    H253925   2.106   4.647   2.541 -0.7956 -0.0723  0.9627
10812TIP3   OH253926   5.203   6.398   0.486  0.3056  0.6542 -0.1223
10812TIP3    H153927   5.293   6.429   0.496  0.1287  0.6505  1.7560
10812TIP3    H253928   5.173   6.385   0.576 -1.7569  1.1864 -0.7215
10813TIP3   OH253929   1.809   5.960  11.463  0.4425 -0.1197 -0.7116
10813TIP3    H153930   1.778   6.049  11.448  2.9318  0.5991 -1.9086
10813TIP3    H253931   1.730   5.908  11.473 -1.0649  2.2814  0.3981
10814TIP3   OH253932   2.502   3.140   3.927  0.1026 -0.1871 -0.3920
10814TIP3    H153933   2.409   3.162   3.928 -0.0893 -0.9791 -0.4819
10814TIP3    H253934   2.542   3.202   3.865 -0.2545  0.5698  0.1273
10815TIP3   OH253935   5.959   3.472   5.822 -0.4137 -0.0593 -0.4170
10815TIP3    H153936   5.894   3.402   5.815 -0.8706  0.4160 -1.0878
10815TIP3    H253937   5.998   3.461   5.908 -1.0267 -0.6692 -0.2136
10816TIP3   OH253938   3.365   6.114  13.853 -0.2389  0.2975 -0.4655
10816TIP3    H153939   3.406   6.044  13.801 -0.5112 -0.3297  0.1600
10816TIP3    H253940   3.346   6.073  13.937  0.2823  1.3482  0.1653
10817TIP3   OH253941   6.400   3.668   3.025 -0.7220 -0.0735  0.6398
10817TIP3    H153942   6.367   3.585   2.991  0.6818  0.1561 -1.3771
10817TIP3    H253943   6.476   3.645   3.077  0.1254 -0.0179 -0.5462
10818TIP3   OH253944   1.298   4.494  12.740 -0.4842 -0.3301 -0.6711
10818TIP3    H153945   1.307   4.400  12.725 -0.1649 -0.4023 -0.0424
10818TIP3    H253946   1.244   4.501  12.818  0.2903 -0.0119 -0.1555
10819TIP3   OH253947   2.313   0.310  12.774  0.5844  0.5385  0.3859
10819TIP3    H153948   2.252   0.374  12.738  0.5128 -0.6867 -1.7562
10819TIP3    H253949   2.260   0.256  12.832  0.0650  0.7475  0.1031
10820TIP3   OH253950   2.380   4.047  10.738  0.5579  0.5919 -0.4708
10820TIP3    H153951   2.439   4.113  10.702  0.0729 -0.0333 -2.4852
10820TIP3    H253952   2.325   4.021  10.664 -0.2237 -1.0119  0.6391
10821TIP3   OH253953   4.343   0.991  16.414  0.0519 -0.2809 -0.2662
10821TIP3    H153954   4.429   0.973  16.375  0.6944  0.0743  0.9561
10821TIP3    H253955   4.358   1.066  16.472 -1.3658  0.5966 -1.0028
10822TIP3   OH253956   0.227   1.792  14.130 -0.2564 -0.4660 -0.0935
10822TIP3    H153957   0.156   1.729  14.142 -0.1731 -0.4794  0.3417
10822TIP3    H253958   0.253   1.782  14.039 -0.3606 -0.9388 -0.0723
10823TIP3   OH253959   4.046   6.695   6.123 -0.2490 -0.0088 -0.1723
10823TIP3    H153960   4.061   6.770   6.065 -0.9181 -0.3453 -0.7829
10823TIP3    H253961   4.134   6.664   6.144  0.2725  3.3964  3.3554
10824TIP3   OH253962   2.672   2.577   1.466  0.2666 -0.0152  0.3182
10824TIP3    H153963   2.582   2.546   1.452 -0.1779  0.1567  2.5177
10824TIP3    H253964   2.660   2.667   1.497  1.3184  0.7389 -1.4035
10825TIP3   OH253965   2.094   0.230  16.291  0.6269  0.6235 -0.2899
10825TIP3    H153966   2.128   0.158  16.344  0.3754  0.3954 -0.4349
10825TIP3    H253967   2.172   0.278  16.262  0.8383  0.0189 -0.7379
10826TIP3   OH253968   1.477   0.010  16.263 -0.4628  0.0875 -0.6113
10826TIP3    H153969   1.430  -0.073  16.256 -1.1708  0.2754  1.3875
10826TIP3    H253970   1.410   0.077  16.250 -0.0924  0.3477 -1.1836
10827TIP3   OH253971   4.302   1.593   4.817 -0.1842 -0.2974  0.2062
10827TIP3    H153972   4.332   1.539   4.889  1.3695 -0.7901 -0.7865
10827TIP3    H253973   4.281   1.531   4.747 -0.5078  0.2436 -0.1831
10828TIP3   OH253974   2.580   2.485  14.554  0.2315 -0.4522 -0.8222
10828TIP3    H153975   2.650   2.539  14.589 -1.2940  0.7385  0.4340
10828TIP3    H253976   2.556   2.427  14.626 -1.5576  0.6370 -0.5288
10829TIP3   OH253977   3.621   4.127  11.331  0.1879  0.6411 -0.1313
10829TIP3    H153978   3.686   4.190  11.302 -0.5951  1.2224 -0.6244
10829TIP3    H253979   3.549   4.180  11.365  0.9456  0.0030  2.6257
10830TIP3   OH253980   2.183   2.429   2.456 -1.2480  0.3357 -0.2189
10830TIP3    H153981   2.145   2.515   2.471  0.0229  0.7996  0.3909
10830TIP3    H253982   2.246   2.417   2.527 -1.3203 -1.0434 -0.3643
10831TIP3   OH253983   4.009   5.576  10.512  0.3012  0.3159  0.1683
10831TIP3    H153984   4.000   5.668  10.535  0.8236  0.6767 -1.0298
10831TIP3    H253985   4.083   5.574  10.451 -0.3381 -0.7607 -0.5816
10832TIP3   OH253986   2.399   2.572  16.425  0.0957  0.0891  0.0170
10832TIP3    H153987   2.322   2.551  16.373  0.5824  0.3549 -0.8243
10832TIP3    H253988   2.380   2.657  16.464  0.0329  0.2387 -0.3375
10833TIP3   OH253989   0.970   4.738  11.828 -0.0836  0.0341  0.0804
10833TIP3    H153990   0.922   4.821  11.825  0.6992  0.5366  1.2839
10833TIP3    H253991   0.969   4.713  11.920  0.1111 -1.0526 -0.2052
10834TIP3   OH253992   0.259   0.243   0.715  0.1336 -0.3115  0.0975
10834TIP3    H153993   0.232   0.198   0.795  1.1358  0.0848  0.6709
10834TIP3    H253994   0.274   0.173   0.652 -0.0242 -0.6697  0.4544
10835TIP3   OH253995   2.161   6.388  14.087 -0.0470  0.2631  0.3225
10835TIP3    H153996   2.067   6.374  14.071  0.3580 -0.1847 -1.7586
10835TIP3    H253997   2.185   6.316  14.146 -0.5269 -0.9992 -0.9819
10836TIP3   OH253998   5.549   4.422   3.399 -0.1650 -0.2746 -0.5551
10836TIP3    H153999   5.605   4.421   3.321 -0.1904 -1.2675 -0.5747
10836TIP3    H254000   5.540   4.329   3.423 -0.1572  0.0184  0.6298
10837TIP3   OH254001   3.270   5.026   5.961  0.0848 -0.2435  0.9070
10837TIP3    H154002   3.354   4.996   5.994  0.0585 -1.4966 -0.1301
10837TIP3    H254003   3.214   4.948   5.965 -0.7368  0.3309  0.6653
10838TIP3   OH254004   1.946   1.218   6.198  0.3762  0.2180  0.0194
10838TIP3    H154005   1.912   1.135   6.231  0.3801  0.5583  0.8981
10838TIP3    H254006   2.005   1.249   6.266 -2.0079  2.4676  1.1716
10839TIP3   OH254007   4.522   4.693  13.505 -0.2177 -0.1516  0.0585
10839TIP3    H154008   4.542   4.758  13.572 -0.8093 -1.1615  1.2311
10839TIP3    H254009   4.571   4.722  13.428 -0.1417  1.4411  0.6884
10840TIP3   OH254010   5.998   3.647  16.332 -0.4441 -0.2068 -0.3907
10840TIP3    H154011   5.917   3.606  16.362 -1.2749  1.7709  0.1632
10840TIP3    H254012   6.066   3.609  16.388 -1.7549  2.2684  3.0825
10841TIP3   OH254013   5.203   0.062  13.031 -0.0742  0.3456 -0.8629
10841TIP3    H154014   5.276   0.009  13.062  0.8671  1.5147 -1.0220
10841TIP3    H254015   5.136   0.053  13.098  0.4276 -0.3045 -0.4414
10842TIP3   OH254016   4.120   6.013  16.555  0.0560 -0.0758  0.2254
10842TIP3    H154017   4.130   6.072  16.479 -0.8331  0.3177  0.4132
10842TIP3    H254018   4.210   5.993  16.581  0.3738 -0.2451 -0.9582
10843TIP3   OH254019   3.759   1.691   5.734  0.2548  0.5965 -0.2381
10843TIP3    H154020   3.829   1.626   5.743 -0.5565 -0.5607 -1.9994
10843TIP3    H254021   3.681   1.648   5.768  0.0309  1.2492  0.0899
10844TIP3   OH254022   5.304   5.081  10.751 -1.3830  0.0760  0.2767
10844TIP3    H154023   5.322   5.116  10.664 -0.3383 -0.2961  0.3373
10844TIP3    H254024   5.251   5.149  10.793  1.8091  2.2825  0.8938
10845TIP3   OH254025   3.981   0.899   5.650 -0.4939 -0.1086  0.2182
10845TIP3    H154026   3.896   0.867   5.680 -1.3934  0.2168 -1.8910
10845TIP3    H254027   3.963   0.937   5.564  1.7827  0.0281 -0.2230
10846TIP3   OH254028   1.021   2.582  11.694  0.3619 -0.3514 -0.3828
10846TIP3    H154029   0.950   2.533  11.654  1.4384 -0.9351 -1.6010
10846TIP3    H254030   1.036   2.656  11.636  0.8987 -0.3625 -0.2671
10847TIP3   OH254031   2.267   3.302  17.228  0.1075 -0.0562  0.0362
10847TIP3    H154032   2.269   3.377  17.169 -0.9210 -1.5741 -2.0113
10847TIP3    H254033   2.353   3.261  17.217  0.9293  1.1866  1.6810
10848TIP3   OH254034   1.114   1.621   1.415  0.0139 -0.1917 -0.1738
10848TIP3    H154035   1.130   1.591   1.504  0.8705 -0.7081 -0.4938
10848TIP3    H254036   1.021   1.606   1.401 -0.0187 -0.6068  0.4574
10849TIP3   OH254037   4.526   1.041   6.462 -0.6498 -0.1352  0.1125
10849TIP3    H154038   4.466   0.982   6.416 -1.2679 -0.7807  1.6842
10849TIP3    H254039   4.499   1.035   6.554 -0.0080  1.7733  0.4476
10850TIP3   OH254040   0.237   3.540   3.796 -0.7777 -0.1705  0.2547
10850TIP3    H154041   0.185   3.600   3.849  1.0224  1.9085 -0.2572
10850TIP3    H254042   0.183   3.524   3.719 -0.3250  2.7274 -0.7328
10851TIP3   OH254043   0.818   4.001  15.455  0.2489  0.4503  0.1864
10851TIP3    H154044   0.907   4.013  15.422  0.4651 -1.0113  0.2028
10851TIP3    H254045   0.801   4.079  15.507  0.1173  2.5413 -2.8460
10852TIP3   OH254046   4.285   1.266   3.524 -0.2418 -0.1745  0.1536
10852TIP3    H154047   4.304   1.180   3.486  0.8809  1.0253 -2.0923
10852TIP3    H254048   4.219   1.304   3.465 -0.8573  0.4524  1.2269
10853TIP3   OH254049   4.878   4.601  13.603 -0.3449  0.6852  0.3213
10853TIP3    H154050   4.905   4.692  13.592  0.0236  0.7663  1.7383
10853TIP3    H254051   4.784   4.605  13.620 -0.1457  0.8949  1.4127
10854TIP3   OH254052   3.247   2.305   3.923  0.6480 -0.0607 -0.0135
10854TIP3    H154053   3.214   2.259   4.001 -1.6841  1.3545 -0.1135
10854TIP3    H254054   3.268   2.393   3.955 -0.1495  0.4702 -0.9438
10855TIP3   OH254055   5.631   1.733   2.178  0.3273 -0.0152 -0.0811
10855TIP3    H154056   5.655   1.807   2.121 -0.6781  0.8290  0.5750
10855TIP3    H254057   5.703   1.727   2.241  0.1511  0.7468  0.1970
10856TIP3   OH254058   0.590   6.673  16.373  0.2042  0.4186  0.0038
10856TIP3    H154059   0.667   6.718  16.339 -0.6598  2.3991  0.5834
10856TIP3    H254060   0.619   6.583  16.386  2.1761  0.9368 -0.5792
10857TIP3   OH254061   0.182   2.600  11.811 -0.2241 -0.4240 -0.2046
10857TIP3    H154062   0.096   2.624  11.847 -0.9002  0.2922 -2.2026
10857TIP3    H254063   0.190   2.506  11.828 -0.7235 -0.1958  1.3575
10858TIP3   OH254064   5.206   1.562  15.306 -0.3395  0.3022 -0.2876
10858TIP3    H154065   5.287   1.532  15.265 -1.1682 -1.8136 -0.4261
10858TIP3    H254066   5.220   1.548  15.400 -0.6888 -0.4623 -0.3441
10859TIP3   OH254067   4.554   2.176  15.856  0.2064  0.7106  0.7492
10859TIP3    H154068   4.575   2.084  15.848  0.3476  0.5652  2.5319
10859TIP3    H254069   4.638   2.221  15.845  0.3454  0.5500  1.1521
10860TIP3   OH254070   0.205   4.394  14.046 -0.1795  0.3142 -0.1952
10860TIP3    H154071   0.277   4.455  14.029  0.3215 -0.6951 -1.8557
10860TIP3    H254072   0.174   4.370  13.959 -0.4241 -1.7396  0.4502
10861TIP3   OH254073   2.791   3.662   0.275 -0.0159  0.5557 -0.7201
10861TIP3    H154074   2.741   3.600   0.221 -2.4924  0.0265  2.0254
10861TIP3    H254075   2.866   3.611   0.306  0.0897  0.1397 -1.6194
10862TIP3   OH254076   4.163   2.893  15.303 -0.2719  0.2146  0.3712
10862TIP3    H154077   4.149   2.960  15.237 -0.1325  0.1122  0.2376
10862TIP3    H254078   4.079   2.848  15.310  0.2866 -1.1331 -1.2392
10863TIP3   OH254079   6.081   6.598   2.014  1.0180 -0.2569  0.0608
10863TIP3    H154080   6.048   6.685   1.989 -0.7541 -1.0304 -0.3733
10863TIP3    H254081   6.141   6.574   1.943 -0.6761 -0.5841 -1.2921
10864TIP3   OH254082   0.517   0.970  10.632  0.1217  0.6002 -0.5670
10864TIP3    H154083   0.423   0.961  10.617 -0.2046  0.8825  1.2043
10864TIP3    H254084   0.554   0.885  10.606 -0.3526  1.1682 -3.1663
10865TIP3   OH254085   2.892   4.114  12.537 -0.6652  0.4287 -0.2593
10865TIP3    H154086   2.858   4.059  12.607  0.6404 -0.1418 -0.0497
10865TIP3    H254087   2.902   4.055  12.462  0.2055  0.4857 -0.2021
10866TIP3   OH254088   4.117   4.922   6.018 -0.2669  0.5500 -0.3336
10866TIP3    H154089   4.023   4.929   6.035 -0.1159  3.3636 -0.3746
10866TIP3    H254090   4.156   4.914   6.105 -0.4075  1.6021 -0.1656
10867TIP3   OH254091   3.099   2.880   6.438  0.4541 -0.1126  0.5275
10867TIP3    H154092   3.080   2.789   6.463  0.8944 -0.3992 -0.1771
10867TIP3    H254093   3.161   2.873   6.366 -1.3406  0.7029 -1.1260
10868TIP3   OH254094   0.697   4.358   0.463  0.4308  0.1369  0.7106
10868TIP3    H154095   0.692   4.278   0.411 -1.2342  1.0751 -0.6483
10868TIP3    H254096   0.714   4.427   0.399 -2.4357  1.4257  1.2622
10869TIP3   OH254097   0.834   1.888  14.994  0.2811  0.0154 -0.1890
10869TIP3    H154098   0.912   1.937  14.968  1.3180 -1.8056 -0.5482
10869TIP3    H254099   0.762   1.933  14.949  1.3908  0.3047 -1.6954
10870TIP3   OH254100   6.736   0.794  14.032 -0.4338 -0.1460 -0.1523
10870TIP3    H154101   6.817   0.795  14.083  0.6665  0.4017 -1.8622
10870TIP3    H254102   6.711   0.702  14.029 -0.5318 -0.1872  1.3748
10871TIP3   OH254103   5.196   4.533  11.899 -0.5412  0.0946 -0.4429
10871TIP3    H154104   5.167   4.543  11.808  0.5237  1.1987 -0.6820
10871TIP3    H254105   5.277   4.585  11.903 -0.1123 -0.6746  0.9045
10872TIP3   OH254106   0.926   0.451   0.516  0.2040  0.2755 -0.1141
10872TIP3    H154107   0.909   0.383   0.581 -0.0501 -0.6925 -1.1845
10872TIP3    H254108   1.016   0.477   0.532  0.0471  0.2807  0.8309
10873TIP3   OH254109   6.689   0.365   2.896  0.0791 -0.1494 -0.2564
10873TIP3    H154110   6.631   0.419   2.842  0.2308 -0.2046 -0.4733
10873TIP3    H254111   6.642   0.356   2.979 -1.7150 -2.8587 -1.4848
10874TIP3   OH254112   1.010   1.986  15.710 -0.1385  0.1911 -0.1629
10874TIP3    H154113   1.057   1.916  15.755  0.3954  1.7313  1.7425
10874TIP3    H254114   0.970   2.037  15.780 -1.0352  1.4396 -1.5545
10875TIP3   OH254115   0.882   0.430  17.130 -0.2537  0.0644  0.3740
10875TIP3    H154116   0.920   0.349  17.096  1.9120  0.8539  0.8164
10875TIP3    H254117   0.858   0.410  17.220  1.1360  0.1372  0.7797
10876TIP3   OH254118   1.499   2.709   0.946  0.4827  0.1187 -0.1026
10876TIP3    H154119   1.560   2.767   0.992 -0.7482  0.1829  1.5015
10876TIP3    H254120   1.416   2.756   0.948  0.2663 -0.1555 -1.8979
10877TIP3   OH254121   2.994   6.655   3.936 -0.2725  0.6089  0.9777
10877TIP3    H154122   2.934   6.682   3.866 -0.9039 -1.1938  0.7934
10877TIP3    H254123   3.081   6.660   3.896 -0.4386  1.5409  0.7048
10878TIP3   OH254124   3.752   3.804  12.251 -0.2403 -0.0597 -0.3357
10878TIP3    H154125   3.702   3.825  12.172 -0.1499  3.0748  0.3803
10878TIP3    H254126   3.842   3.825  12.227 -0.3550  2.0309  0.9026
10879TIP3   OH254127   0.982   4.015  11.685  0.3005  0.8920  0.3951
10879TIP3    H154128   0.939   4.036  11.602  1.3562  1.6878  0.0367
10879TIP3    H254129   1.026   3.931  11.668 -2.1568 -0.6172  1.1747
10880TIP3   OH254130   6.004   4.349   3.580  0.1617  0.0147  0.0250
10880TIP3    H154131   6.098   4.369   3.574  0.3465 -0.4239  1.2087
10880TIP3    H254132   5.961   4.434   3.571  0.9173  1.0735  4.8494
10881TIP3   OH254133   2.631   2.837   1.529 -0.3044 -0.2408 -0.1401
10881TIP3    H154134   2.668   2.880   1.607 -0.6633  0.4789 -0.3565
10881TIP3    H254135   2.696   2.853   1.461 -0.9741  1.0188 -0.5189
10882TIP3   OH254136   1.103   0.192   3.754  0.7622  0.1337 -0.2163
10882TIP3    H154137   1.014   0.184   3.788 -0.1738  1.1805 -2.2991
10882TIP3    H254138   1.144   0.257   3.811 -0.1490  0.4238  0.1316
10883TIP3   OH254139   2.935   3.553   3.619 -0.0363  0.0701 -0.3407
10883TIP3    H154140   2.984   3.635   3.617 -0.6151  0.4183 -0.6743
10883TIP3    H254141   2.993   3.490   3.576  0.4096  0.3064 -0.0924
10884TIP3   OH254142   6.252   6.739  11.754  0.5504 -0.5345  0.4198
10884TIP3    H154143   6.271   6.810  11.694  0.2584 -0.2664  0.6424
10884TIP3    H254144   6.335   6.694  11.766  0.9512  0.3650  1.0613
10885TIP3   OH254145   2.883   1.820  11.591  0.5842  0.0187  0.6695
10885TIP3    H154146   2.856   1.900  11.546  0.6367 -0.5087 -0.3039
10885TIP3    H254147   2.809   1.797  11.647 -0.1109 -0.2002 -0.3369
10886TIP3   OH254148   5.946   6.101   2.490  0.1905 -0.0350 -0.0862
10886TIP3    H154149   6.021   6.158   2.506  0.9613 -0.9883 -0.2615
10886TIP3    H254150   5.882   6.126   2.557  1.0432  0.1036  0.6814
10887TIP3   OH254151   3.776   2.404   2.093 -0.2012  0.0739 -0.1594
10887TIP3    H154152   3.799   2.312   2.087 -1.3393 -0.0889 -2.2955
10887TIP3    H254153   3.841   2.441   2.154 -0.1034 -2.2195  1.1760
10888TIP3   OH254154   5.954   5.773   4.743 -0.1043 -0.3344  0.0965
10888TIP3    H154155   6.021   5.720   4.787 -0.0174 -0.2636  0.0499
10888TIP3    H254156   5.994   5.859   4.732  0.8591 -1.0681 -2.4541
10889TIP3   OH254157   4.620   3.908  14.698 -1.1836 -0.1857 -0.2327
10889TIP3    H154158   4.550   3.961  14.659 -0.8910 -0.1443 -0.7073
10889TIP3    H254159   4.685   3.971  14.728 -0.8371 -0.2752 -0.7950
10890TIP3   OH254160   5.145   3.353  11.455 -0.1491 -0.1340  0.7925
10890TIP3    H154161   5.107   3.436  11.425 -0.6998  0.4458  3.0136
10890TIP3    H254162   5.230   3.378  11.491  0.3178 -0.7673  0.1619
10891TIP3   OH254163   6.566   0.243  11.877  0.2508 -0.2903 -0.6756
10891TIP3    H154164   6.648   0.276  11.913 -0.3095 -0.3579  0.7055
10891TIP3    H254165   6.587   0.155  11.846  0.4724 -0.6977  0.6036
10892TIP3   OH254166   6.279   4.662  13.973 -0.0822 -0.1739 -0.2576
10892TIP3    H154167   6.261   4.569  13.981  0.8557 -0.2541  1.0291
10892TIP3    H254168   6.370   4.667  13.944 -0.6690  0.3200 -2.0720
10893TIP3   OH254169   2.891   4.682  17.198  0.0966  0.1097 -1.0415
10893TIP3    H154170   2.814   4.725  17.238  0.4209 -1.1984  1.0766
10893TIP3    H254171   2.879   4.695  17.104 -2.3179  0.6260 -0.7119
10894TIP3   OH254172   5.276   3.265   5.355 -0.1264  0.5083 -0.2853
10894TIP3    H154173   5.271   3.287   5.448  0.1586 -0.2698 -0.0800
10894TIP3    H254174   5.368   3.276   5.332  0.0434 -0.5167 -0.1547
10895TIP3   OH254175   1.815   4.147   4.715  0.1496 -0.1712 -0.0232
10895TIP3    H154176   1.760   4.172   4.640  0.1400  0.2312  0.1221
10895TIP3    H254177   1.886   4.096   4.675 -0.8574 -1.5548 -0.1095
10896TIP3   OH254178   1.974   5.111  16.198  0.2611 -0.1897 -0.2476
10896TIP3    H154179   1.922   5.120  16.278  0.7908  0.6988  0.0035
10896TIP3    H254180   1.957   5.191  16.149  0.7660 -0.2510 -0.5296
10897TIP3   OH254181   1.233   5.761   0.998 -0.7074  0.4733  0.3318
10897TIP3    H154182   1.214   5.702   1.071  1.9269 -1.6566 -0.6594
10897TIP3    H254183   1.187   5.723   0.924  0.7329 -0.1795 -0.2363
10898TIP3   OH254184   0.294   3.406  17.059 -0.4217  0.4167 -0.5755
10898TIP3    H154185   0.362   3.406  16.992 -0.4439 -1.5200 -0.6208
10898TIP3    H254186   0.329   3.351  17.129 -1.2631  0.7409  0.1147
10899TIP3   OH254187   6.366   4.010  11.478 -0.3336  0.5893 -0.9188
10899TIP3    H154188   6.318   3.980  11.401 -0.7620  0.3522 -0.5572
10899TIP3    H254189   6.331   4.097  11.496 -0.4319  0.5309 -0.8244
10900TIP3   OH254190   5.824   4.614   0.709 -0.2690 -0.5559 -0.2598
10900TIP3    H154191   5.770   4.667   0.650 -0.6846 -0.8904 -0.1798
10900TIP3    H254192   5.914   4.626   0.676 -0.2764  0.7619  0.2001
10901TIP3   OH254193   5.524   5.192  13.041 -0.9919  0.2005 -0.5913
10901TIP3    H154194   5.488   5.139  13.112 -1.8708 -0.0276 -1.1960
10901TIP3    H254195   5.509   5.282  13.069  1.0419  0.1576  0.7081
10902TIP3   OH254196   1.695   4.165   5.650 -0.2013 -0.0694 -0.2743
10902TIP3    H154197   1.729   4.140   5.564  0.2485 -1.8834  0.3938
10902TIP3    H254198   1.631   4.097   5.671  1.5939 -1.1881  1.9282
10903TIP3   OH254199   4.227   3.166   4.056 -0.2080 -0.3196  0.6789
10903TIP3    H154200   4.190   3.193   3.972 -0.0588  0.4876  0.8637
10903TIP3    H254201   4.296   3.230   4.074 -0.3113 -0.4184  1.4677
10904TIP3   OH254202   5.203   2.469  14.883  0.3473  0.0803  0.0235
10904TIP3    H154203   5.263   2.417  14.829 -0.1153 -0.2275 -0.1989
10904TIP3    H254204   5.133   2.494  14.823 -0.3313 -0.5308  0.5532
10905TIP3   OH254205   4.225   4.748   1.570  0.1207 -0.1928  0.5985
10905TIP3    H154206   4.282   4.724   1.497 -1.0659 -0.4337 -0.2628
10905TIP3    H254207   4.143   4.701   1.554 -0.5850  0.7162  1.4209
10906TIP3   OH254208   3.924   6.701  15.765  0.1046  0.4097  0.3391
10906TIP3    H154209   3.994   6.740  15.713  0.0383  1.9922  1.3876
10906TIP3    H254210   3.878   6.776  15.803 -1.5523 -0.6437  0.4440
10907TIP3   OH254211   1.373   2.933   3.769  0.2028 -0.2251 -0.5191
10907TIP3    H154212   1.336   3.021   3.780  0.6865  0.2340 -2.3610
10907TIP3    H254213   1.453   2.934   3.821 -0.4770 -0.0154  0.5305
10908TIP3   OH254214   3.168   5.479   6.146 -0.2531  0.4521 -0.6808
10908TIP3    H154215   3.172   5.383   6.145 -1.6725  0.3820 -2.5648
10908TIP3    H254216   3.164   5.502   6.239 -0.1708 -1.3327 -0.2222
10909TIP3   OH254217   2.003   4.001  16.098  0.2621  0.1060 -0.5085
10909TIP3    H154218   1.971   4.001  16.008 -0.3212 -0.9224 -0.3147
10909TIP3    H254219   2.083   4.054  16.095  1.2123 -1.3529 -1.9962
10910TIP3   OH254220   4.821   1.025   1.640 -0.4563  0.2414  0.3696
10910TIP3    H154221   4.788   0.936   1.630  1.2884 -0.5046  0.8822
10910TIP3    H254222   4.790   1.072   1.563 -1.6712 -0.7218  0.2599
10911TIP3   OH254223   5.990   6.245  13.551  0.0246 -0.8449  0.1932
10911TIP3    H154224   5.979   6.184  13.478  0.4637  0.8372 -1.3298
10911TIP3    H254225   6.084   6.262  13.554 -0.1407  0.0465  0.3561
10912TIP3   OH254226   6.719   3.732   4.396  0.2537  0.2289  0.1959
10912TIP3    H154227   6.738   3.638   4.394 -1.5171 -0.1194 -1.7404
10912TIP3    H254228   6.717   3.758   4.304 -4.0429  1.1265  0.4714
10913TIP3   OH254229   3.122   1.482   2.989 -0.1841 -0.1460  0.7203
10913TIP3    H154230   3.204   1.515   2.952  0.4069 -2.5920 -0.1952
10913TIP3    H254231   3.073   1.562   3.011  2.3483  1.3537  1.1666
10914TIP3   OH254232   2.504   4.736  15.967 -0.2624  0.4391 -0.1040
10914TIP3    H154233   2.516   4.822  16.007 -0.9828  0.0496  0.9578
10914TIP3    H254234   2.519   4.751  15.873 -2.2430  2.0837 -0.1790
10915TIP3   OH254235   1.776   4.084  12.649  0.4559  0.3284  0.8144
10915TIP3    H154236   1.772   4.089  12.744 -2.4743  2.8262  0.6251
10915TIP3    H254237   1.782   3.990  12.630 -0.0963 -0.2634  3.3994
10916TIP3   OH254238   6.190   4.985  14.273 -0.2199  0.0030 -0.1651
10916TIP3    H154239   6.163   4.894  14.262  0.8749 -0.3379 -0.0819
10916TIP3    H254240   6.116   5.027  14.318  0.5067 -1.5709  2.6139
10917TIP3   OH254241   2.677   1.698   2.892 -0.4539 -0.2557 -0.5827
10917TIP3    H154242   2.592   1.659   2.912  0.0780 -1.9421 -1.5080
10917TIP3    H254243   2.665   1.792   2.908 -1.5757 -0.8565  2.2932
10918TIP3   OH254244   2.978   6.080   5.122 -0.3859  0.0036 -0.1025
10918TIP3    H154245   2.989   6.000   5.070  1.7531 -0.5114  1.0966
10918TIP3    H254246   2.899   6.065   5.173  0.6624 -1.9008  1.0255
10919TIP3   OH254247   5.595   2.976  12.828  0.2372  0.0678 -0.0694
10919TIP3    H154248   5.592   3.036  12.903  1.3757  0.1581 -0.0998
10919TIP3    H254249   5.521   2.917  12.843 -0.1263  0.6845  0.6261
10920TIP3   OH254250   5.419   3.367  11.505 -0.2650 -0.0741 -0.9876
10920TIP3    H154251   5.434   3.272  11.508 -0.7421 -0.1369 -0.6506
10920TIP3    H254252   5.461   3.395  11.423  3.0861 -0.0041  0.6808
10921TIP3   OH254253   3.584   6.066   6.630  0.3942  0.2417  0.0233
10921TIP3    H154254   3.609   6.155   6.605 -0.0937  0.5303  0.5318
10921TIP3    H254255   3.665   6.016   6.627  0.3743  0.2931 -2.0175
10922TIP3   OH254256   3.219   4.243  12.073  0.0940 -0.0867 -0.4712
10922TIP3    H154257   3.305   4.204  12.091 -0.2496 -1.2007 -1.2140
10922TIP3    H254258   3.199   4.293  12.151  0.0344 -2.3085  0.9838
10923TIP3   OH254259   4.235   0.789   1.854  0.0901  0.2927 -0.6014
10923TIP3    H154260   4.190   0.873   1.857 -2.1776 -0.8592 -0.9503
10923TIP3    H254261   4.282   0.791   1.770  0.0223  1.1988 -0.6243
10924TIP3   OH254262   3.823   0.614  14.844  0.0299  0.0312  0.5532
10924TIP3    H154263   3.809   0.521  14.830  1.3308 -0.0900 -0.0068
10924TIP3    H254264   3.852   0.647  14.758  0.4039  0.7802  0.9644
10925TIP3   OH254265   3.695   4.960  10.715  0.0978 -0.3706 -0.0879
10925TIP3    H154266   3.605   4.954  10.685  0.3035  0.5906 -0.9325
10925TIP3    H254267   3.701   5.044  10.761  0.3765 -0.7731  0.6334
10926TIP3   OH254268   4.918   3.997   1.231 -0.1031  0.0629  0.2482
10926TIP3    H154269   4.864   4.069   1.264 -0.0736  0.6885 -1.0200
10926TIP3    H254270   4.901   3.996   1.137  1.8216  0.0330 -0.1218
10927TIP3   OH254271   6.190   6.497  11.948  0.4958  0.5904 -0.0009
10927TIP3    H154272   6.275   6.492  11.904  0.0833  1.2639 -0.8780
10927TIP3    H254273   6.176   6.409  11.982  1.1933  0.2826 -0.5027
10928TIP3   OH254274   2.248   2.713  11.097  0.2363  0.9060 -0.3201
10928TIP3    H154275   2.279   2.801  11.119  0.5910  0.9735 -1.0740
10928TIP3    H254276   2.320   2.674  11.047 -0.1499  0.4001 -0.4842
10929TIP3   OH254277   5.046   5.223  11.517 -1.1351  0.0068  0.0385
10929TIP3    H154278   4.988   5.178  11.578 -0.5489 -0.3576  0.3321
10929TIP3    H254279   5.012   5.312  11.511 -0.4798  0.3993  1.8383
10930TIP3   OH254280   2.828   0.048   5.670 -0.3553 -0.5554 -0.0689
10930TIP3    H154281   2.829  -0.001   5.752 -0.0120 -0.3995  0.0171
10930TIP3    H254282   2.777  -0.007   5.610 -0.8886 -0.5122  0.3460
10931TIP3   OH254283   2.099   6.791  16.413 -0.0428 -0.8322 -0.2078
10931TIP3    H154284   2.189   6.776  16.385  0.5875  0.4590  1.0211
10931TIP3    H254285   2.105   6.803  16.508 -1.4092  0.0426 -0.2154
10932TIP3   OH254286   6.055   3.670  10.372 -0.6221 -0.7192  0.1556
10932TIP3    H154287   6.036   3.589  10.418 -0.9553 -1.2412 -0.8963
10932TIP3    H254288   6.012   3.661  10.287  1.6599 -0.6361 -1.0672
10933TIP3   OH254289   4.478   1.031   5.390  0.2950  0.3655  0.0843
10933TIP3    H154290   4.495   1.068   5.476 -1.6030 -0.3848  0.8057
10933TIP3    H254291   4.429   1.098   5.343 -1.3173 -0.3910  0.6611
10934TIP3   OH254292   1.048   5.337   6.186  0.2801 -0.0033 -0.2328
10934TIP3    H154293   0.967   5.370   6.224 -0.7012 -0.9908 -1.3967
10934TIP3    H254294   1.106   5.413   6.183 -0.7100  0.7900  0.3438
10935TIP3   OH254295   3.375   3.058   4.542  0.0069 -0.1213  0.0476
10935TIP3    H154296   3.367   3.119   4.468  0.2696  0.5843  0.5971
10935TIP3    H254297   3.289   3.018   4.548  0.2432 -0.8584 -1.2208
10936TIP3   OH254298   0.492   5.064   5.138 -0.2632  0.5829  0.3627
10936TIP3    H154299   0.398   5.059   5.120 -0.0809 -1.9065 -0.1206
10936TIP3    H254300   0.533   5.063   5.051  0.2403 -0.0496  0.5999
10937TIP3   OH254301   1.125   2.729  11.497 -0.2552  0.0307 -0.4468
10937TIP3    H154302   1.154   2.704  11.409 -0.4651 -0.2103 -0.4506
10937TIP3    H254303   1.169   2.812  11.515  0.3947 -0.3128 -0.4662
10938TIP3   OH254304   4.263   3.535   3.886  0.1637 -0.0955 -0.1724
10938TIP3    H154305   4.318   3.499   3.955  1.3222 -0.6533 -1.3527
10938TIP3    H254306   4.173   3.517   3.914  0.6285 -0.4568  1.0914
10939TIP3   OH254307   6.597   3.435   0.962  0.0216 -0.2225  0.0476
10939TIP3    H154308   6.521   3.378   0.950 -0.9269  1.0644 -0.3287
10939TIP3    H254309   6.645   3.398   1.036 -1.0503 -0.9870  0.3665
10940TIP3   OH254310   4.086   6.771   4.849 -0.0870 -0.8996  0.3104
10940TIP3    H154311   4.165   6.811   4.885  0.8153 -0.7387 -1.7461
10940TIP3    H254312   4.019   6.839   4.858  0.8412  0.2021 -0.9445
10941TIP3   OH254313   0.257   5.749   2.863 -0.1848  0.5187  0.2800
10941TIP3    H154314   0.347   5.726   2.842 -0.3537  0.9680 -0.9681
10941TIP3    H254315   0.264   5.815   2.932  0.5074  2.2408 -1.4130
10942TIP3   OH254316   5.317   3.102  13.768 -0.1408 -0.1739 -0.3824
10942TIP3    H154317   5.299   3.188  13.730 -1.4848 -0.3888 -0.2784
10942TIP3    H254318   5.412   3.098  13.776  0.2166 -0.1824 -3.8193
10943TIP3   OH254319   3.179   0.025  13.017  0.1763 -0.1058 -0.1492
10943TIP3    H154320   3.135  -0.047  12.971  0.3193 -0.8066  0.7885
10943TIP3    H254321   3.115   0.053  13.083  0.0978  0.6703 -0.5500
10944TIP3   OH254322   5.637   5.453  15.956 -0.1100 -0.4486 -0.1330
10944TIP3    H154323   5.713   5.458  16.013  0.0606  1.5337 -0.4811
10944TIP3    H254324   5.637   5.537  15.909 -1.2086 -1.3494 -1.7853
10945TIP3   OH254325   0.163   5.077   3.145 -0.1515 -0.0475  0.1399
10945TIP3    H154326   0.161   5.172   3.134 -0.8226 -0.0361  0.3607
10945TIP3    H254327   0.242   5.060   3.197 -1.0114  0.5516  1.6777
10946TIP3   OH254328   5.731   0.142   1.375  0.6891 -0.0100 -0.0640
10946TIP3    H154329   5.670   0.163   1.445  0.6601  0.3037 -0.1843
10946TIP3    H254330   5.688   0.071   1.326 -0.6363  1.7687 -1.5361
10947TIP3   OH254331   6.219   3.760  13.670  0.5173  0.2279 -0.5734
10947TIP3    H154332   6.265   3.681  13.697  0.9581  1.2403  1.8363
10947TIP3    H254333   6.202   3.748  13.577  1.5011 -2.2212 -0.4735
10948TIP3   OH254334   5.565   6.564  14.330  0.1227  0.2908  0.0456
10948TIP3    H154335   5.500   6.629  14.301  1.1946  1.4999  0.2916
10948TIP3    H254336   5.519   6.512  14.396 -0.9425  0.4084 -0.5863
10949TIP3   OH254337   0.726   0.757  15.191  0.2129 -0.6143  0.2712
10949TIP3    H154338   0.699   0.746  15.100  0.3790 -0.8791  0.2530
10949TIP3    H254339   0.657   0.714  15.242  0.2557 -0.7011  0.2566
10950TIP3   OH254340   2.608   0.326  12.878 -0.2981  0.9717 -0.5695
10950TIP3    H154341   2.611   0.365  12.966  1.0767 -0.7901  0.2048
10950TIP3    H254342   2.517   0.300  12.866  0.0011 -1.1810  1.4633
10951TIP3   OH254343   5.177   6.050  12.221  0.2003  0.4559  0.1755
10951TIP3    H154344   5.176   6.066  12.316  1.0026 -2.8463  0.7810
10951TIP3    H254345   5.116   5.978  12.207  1.0874  0.0098 -1.6333
10952TIP3   OH254346   5.138   1.918  11.825 -0.2157  0.1104 -0.6483
10952TIP3    H154347   5.111   1.988  11.766 -3.1197 -1.3115 -1.1031
10952TIP3    H254348   5.135   1.838  11.771  1.9831 -0.5358  0.1355
10953TIP3   OH254349   5.540   6.357   5.081  0.4378 -0.4129  0.3721
10953TIP3    H154350   5.478   6.421   5.116 -0.1330 -0.9216  0.2846
10953TIP3    H254351   5.526   6.279   5.134 -1.8687 -1.8802 -2.2848
10954TIP3   OH254352   0.267   4.967  15.631  0.2166  1.2662 -0.6602
10954TIP3    H154353   0.273   4.886  15.581 -0.2498  1.7172 -1.4573
10954TIP3    H254354   0.183   5.005  15.605 -0.0547  1.4903  0.4953
10955TIP3   OH254355   3.146   3.616  13.215  0.3546  0.3398 -0.2201
10955TIP3    H154356   3.081   3.560  13.171  1.2397 -0.7838 -0.1268
10955TIP3    H254357   3.096   3.664  13.280 -0.5585  0.2222 -0.8194
10956TIP3   OH254358   3.589   2.583  13.657 -0.1448  0.5271  0.4471
10956TIP3    H154359   3.633   2.662  13.624 -0.4148  0.0206 -1.1477
10956TIP3    H254360   3.601   2.518  13.588  2.8766 -1.8669  3.0780
10957TIP3   OH254361   4.215   5.785   0.170 -0.0595 -0.2666 -0.6596
10957TIP3    H154362   4.258   5.764   0.252 -2.3145 -1.5273  0.2605
10957TIP3    H254363   4.284   5.780   0.104  1.2308 -1.9549  0.7836
10958TIP3   OH254364   3.708   3.334   0.831 -0.3559  0.0864 -0.1038
10958TIP3    H154365   3.627   3.309   0.875 -0.7506  0.0681 -0.8383
10958TIP3    H254366   3.680   3.391   0.760  0.5120  2.7269  1.5756
10959TIP3   OH254367   1.273   6.284   0.273  0.1725 -0.1445  0.2067
10959TIP3    H154368   1.253   6.193   0.254 -0.3097  0.1633 -0.8063
10959TIP3    H254369   1.225   6.304   0.353 -1.1523 -0.2779 -0.5454
10960TIP3   OH254370   3.643   3.026  14.657 -0.3942  0.0259  0.2301
10960TIP3    H154371   3.675   3.084  14.726 -5.3981  2.9103  0.3958
10960TIP3    H254372   3.666   3.070  14.575 -1.3226  0.6425  0.2907
10961TIP3   OH254373   0.598   0.305  11.381  0.3204  0.0924 -0.2441
10961TIP3    H154374   0.635   0.222  11.410  1.9352  0.7619 -0.3221
10961TIP3    H254375   0.666   0.343  11.325 -1.0989  0.6798 -1.6015
10962TIP3   OH254376   5.237   3.416  12.141 -0.0235 -0.3090 -0.5114
10962TIP3    H154377   5.167   3.362  12.178  0.4861  0.1633  1.1707
10962TIP3    H254378   5.246   3.385  12.051 -0.4387 -2.3307  0.1202
10963TIP3   OH254379   4.133   6.149   2.415 -0.3641 -0.7591  0.1727
10963TIP3    H154380   4.038   6.138   2.420 -0.6626  1.1325 -0.6694
10963TIP3    H254381   4.169   6.078   2.468 -2.2991 -0.5977  1.7437
10964TIP3   OH254382   2.523   0.405  16.825  0.0020  0.6120  0.1825
10964TIP3    H154383   2.579   0.458  16.768 -0.6184  2.5027  1.2935
10964TIP3    H254384   2.576   0.388  16.902  1.0596 -2.4599 -1.1351
10965TIP3   OH254385   2.318   0.621  12.479 -0.1375  0.1793 -0.7098
10965TIP3    H154386   2.387   0.589  12.537  1.0006  0.2562 -2.0123
10965TIP3    H254387   2.339   0.713  12.464 -1.5456  0.6900  0.3454
10966TIP3   OH254388   6.021   5.881  13.291  0.7639 -0.0868 -0.0794
10966TIP3    H154389   6.066   5.960  13.261 -1.2500  0.7327 -1.0941
10966TIP3    H254390   6.046   5.872  13.383  1.6719  1.2634 -0.1817
10967TIP3   OH254391   6.245   2.146  12.284 -0.4275 -0.2564  0.2097
10967TIP3    H154392   6.314   2.209  12.303  0.6420 -1.1446 -0.6287
10967TIP3    H254393   6.288   2.078  12.231 -1.4223 -1.9680  1.5402
10968TIP3   OH254394   3.468   5.352   2.062 -0.5009  0.4118  0.8588
10968TIP3    H154395   3.441   5.405   1.987  1.1262  1.2199  0.8047
10968TIP3    H254396   3.387   5.317   2.098 -1.1168 -2.6721 -3.1910
10969TIP3   OH254397   3.190   6.256  11.807 -0.1761  0.1910 -0.4866
10969TIP3    H154398   3.238   6.203  11.744  1.7012  0.8707  0.3221
10969TIP3    H254399   3.152   6.193  11.868  2.0084 -0.2917  0.4436
10970TIP3   OH254400   3.757   3.127   0.053  0.6257  0.0799 -0.3232
10970TIP3    H154401   3.786   3.217   0.040  1.8319  0.1348  2.4395
10970TIP3    H254402   3.795   3.101   0.137 -0.6256 -2.6381 -0.5351
10971TIP3   OH254403   4.631   1.569   5.118  0.1795 -0.2230  0.0074
10971TIP3    H154404   4.703   1.597   5.175 -0.6488  0.6153  0.6747
10971TIP3    H254405   4.580   1.648   5.104  0.5309 -0.3551 -2.1917
10972TIP3   OH254406   5.562   3.532   3.075 -0.5065 -0.2210 -0.2185
10972TIP3    H154407   5.544   3.537   3.168  2.4818  1.3952  0.3293
10972TIP3    H254408   5.621   3.457   3.065 -0.2637  0.0287 -0.7131
10973TIP3   OH254409   4.788   6.233  16.499 -0.0103  0.5861 -0.0187
10973TIP3    H154410   4.856   6.195  16.555 -0.0655  1.9666  1.0167
10973TIP3    H254411   4.738   6.290  16.557 -1.8881 -0.2023 -0.8472
10974TIP3   OH254412   4.239   1.235   1.963 -1.1357  0.3594  0.0629
10974TIP3    H154413   4.245   1.178   2.040  0.0318  0.9996  0.4684
10974TIP3    H254414   4.223   1.176   1.890 -2.5918 -0.2298  0.8440
10975TIP3   OH254415   2.372   3.945   3.452 -0.1645  0.0147  0.4028
10975TIP3    H154416   2.387   4.006   3.524  0.5826  0.3535 -0.0392
10975TIP3    H254417   2.427   3.978   3.380 -0.9806 -0.2593 -0.3545
10976TIP3   OH254418   1.383   5.910  13.660  0.0933  0.0085  0.5257
10976TIP3    H154419   1.330   5.860  13.722 -0.6684  2.6091  2.0058
10976TIP3    H254420   1.339   5.995  13.653  1.2919  0.4654 -2.0590
10977TIP3   OH254421   1.519   0.023  12.250 -0.3006  0.3509  0.1146
10977TIP3    H154422   1.512   0.018  12.345 -0.0061  0.5838  0.1469
10977TIP3    H254423   1.435  -0.010  12.218 -0.1544 -0.3566  0.4427
10978TIP3   OH254424   3.359   4.259   3.981  0.4135  0.3124 -0.5013
10978TIP3    H154425   3.404   4.288   4.060 -0.7088 -0.7820  0.5583
10978TIP3    H254426   3.416   4.190   3.945  2.2155  2.5496 -2.0899
10979TIP3   OH254427   4.765   5.915  11.808 -0.4854  0.2582 -0.6987
10979TIP3    H154428   4.838   5.869  11.766 -1.1429 -0.3856 -1.1547
10979TIP3    H254429   4.804   5.993  11.847  0.5687 -0.4439 -0.3312
10980TIP3   OH254430   0.892   6.452  16.764  0.4560 -0.6387  0.4141
10980TIP3    H154431   0.916   6.362  16.786  0.6470 -0.4806  0.8572
10980TIP3    H254432   0.913   6.460  16.671  0.6266 -0.9883  0.4211
10981TIP3   OH254433   5.650   2.478   5.337  0.7057  0.0015  0.5207
10981TIP3    H154434   5.651   2.420   5.414 -2.0224  0.2970  0.8232
10981TIP3    H254435   5.619   2.561   5.371 -1.2760 -0.0784 -1.0340
10982TIP3   OH254436   4.236   1.147   4.795  0.5719 -0.1579  0.2673
10982TIP3    H154437   4.301   1.104   4.850 -0.8435  0.6708  2.6961
10982TIP3    H254438   4.175   1.078   4.772  1.8792 -0.7787 -1.3759
10983TIP3   OH254439   2.409   0.096  11.178  0.2817 -0.3706  0.5343
10983TIP3    H154440   2.414   0.189  11.158  0.8234 -0.7408 -1.2029
10983TIP3    H254441   2.317   0.074  11.168 -0.2824  0.4795  3.4900
10984TIP3   OH254442   1.282   4.353  16.019 -0.3773 -0.2586  0.4021
10984TIP3    H154443   1.193   4.324  15.997 -0.8357  2.2552 -1.2342
10984TIP3    H254444   1.269   4.437  16.063  1.1338 -0.5326  1.4042
10985TIP3   OH254445   3.772   1.907   2.926  0.0747 -0.1527  0.1211
10985TIP3    H154446   3.695   1.960   2.905  0.3707  0.5089  0.6942
10985TIP3    H254447   3.754   1.872   3.013 -0.5185 -1.7498 -0.6061
10986TIP3   OH254448   4.463   4.472   5.611 -0.3535  0.2319 -0.0655
10986TIP3    H154449   4.447   4.389   5.654 -0.2256  0.1364 -0.2008
10986TIP3    H254450   4.412   4.467   5.530 -0.9966  0.6158  0.3112
10987TIP3   OH254451   3.800   4.424   0.834 -0.3433 -0.3843  0.3175
10987TIP3    H154452   3.798   4.354   0.900  1.1463  0.3683  1.1698
10987TIP3    H254453   3.846   4.385   0.760  0.6953 -0.2345  0.8807
10988TIP3   OH254454   1.569   4.013   1.835 -0.0100  0.4247 -0.1334
10988TIP3    H154455   1.543   3.995   1.926  0.5360  1.6983  0.2905
10988TIP3    H254456   1.503   4.074   1.803  1.8710  2.9775  0.6602
10989TIP3   OH254457   4.053   4.003   2.543 -0.0050 -0.3865 -0.3720
10989TIP3    H154458   4.095   4.042   2.620 -1.9266  0.1538  0.4287
10989TIP3    H254459   4.013   4.077   2.497  1.3001 -0.6803 -2.0226
10990TIP3   OH254460   2.302   6.121   2.525 -0.0103  0.2331 -0.1956
10990TIP3    H154461   2.310   6.146   2.432  0.5848  0.8207  0.0050
10990TIP3    H254462   2.348   6.191   2.572  1.1252 -0.9133  0.4293
10991TIP3   OH254463   5.321   1.321  10.869  0.4508 -1.0773 -0.5636
10991TIP3    H154464   5.289   1.387  10.809 -0.8025 -1.0059  0.1615
10991TIP3    H254465   5.295   1.353  10.956  1.2740 -1.7042 -0.0816
10992TIP3   OH254466   6.815   4.756  10.759 -0.6623  0.2670  0.0524
10992TIP3    H154467   6.909   4.760  10.747 -0.2769  1.1890  2.8750
10992TIP3    H254468   6.793   4.663  10.754  0.3414  0.0766 -0.8505
10993TIP3   OH254469   4.254   2.025  12.096  0.2265  0.3912 -0.2979
10993TIP3    H154470   4.234   2.099  12.154  1.0074 -0.8934  1.6769
10993TIP3    H254471   4.168   1.987  12.075  0.0217 -0.3345  1.6998
10994TIP3   OH254472   6.728   4.784  12.474  0.6144  0.2011  0.3623
10994TIP3    H154473   6.659   4.719  12.465  0.1214  0.5037  1.8576
10994TIP3    H254474   6.786   4.749  12.541 -0.7985  2.2570  2.7239
10995TIP3   OH254475   3.340   2.909  17.176 -0.2128 -0.7423  0.0202
10995TIP3    H154476   3.345   2.968  17.251  0.5673 -0.5517 -0.1833
10995TIP3    H254477   3.259   2.935  17.131  0.2055  0.2709 -0.1546
10996TIP3   OH254478   6.508   0.302   4.486 -0.3445  0.5269 -0.4049
10996TIP3    H154479   6.487   0.286   4.394  0.0617  1.0458 -0.5880
10996TIP3    H254480   6.475   0.225   4.532 -0.5772  0.2828 -0.9824
10997TIP3   OH254481   0.211   3.214   0.677 -0.7319 -0.1040  0.5465
10997TIP3    H154482   0.129   3.236   0.634  0.8796  0.5544 -2.3098
10997TIP3    H254483   0.249   3.298   0.702  0.1136 -0.2650 -0.1699
10998TIP3   OH254484   2.203   4.836   3.868  0.6233  0.7227 -0.6455
10998TIP3    H154485   2.165   4.924   3.868  0.4865  0.6648  0.6390
10998TIP3    H254486   2.194   4.807   3.777  2.8823  2.9705 -1.6699
10999TIP3   OH254487   4.759   0.899  14.998 -0.5354 -0.7619  0.3401
10999TIP3    H154488   4.846   0.907  14.960 -0.3035 -0.6308  0.8925
10999TIP3    H254489   4.699   0.914  14.925 -0.0965  1.1551  0.3331
11000TIP3   OH254490   4.446   5.922   3.013  0.6220  0.3168 -0.3016
11000TIP3    H154491   4.356   5.891   3.002  0.8542  0.2194 -2.0700
11000TIP3    H254492   4.437   6.015   3.035  0.0880  0.3583 -0.6859
11001TIP3   OH254493   4.996   1.782   3.200 -0.2333  0.0266 -0.5034
11001TIP3    H154494   4.988   1.690   3.226  0.0249 -0.1119 -0.9028
11001TIP3    H254495   4.980   1.831   3.280  0.8088 -0.4011 -0.0272
11002TIP3   OH254496   1.303   6.548   6.348  0.0525 -0.1063 -0.0868
11002TIP3    H154497   1.252   6.491   6.405  1.6488 -0.2660  1.2326
11002TIP3    H254498   1.327   6.622   6.405  1.2534 -0.0221 -0.7021
11003TIP3   OH254499   6.274   2.397  16.606 -0.0636 -0.7558  0.6066
11003TIP3    H154500   6.335   2.465  16.575  1.5118 -1.8449  1.2734
11003TIP3    H254501   6.288   2.324  16.547 -0.3981 -1.1740  1.0476
11004TIP3   OH254502   4.733   2.197  12.900 -0.2508  0.2265 -0.0592
11004TIP3    H154503   4.801   2.264  12.904 -0.0514 -0.0434  1.3506
11004TIP3    H254504   4.773   2.119  12.939 -1.6000  0.2862  1.5076
11005TIP3   OH254505   5.592   0.028   0.984 -0.1670 -1.3099  1.3168
11005TIP3    H154506   5.520  -0.015   0.939 -0.6514 -0.0505  0.8626
11005TIP3    H254507   5.586  -0.003   1.075  0.4810 -3.4148  0.6624
11006TIP3   OH254508   2.662   5.849   3.773 -0.6216  0.0906 -0.0646
11006TIP3    H154509   2.633   5.792   3.701 -0.4555 -0.2045  0.0973
11006TIP3    H254510   2.725   5.908   3.733  0.1905 -0.6999  0.0277
11007TIP3   OH254511   6.541   2.892  14.885 -0.1255 -0.0630 -0.6532
11007TIP3    H154512   6.490   2.939  14.951 -0.3050 -0.0580 -0.7928
11007TIP3    H254513   6.539   2.801  14.913 -0.2294 -0.0660 -0.6658
11008TIP3   OH254514   2.158   3.961  13.032  0.0249 -0.4969 -0.1428
11008TIP3    H154515   2.206   3.913  12.964  0.0504 -0.5656 -0.0760
11008TIP3    H254516   2.066   3.954  13.006  0.1838  1.1917 -1.2743
11009TIP3   OH254517   2.872   0.001  10.737  0.6213 -0.6094 -0.3191
11009TIP3    H154518   2.824  -0.019  10.657  1.9534 -0.6436 -1.1320
11009TIP3    H254519   2.917   0.083  10.718 -1.7391  1.1976  1.6176
11010TIP3   OH254520   3.013   5.697   2.979 -0.1516 -0.4898  0.6048
11010TIP3    H154521   2.980   5.609   2.959 -0.0951  0.0230 -1.8009
11010TIP3    H254522   3.026   5.696   3.074  0.7169 -3.3800  0.4963
11011TIP3   OH254523   4.527   6.493  14.599  0.5381 -0.4785 -0.2846
11011TIP3    H154524   4.619   6.519  14.596  0.6441 -0.9175 -1.5178
11011TIP3    H254525   4.509   6.461  14.510 -1.4869  1.9098 -0.8007
11012TIP3   OH254526   2.729   2.342   2.791 -0.9178  0.5495  0.4921
11012TIP3    H154527   2.802   2.370   2.847 -1.3908 -0.5695  1.6960
11012TIP3    H254528   2.728   2.247   2.799 -1.4388  0.4270 -0.8913
11013TIP3   OH254529   5.551   2.316  16.774  0.4997  0.1394  0.7614
11013TIP3    H154530   5.532   2.408  16.794 -0.8649 -0.1300  0.7419
11013TIP3    H254531   5.621   2.319  16.709 -1.9742  1.2687 -1.9365
11014TIP3   OH254532   5.033   2.631  13.987  0.0580  0.2761 -0.8665
11014TIP3    H154533   5.092   2.580  14.042 -1.6307 -2.7096 -1.7079
11014TIP3    H254534   5.052   2.602  13.898 -1.4179  0.6166 -1.3071
11015TIP3   OH254535   5.443   1.923  15.510  0.2087  0.1775 -0.5158
11015TIP3    H154536   5.521   1.944  15.560 -0.8760 -0.9745  1.7514
11015TIP3    H254537   5.433   1.828  15.520 -2.0499  0.4423  0.1711
11016TIP3   OH254538   4.656   4.273  15.012  0.5170  0.3335  0.1948
11016TIP3    H154539   4.719   4.268  15.083  0.7179 -1.4763 -0.1000
11016TIP3    H254540   4.573   4.243  15.051  0.2420  0.9676  0.1082
11017TIP3   OH254541   1.291   6.023  10.388 -0.3010 -0.3777  0.1594
11017TIP3    H154542   1.337   5.962  10.445 -1.4329  0.4945  2.0333
11017TIP3    H254543   1.199   6.000  10.398 -0.7413  1.5859  0.8407
11018TIP3   OH254544   6.515   5.306   2.974  0.0573  0.5959  0.0032
11018TIP3    H154545   6.575   5.231   2.972 -1.7453 -0.9164  0.5809
11018TIP3    H254546   6.565   5.375   3.016  1.3498 -0.6776  0.6219
11019TIP3   OH254547   2.982   1.225   0.885 -0.0333  0.3393 -0.3491
11019TIP3    H154548   3.038   1.226   0.963 -0.3969 -1.6810 -0.0202
11019TIP3    H254549   2.992   1.312   0.847  0.1272  1.4004  1.9806
11020TIP3   OH254550   4.247   2.754   1.858 -0.6738  0.2354 -0.1963
11020TIP3    H154551   4.241   2.849   1.868 -1.8573  0.2951 -1.3420
11020TIP3    H254552   4.337   2.733   1.884 -0.6815  1.5499  0.9277
11021TIP3   OH254553   4.989   1.398  13.581 -0.0781 -0.1050 -0.3901
11021TIP3    H154554   5.054   1.380  13.648  0.9196  0.9455 -1.0609
11021TIP3    H254555   4.918   1.442  13.627  0.6487  0.7049 -0.0395
11022TIP3   OH254556   6.688   1.900   5.158 -0.1977  0.7523  0.0430
11022TIP3    H154557   6.655   1.887   5.069  0.4190 -0.3334 -0.0358
11022TIP3    H254558   6.693   1.812   5.195 -0.6757  1.2245  1.2376
11023TIP3   OH254559   6.284   4.767   2.988 -0.3425  0.1547 -0.1313
11023TIP3    H154560   6.351   4.831   3.012  0.5682 -0.5407 -0.7949
11023TIP3    H254561   6.233   4.810   2.919  0.0233  0.3114 -0.3047
11024TIP3   OH254562   4.318   4.623   0.374 -0.0859 -0.7994  0.0028
11024TIP3    H154563   4.247   4.667   0.328 -0.0676 -0.4139  0.3402
11024TIP3    H254564   4.289   4.619   0.465  0.0955 -1.1109  0.0480
11025TIP3   OH254565   2.597   4.053  11.392  0.1691  0.1527 -0.2771
11025TIP3    H154566   2.570   4.128  11.445 -1.3923 -0.8993  0.4369
11025TIP3    H254567   2.519   4.030  11.341  0.1775 -1.9172  0.6126
11026TIP3   OH254568   4.828   5.074  11.968 -0.1088  0.3054 -0.2711
11026TIP3    H154569   4.866   4.988  11.985  0.9045  0.7102 -0.4821
11026TIP3    H254570   4.803   5.071  11.875 -3.7540 -1.1673  0.6541
11027TIP3   OH254571   1.691   4.399   3.115  0.2425 -0.6853  0.1059
11027TIP3    H154572   1.664   4.333   3.178  0.2873  0.0541  0.8969
11027TIP3    H254573   1.636   4.475   3.134  1.5193  0.1679  0.4670
11028TIP3   OH254574   0.015   2.405   4.356 -0.3344 -0.3111  0.2260
11028TIP3    H154575  -0.072   2.441   4.371 -0.3606 -0.8941  1.5508
11028TIP3    H254576   0.069   2.441   4.426  0.9723  1.5818 -1.7026
11029TIP3   OH254577   0.830   2.642   0.906  0.0784 -0.0967  0.2183
11029TIP3    H154578   0.884   2.641   0.985 -1.5081 -0.2017  1.3298
11029TIP3    H254579   0.850   2.725   0.865  3.8549 -1.6878 -1.3873
11030TIP3   OH254580   0.195   2.062   1.040 -0.3930  0.1151 -0.5902
11030TIP3    H154581   0.278   2.071   0.994 -0.0771 -1.4510 -0.3577
11030TIP3    H254582   0.185   1.967   1.054 -0.7402  0.5095  2.0919
11031TIP3   OH254583   4.169   1.101   1.756  0.7438  0.1969 -0.0196
11031TIP3    H154584   4.086   1.148   1.760  1.8555  2.1777  0.7262
11031TIP3    H254585   4.183   1.085   1.663  0.0712  0.8333 -0.2315
11032TIP3   OH254586   2.532   4.614  15.175  0.2639 -0.1753 -0.2720
11032TIP3    H154587   2.451   4.633  15.222 -1.5960  0.4165 -3.5303
11032TIP3    H254588   2.598   4.670  15.216 -2.2915  3.8311 -1.2829
11033TIP3   OH254589   5.985   0.727  12.535  0.5727 -0.1301 -0.1403
11033TIP3    H154590   6.045   0.768  12.597  0.1719  2.0736 -1.1921
11033TIP3    H254591   6.034   0.720  12.453 -0.4296  1.2829 -0.8832
11034TIP3   OH254592   2.381   6.020   4.625  0.2655  0.0259 -0.6542
11034TIP3    H154593   2.435   6.096   4.605 -1.1748  0.9689 -1.0239
11034TIP3    H254594   2.428   5.946   4.588  1.9681  0.6634  0.2116
11035TIP3   OH254595   2.558   6.202   5.593 -0.0139 -0.4255 -0.2386
11035TIP3    H154596   2.553   6.270   5.659 -1.4553  0.7171 -1.4989
11035TIP3    H254597   2.601   6.244   5.518  0.2516 -1.2587 -0.5590
11036TIP3   OH254598   5.313   3.609  16.608  0.5041  0.2228  0.6489
11036TIP3    H154599   5.249   3.619  16.678  0.1758 -2.3536  0.7747
11036TIP3    H254600   5.272   3.648  16.531 -0.6354 -0.1541  1.0640
11037TIP3   OH254601   2.621   6.027   5.005 -0.5228 -0.5311  0.5940
11037TIP3    H154602   2.536   6.040   4.963 -0.2045  0.5188  0.2696
11037TIP3    H254603   2.679   6.002   4.933 -0.8334 -2.5243  1.0058
11038TIP3   OH254604   3.119   1.780  13.872 -0.2598  0.4510  0.0140
11038TIP3    H154605   3.172   1.703  13.886 -0.4515  0.2141 -0.5529
11038TIP3    H254606   3.095   1.810  13.960 -0.1647 -0.1151  0.2291
11039TIP3   OH254607   2.873   1.773   1.492 -0.2142 -0.3431  0.0356
11039TIP3    H154608   2.847   1.856   1.451  1.8065 -0.2775 -1.1599
11039TIP3    H254609   2.790   1.730   1.512 -1.2877  1.9153  0.5817
11040TIP3   OH254610   2.385   2.533   0.513  0.6650 -0.0176  0.2546
11040TIP3    H154611   2.379   2.627   0.527  0.2745  0.2033 -1.2744
11040TIP3    H254612   2.440   2.501   0.584  1.8905  1.5453  0.0236
11041TIP3   OH254613   1.469   0.640  12.924  0.2605  0.5914 -0.3281
11041TIP3    H154614   1.508   0.554  12.911 -0.4548  0.3837 -1.1384
11041TIP3    H254615   1.462   0.650  13.019 -1.4427 -1.0526 -0.2478
11042TIP3   OH254616   1.165   5.903   0.538 -0.0936 -0.3257 -0.0695
11042TIP3    H154617   1.192   5.895   0.629  1.3786  1.2714 -0.3302
11042TIP3    H254618   1.238   5.866   0.488 -0.4139 -0.2099 -0.6223
11043TIP3   OH254619   3.534   4.186   0.798  0.2722  0.2400  0.0186
11043TIP3    H154620   3.492   4.138   0.726 -0.8388  1.6190 -0.2635
11043TIP3    H254621   3.622   4.147   0.804 -0.1785 -0.9817 -1.0094
11044TIP3   OH254622   3.853   6.306  14.917 -0.5445  0.5618 -0.4764
11044TIP3    H154623   3.943   6.292  14.947 -0.5611 -0.0793 -0.7126
11044TIP3    H254624   3.804   6.322  14.998 -0.4200 -0.2321 -0.2310
11045TIP3   OH254625   1.357   4.393   5.479  0.4652  0.6438 -0.4929
11045TIP3    H154626   1.427   4.431   5.532  0.1172  1.2437 -0.4511
11045TIP3    H254627   1.318   4.468   5.434  0.9246  0.1118 -1.8064
11046TIP3   OH254628   5.665   1.022  13.376 -0.2256 -0.6802  0.3483
11046TIP3    H154629   5.575   1.047  13.353 -0.0612 -0.2453  0.1818
11046TIP3    H254630   5.666   0.927  13.367 -0.2028 -0.5361 -1.3385
11047TIP3   OH254631   0.638   5.946  17.065 -0.0892 -0.1985 -0.4962
11047TIP3    H154632   0.638   6.041  17.081  0.0829 -0.4157  0.8409
11047TIP3    H254633   0.545   5.925  17.051 -0.0872  0.2254 -1.1753
11048TIP3   OH254634   6.008   3.639  16.760 -0.1263  0.0545 -0.1055
11048TIP3    H154635   5.918   3.663  16.738 -1.1451 -0.5976  3.0776
11048TIP3    H254636   6.040   3.593  16.683 -2.6129  0.0577 -1.1878
11049TIP3   OH254637   3.031   5.978   1.552 -0.3816 -0.1910  0.4662
11049TIP3    H154638   3.065   6.067   1.559  0.7231 -0.6709  1.3248
11049TIP3    H254639   2.938   5.986   1.572 -0.0910  0.6309  1.4893
11050TIP3   OH254640   2.521   4.304  10.645 -0.3827  0.1206  0.6487
11050TIP3    H154641   2.575   4.356  10.705  0.6292 -1.5440  1.2230
11050TIP3    H254642   2.584   4.256  10.591 -1.1749 -3.5278  2.7882
11051TIP3   OH254643   5.875   0.925   0.208  0.0842  0.6153  0.1457
11051TIP3    H154644   5.915   0.848   0.249 -0.5981  0.1485 -0.0567
11051TIP3    H254645   5.906   0.924   0.118 -0.2982  0.3079  0.0152
11052TIP3   OH254646   4.471   2.399  11.411 -0.2148 -0.2655 -0.4797
11052TIP3    H154647   4.566   2.397  11.418 -0.2943  1.7822  1.6551
11052TIP3    H254648   4.446   2.307  11.403  1.9931 -0.7651 -2.1975
11053TIP3   OH254649   2.294   1.283  15.373 -0.3246  0.3088 -0.0332
11053TIP3    H154650   2.361   1.341  15.338  2.5365 -1.9426  1.4814
11053TIP3    H254651   2.256   1.331  15.446  1.6024  0.5813  0.8293
11054TIP3   OH254652   6.596   2.492   4.420  0.6904 -0.1903 -0.4095
11054TIP3    H154653   6.539   2.476   4.495  1.2145  0.5444  0.1499
11054TIP3    H254654   6.537   2.524   4.352  0.4781  0.9207  0.2815
11055TIP3   OH254655   1.987   6.043   4.213  0.0826 -0.2152  0.3504
11055TIP3    H154656   1.959   6.024   4.123  0.0714  1.0008  0.0938
11055TIP3    H254657   2.077   6.073   4.204 -0.5515  1.8313  0.5115
11056TIP3   OH254658   1.106   4.622  13.384 -0.2331  0.0274 -0.7616
11056TIP3    H154659   1.032   4.613  13.324 -0.9469 -0.6607  0.2023
11056TIP3    H254660   1.067   4.660  13.463  0.6758  0.8236 -0.6909
11057TIP3   OH254661   2.214   6.478  16.559 -0.0965 -0.1688 -0.2402
11057TIP3    H154662   2.258   6.557  16.529  0.2156 -0.0942  0.3967
11057TIP3    H254663   2.237   6.472  16.652 -0.6182 -0.6713 -0.1424
11058TIP3   OH254664   2.766   0.584   4.494 -0.3747 -0.5630  0.0972
11058TIP3    H154665   2.802   0.507   4.451  0.1436  0.0319 -0.5493
11058TIP3    H254666   2.843   0.628   4.532 -0.5591  0.0828 -0.2735
11059TIP3   OH254667   5.845   5.118   3.293 -0.4975 -0.4586  0.1793
11059TIP3    H154668   5.909   5.119   3.365 -0.4603  0.4282  0.1316
11059TIP3    H254669   5.898   5.109   3.214 -0.4221  0.3784  0.1323
11060TIP3   OH254670   4.278   5.732   4.555 -0.2976 -0.3464 -0.4467
11060TIP3    H154671   4.351   5.687   4.512  0.1078 -0.9063  0.8068
11060TIP3    H254672   4.319   5.799   4.609 -0.8925  1.4367 -2.1312
11061TIP3   OH254673   3.717   5.527   5.032  0.2281 -0.0610 -0.6157
11061TIP3    H154674   3.714   5.442   4.990  2.1909 -1.6461  2.2740
11061TIP3    H254675   3.762   5.584   4.969  0.0896 -1.4842 -2.0282
11062TIP3   OH254676   1.721   0.626  15.294  0.0489 -0.4341  0.3491
11062TIP3    H154677   1.808   0.588  15.281 -0.0128  0.1331 -1.9749
11062TIP3    H254678   1.664   0.551  15.311  0.9132 -0.8372  1.5448
11063TIP3   OH254679   3.172   3.055  14.066 -0.2074  0.4003 -0.0925
11063TIP3    H154680   3.178   2.967  14.103 -1.0031 -0.1199 -1.2005
11063TIP3    H254681   3.145   3.042  13.976  0.0473  1.7661 -0.3795
11064TIP3   OH254682   6.654   1.457   2.768 -0.2575  0.5389  0.0353
11064TIP3    H154683   6.733   1.423   2.810 -0.5031  0.7975  0.7156
11064TIP3    H254684   6.647   1.407   2.687 -0.6287 -1.0558  1.0169
11065TIP3   OH254685   6.751   0.692   4.502 -0.0137 -0.0278  0.0528
11065TIP3    H154686   6.739   0.602   4.472 -1.3846  0.6614 -1.5352
11065TIP3    H254687   6.676   0.708   4.559  0.4147  0.0054  0.6112
11066TIP3   OH254688   3.266   3.805  15.660  0.5818  0.3628 -0.0511
11066TIP3    H154689   3.224   3.877  15.706  2.5564  3.0838 -2.3588
11066TIP3    H254690   3.339   3.779  15.717  1.0075  1.4736 -0.0863
11067TIP3   OH254691   5.448   3.411   1.039  0.9133 -0.1661 -0.3570
11067TIP3    H154692   5.543   3.404   1.049  0.9179  0.3274  0.0270
11067TIP3    H254693   5.434   3.422   0.945  1.2529 -0.0148 -0.3903
11068TIP3   OH254694   1.778   1.317   3.786 -0.0613  0.1586 -0.6406
11068TIP3    H154695   1.820   1.392   3.828 -0.6333  0.4537 -0.5800
11068TIP3    H254696   1.686   1.343   3.778 -0.1329 -0.2619 -1.2401
11069TIP3   OH254697   3.657   4.112  15.241 -0.0969  0.0530  0.2297
11069TIP3    H154698   3.617   4.063  15.312  0.2030 -1.2337 -0.4805
11069TIP3    H254699   3.695   4.046  15.184  1.9973  1.2001  0.2442
11070TIP3   OH254700   0.550   3.330  11.109 -0.2331 -0.4654  0.1248
11070TIP3    H154701   0.569   3.240  11.134 -0.7633 -0.6931 -0.2929
11070TIP3    H254702   0.608   3.348  11.035  1.8456  0.4363  1.8828
11071TIP3   OH254703   6.586   2.218   5.575  0.0231 -0.1747 -0.2110
11071TIP3    H154704   6.649   2.249   5.510  0.0064 -0.4807 -0.3724
11071TIP3    H254705   6.507   2.270   5.558  0.4401  0.6748  0.4199
11072TIP3   OH254706   6.649   0.447  15.588 -0.5405 -0.1426  0.0556
11072TIP3    H154707   6.677   0.519  15.644  0.4150  0.2382 -0.9184
11072TIP3    H254708   6.664   0.369  15.641  1.0162  0.1620  0.0702
11073TIP3   OH254709   4.247   1.252  11.769 -0.3598  0.1828  0.8056
11073TIP3    H154710   4.175   1.230  11.710 -0.8199 -2.0363  2.1266
11073TIP3    H254711   4.312   1.183  11.754  0.4348  0.7938  1.3801
11074TIP3   OH254712   0.687   5.745   3.106  0.5815  0.0608 -0.4498
11074TIP3    H154713   0.597   5.768   3.131  1.1466 -1.5769  3.2781
11074TIP3    H254714   0.677   5.670   3.048 -0.4618  0.4126 -0.7462
11075TIP3   OH254715   5.999   0.879   2.999  0.1856 -0.2978 -0.6090
11075TIP3    H154716   6.071   0.932   2.964 -1.5213  2.7686  0.3446
11075TIP3    H254717   5.921   0.915   2.959 -1.2088 -0.8602  1.5290
11076TIP3   OH254718   5.488   4.415  16.288 -0.0003 -0.2812 -0.4438
11076TIP3    H154719   5.475   4.328  16.327 -1.3297  0.4661  0.8016
11076TIP3    H254720   5.420   4.470  16.327  0.1966  1.0897 -1.9883
11077TIP3   OH254721   4.233   3.964   5.048  0.3047 -0.4016 -0.3492
11077TIP3    H154722   4.278   3.901   4.991  0.3441  0.7884 -1.6461
11077TIP3    H254723   4.143   3.966   5.015 -0.4456 -1.9228  1.5218
11078TIP3   OH254724   3.896   3.054  11.195  0.1859  0.4179  0.1791
11078TIP3    H154725   3.991   3.058  11.208  0.5162 -0.0552 -1.9129
11078TIP3    H254726   3.871   3.144  11.176  0.1060  0.6527  1.3599
11079TIP3   OH254727   6.791   3.073   4.677  0.3790 -0.4756  0.5574
11079TIP3    H154728   6.842   3.089   4.756  1.0056  1.5913 -0.2370
11079TIP3    H254729   6.715   3.130   4.685  0.3243 -0.4286 -0.2256
11080TIP3   OH254730   5.316   5.454  15.697  0.3611  0.5534  0.0683
11080TIP3    H154731   5.345   5.543  15.676  0.6158  0.2961 -0.6608
11080TIP3    H254732   5.221   5.456  15.683  0.2150  1.0090  1.1044
11081TIP3   OH254733   5.898   4.191  16.321 -0.1100 -0.2565 -0.0165
11081TIP3    H154734   5.813   4.147  16.328  0.2644 -0.9535  0.1258
11081TIP3    H254735   5.927   4.175  16.231 -1.1214  1.8095 -0.7528
11082TIP3   OH254736   1.884   6.449  16.156  0.2897 -0.0431 -0.0801
11082TIP3    H154737   1.947   6.455  16.228  1.3625 -0.3603 -0.9775
11082TIP3    H254738   1.798   6.451  16.199  0.8707  1.7355  1.0576
11083TIP3   OH254739   0.246   0.676  14.574 -0.1243 -0.1022 -0.1104
11083TIP3    H154740   0.241   0.757  14.523  1.3676  0.2196  0.2212
11083TIP3    H254741   0.339   0.657  14.580 -0.3617 -0.9673  1.1822
11084TIP3   OH254742   0.552   2.512   5.931 -0.9971 -0.0985  0.4927
11084TIP3    H154743   0.622   2.467   5.884 -1.5518  1.5415 -2.0164
11084TIP3    H254744   0.477   2.453   5.925 -0.6677 -0.5198  0.5128
11085TIP3   OH254745   3.951   3.418  15.249  0.3681 -0.3639 -0.1519
11085TIP3    H154746   3.882   3.462  15.299  1.0621  0.0372  0.4669
11085TIP3    H254747   3.986   3.353  15.309  1.1556  0.0676 -0.1425
11086TIP3   OH254748   5.465   3.428   2.452  0.0516 -0.0690 -0.3450
11086TIP3    H154749   5.537   3.482   2.484 -1.0064  1.8209 -1.0252
11086TIP3    H254750   5.387   3.482   2.467 -1.1778 -1.8955 -0.0116
11087TIP3   OH254751   1.868   0.527  16.251 -0.3203  0.0259 -0.0942
11087TIP3    H154752   1.900   0.609  16.288 -2.4692  1.2783 -0.9122
11087TIP3    H254753   1.884   0.461  16.319 -1.8957  1.7957  2.0605
11088TIP3   OH254754   1.081   1.925  11.097  0.1110  0.7055 -0.5118
11088TIP3    H154755   1.064   2.004  11.047 -1.6258  1.2985  0.9476
11088TIP3    H254756   1.080   1.953  11.189  2.1418 -0.5353 -0.0614
11089TIP3   OH254757   5.584   2.047  14.754 -0.1724  0.7460 -0.1527
11089TIP3    H154758   5.500   2.055  14.800 -0.8091 -0.1210 -1.1377
11089TIP3    H254759   5.639   1.997  14.814 -0.6985  0.4240  0.0652
11090TIP3   OH254760   3.432   6.596  17.208  0.1943  0.0517 -0.5008
11090TIP3    H154761   3.506   6.617  17.151  0.2516 -1.1236 -0.8836
11090TIP3    H254762   3.471   6.591  17.296  0.1752  1.4788 -0.3941
11091TIP3   OH254763   6.612   0.480   0.863  0.1686  0.3754 -0.5877
11091TIP3    H154764   6.686   0.446   0.913  0.0356  1.2767  0.2302
11091TIP3    H254765   6.600   0.569   0.895 -0.0602  0.8936 -2.0837
11092TIP3   OH254766   3.056   4.423  14.302 -0.1175  0.2173 -0.3077
11092TIP3    H154767   3.011   4.379  14.374 -0.3835 -1.7106 -1.6376
11092TIP3    H254768   3.148   4.402  14.314 -0.3630 -1.6602 -1.5708
11093TIP3   OH254769   4.624   4.385  15.784 -0.4811  0.5063 -0.4004
11093TIP3    H154770   4.680   4.458  15.758  1.4660 -0.6704  0.3967
11093TIP3    H254771   4.675   4.337  15.849 -1.6938 -1.6178 -0.9572
11094TIP3   OH254772   6.009   0.098  15.822 -0.3048 -0.0369 -0.0486
11094TIP3    H154773   6.043   0.187  15.832 -0.3145  0.3586 -3.1357
11094TIP3    H254774   5.935   0.107  15.762 -1.0194 -1.9810  0.4950
11095TIP3   OH254775   3.676   5.146   1.519 -0.3891  0.3858 -0.3626
11095TIP3    H154776   3.739   5.074   1.520  0.7456  1.3431 -1.2415
11095TIP3    H254777   3.608   5.119   1.580  0.8855 -0.6808  0.6273
11096TIP3   OH254778   6.107   2.877  13.370 -0.7844 -0.1610  0.2943
11096TIP3    H154779   6.081   2.953  13.317 -2.7618 -0.3704  0.9240
11096TIP3    H254780   6.195   2.898  13.401 -0.3109  0.7653 -1.5895
11097TIP3   OH254781   6.675   4.198  16.789 -0.0371  0.5978 -0.5953
11097TIP3    H154782   6.607   4.253  16.750  0.4798 -0.2243 -2.7019
11097TIP3    H254783   6.640   4.109  16.787 -0.2849  0.6182  1.4913
11098TIP3   OH254784   3.812   3.240   3.070 -0.6776  0.3380  0.2808
11098TIP3    H154785   3.860   3.323   3.075  1.2111 -0.7790  1.0938
11098TIP3    H254786   3.749   3.245   3.142  0.9283  0.1630  1.7291
11099TIP3   OH254787   2.872   4.948  11.649  0.2704  0.1626  0.4906
11099TIP3    H154788   2.833   4.868  11.616  1.8465 -0.3121 -0.3133
11099TIP3    H254789   2.910   4.989  11.571  0.8214  0.9052  1.1409
11100TIP3   OH254790   6.130   5.508   1.984  0.4034 -0.7808 -0.4212
11100TIP3    H154791   6.055   5.527   2.041  1.3755  0.2142  0.5473
11100TIP3    H254792   6.154   5.418   2.005  1.0281 -0.2799  1.0803
11101TIP3   OH254793   3.976   1.837   1.886 -0.1245  0.2827 -0.0358
11101TIP3    H154794   4.070   1.822   1.877 -0.3776 -0.6994 -1.1931
11101TIP3    H254795   3.936   1.767   1.834 -1.5607 -0.8133  2.4593
11102TIP3   OH254796   0.809   4.893   0.169 -0.1955 -0.1440 -0.3701
11102TIP3    H154797   0.886   4.902   0.112 -0.6258  0.2910 -0.8830
11102TIP3    H254798   0.831   4.944   0.247  0.3091 -0.5658 -0.2330
11103TIP3   OH254799   0.326   3.586   1.580  0.4356  0.0179  0.4758
11103TIP3    H154800   0.293   3.656   1.524  0.8237  0.4094  0.7331
11103TIP3    H254801   0.396   3.627   1.631  2.3788 -1.1704 -1.1600
11104TIP3   OH254802   6.065   5.497   4.849 -0.7336  0.0031 -0.7523
11104TIP3    H154803   6.130   5.426   4.841 -2.5321 -1.6550 -1.0884
11104TIP3    H254804   6.111   5.566   4.896  0.2441 -2.4320  2.0243
11105TIP3   OH254805   5.780   1.128  14.976 -0.7560 -0.3672 -0.0252
11105TIP3    H154806   5.714   1.182  14.933 -0.2385  0.3817  0.1192
11105TIP3    H254807   5.747   1.038  14.966 -0.8154 -0.1817 -1.6650
11106TIP3   OH254808   0.684   2.234   5.168 -0.0855  0.2366  0.2012
11106TIP3    H154809   0.724   2.300   5.113  0.3147 -2.2125 -2.5889
11106TIP3    H254810   0.591   2.234   5.142 -0.0097 -0.5257 -0.0815
11107TIP3   OH254811   1.748   4.379  16.242 -0.2066 -0.1637 -0.8864
11107TIP3    H154812   1.720   4.441  16.174 -1.3543  1.1107  0.7239
11107TIP3    H254813   1.775   4.434  16.315 -1.0463 -1.5510  0.4981
11108TIP3   OH254814   4.419   2.991  15.359 -0.6889 -0.2723  0.0869
11108TIP3    H154815   4.329   2.964  15.341 -0.8513  1.5707 -2.0143
11108TIP3    H254816   4.410   3.068  15.416 -0.3896 -0.6609  0.6708
11109TIP3   OH254817   3.037   4.322  11.268  0.2109  0.9226  0.5149
11109TIP3    H154818   3.030   4.329  11.363 -0.7090  0.4432  0.4872
11109TIP3    H254819   2.949   4.339  11.236  0.2039 -0.3450 -0.1736
11110TIP3   OH254820   6.715   1.805  14.987 -0.5409 -0.2585  0.1449
11110TIP3    H154821   6.791   1.817  15.045 -0.2800 -0.9766 -0.0530
11110TIP3    H254822   6.685   1.716  15.004 -0.4523 -0.4809 -0.8564
11111TIP3   OH254823   3.629   3.474   4.671 -0.0960  0.0427 -0.1072
11111TIP3    H154824   3.564   3.448   4.736  1.7052  0.3367  1.8844
11111TIP3    H254825   3.617   3.569   4.661  0.0846  0.1154  0.3461
11112TIP3   OH254826   4.877   0.379   1.306  0.1350  0.2507 -0.6041
11112TIP3    H154827   4.861   0.304   1.248  1.4332 -0.5069  0.0150
11112TIP3    H254828   4.924   0.442   1.252 -0.0144  0.1764 -0.8197
11113TIP3   OH254829   2.675   4.535  14.132 -0.0051 -1.2841  0.1748
11113TIP3    H154830   2.752   4.478  14.138  0.3875 -0.7267  0.4507
11113TIP3    H254831   2.707   4.614  14.089 -0.4962 -1.1688  0.0168
11114TIP3   OH254832   4.111   1.452   5.538  0.1035  0.3960 -0.2792
11114TIP3    H154833   4.034   1.483   5.490 -1.0814 -0.6816  0.8680
11114TIP3    H254834   4.141   1.529   5.587 -2.0590  0.1348  1.5754
11115TIP3   OH254835   5.070   0.951  13.083  0.4818  0.3471 -0.6001
11115TIP3    H154836   5.021   0.915  13.156  0.6167  1.0925 -0.1368
11115TIP3    H254837   5.142   0.889  13.069  0.5175  0.2638 -0.0376
11116TIP3   OH254838   0.484   0.954  14.273 -0.2744 -0.2196  0.5785
11116TIP3    H154839   0.469   1.034  14.223  0.5509 -0.5672 -0.2467
11116TIP3    H254840   0.503   0.984  14.362 -1.1821  0.4364  0.5558
11117TIP3   OH254841   4.250   5.790  13.508 -0.4288 -0.3805  0.2097
11117TIP3    H154842   4.341   5.769  13.484  0.3956  1.0175  2.0453
11117TIP3    H254843   4.206   5.705  13.509  0.9343 -1.1175 -0.3194
11118TIP3   OH254844   3.561   1.902   2.258  0.1370  0.2192 -0.1723
11118TIP3    H154845   3.480   1.850   2.259  1.8099 -2.4730  1.1003
11118TIP3    H254846   3.612   1.864   2.187  1.0023  0.7347  0.1753
11119TIP3   OH254847   0.815   4.057  13.993 -0.3825 -0.4779 -0.0069
11119TIP3    H154848   0.835   4.146  14.022  0.1515  0.2601 -2.5513
11119TIP3    H254849   0.720   4.050  14.005 -1.0256  1.7491 -3.1397
11120TIP3   OH254850   4.896   1.332  14.894 -0.3112  0.3162 -0.3415
11120TIP3    H154851   4.958   1.297  14.829  0.1510  0.1456  0.1893
11120TIP3    H254852   4.950   1.350  14.971 -1.4467 -2.9142  1.2870
11121TIP3   OH254853   6.296   3.597  15.577  0.5137 -0.0833  0.3654
11121TIP3    H154854   6.322   3.569  15.489  1.0963 -2.0397  1.1180
11121TIP3    H254855   6.206   3.565  15.586  0.6047 -0.2677  0.6252
11122TIP3   OH254856   2.629   3.031  14.598  0.5538 -0.5102 -0.4590
11122TIP3    H154857   2.674   3.110  14.624 -0.5463 -0.4522  1.3419
11122TIP3    H254858   2.699   2.967  14.581  1.3499  0.0675  0.6338
11123TIP3   OH254859   6.667   6.792  17.037 -0.0769  0.3734  0.1516
11123TIP3    H154860   6.629   6.793  17.124 -0.3753  0.4371  0.0240
11123TIP3    H254861   6.617   6.857  16.988 -1.9174 -1.7262 -0.8822
11124TIP3   OH254862   4.986   0.201   5.497 -0.1101  0.1420  0.2089
11124TIP3    H154863   5.005   0.251   5.577 -1.2465 -2.9485  2.4978
11124TIP3    H254864   4.907   0.152   5.518  0.8078 -2.4103 -2.0264
11125TIP3   OH254865   4.057   6.661  12.570 -0.3564 -0.3185  0.1466
11125TIP3    H154866   4.053   6.637  12.477  1.6890  2.6141 -0.8195
11125TIP3    H254867   4.132   6.613  12.604 -0.3583 -0.4591 -0.0496
11126TIP3   OH254868   6.767   1.925  13.022 -0.0418 -0.7336  0.2593
11126TIP3    H154869   6.737   1.951  12.935 -0.8595 -0.3536  0.6509
11126TIP3    H254870   6.813   1.842  13.007  0.0671 -0.5331 -0.5712
11127TIP3   OH254871   1.650   5.427   3.910 -0.4932  0.1763 -0.2579
11127TIP3    H154872   1.698   5.509   3.921  0.3344 -0.4916  1.3200
11127TIP3    H254873   1.710   5.371   3.861 -2.3791  1.5998 -4.4152
11128TIP3   OH254874   0.682   1.882  10.940  0.4759  0.6990  0.5513
11128TIP3    H154875   0.667   1.956  10.881  1.9014  2.0346  1.8201
11128TIP3    H254876   0.595   1.858  10.970 -0.1274  0.9964 -0.8860
11129TIP3   OH254877   4.613   3.413   3.415  0.0464 -0.2008  0.3609
11129TIP3    H154878   4.616   3.508   3.403  2.7032 -0.2259  0.6688
11129TIP3    H254879   4.673   3.396   3.487 -1.2715 -2.0295  1.0824
11130TIP3   OH254880   0.274   3.669   4.146 -0.2009 -0.1950 -0.0602
11130TIP3    H154881   0.269   3.730   4.220 -0.8462 -0.7309  0.3518
11130TIP3    H254882   0.218   3.595   4.173 -0.6785 -0.2596 -1.2126
11131TIP3   OH254883   1.491   4.761  13.067  0.0723  0.0835  0.0648
11131TIP3    H154884   1.556   4.813  13.114  3.2104 -2.0735 -1.7279
11131TIP3    H254885   1.450   4.707  13.134  1.5863  0.0349  0.9752
11132TIP3   OH254886   2.303   2.623   1.685  0.7651 -0.0009 -0.5018
11132TIP3    H154887   2.379   2.643   1.740 -0.1706  0.5283  0.6353
11132TIP3    H254888   2.247   2.569   1.741  0.4971 -0.7469 -1.4780
11133TIP3   OH254889   4.634   1.526  14.619  0.4773  0.2655  0.0137
11133TIP3    H154890   4.685   1.604  14.600 -0.4747  0.4885 -1.8302
11133TIP3    H254891   4.697   1.454  14.619  1.0592  0.7768 -0.3459
11134TIP3   OH254892   6.549   3.929   4.751  0.8017  0.8051  0.1633
11134TIP3    H154893   6.516   3.922   4.661  1.2200  0.8829  0.0026
11134TIP3    H254894   6.643   3.913   4.743  0.3728 -2.4376  1.0315
11135TIP3   OH254895   6.096   2.286  16.360  0.0211 -0.1516  0.2727
11135TIP3    H154896   6.108   2.375  16.392 -0.7337  0.3073 -0.6908
11135TIP3    H254897   6.078   2.234  16.439  0.1180  0.6108  0.8000
11136TIP3   OH254898   0.333   5.750   5.259 -0.2984 -0.3255  0.0167
11136TIP3    H154899   0.251   5.731   5.305 -0.9698  0.2043 -0.9316
11136TIP3    H254900   0.309   5.821   5.199  0.7077 -0.6291 -0.7316
11137TIP3   OH254901   1.985   3.218   4.019  0.3053 -0.0389  0.1937
11137TIP3    H154902   1.948   3.153   3.960  1.2206 -1.0168  0.6904
11137TIP3    H254903   1.924   3.292   4.015 -0.2148 -0.5302 -1.1232
11138TIP3   OH254904   1.580   5.954   4.050  0.3297  0.2158  0.2289
11138TIP3    H154905   1.540   5.981   4.133 -0.9258 -1.9437  0.3495
11138TIP3    H254906   1.512   5.968   3.984  0.2901 -0.8947  0.0227
11139TIP3   OH254907   0.455   6.485   2.076 -0.0369  0.3368 -0.0962
11139TIP3    H154908   0.428   6.433   2.152 -1.4886 -1.8065 -2.0308
11139TIP3    H254909   0.486   6.421   2.012  1.2578  2.1190 -1.2987
11140TIP3   OH254910   5.948   0.814  14.620  1.0212  0.2153 -0.1075
11140TIP3    H154911   6.010   0.782  14.686  1.4807 -1.8497 -1.5054
11140TIP3    H254912   5.886   0.742  14.608 -0.3493  1.4115 -0.3594
11141TIP3   OH254913   1.104   0.295   1.735  0.0646  0.2171  0.1325
11141TIP3    H154914   1.162   0.370   1.746  0.2385  0.0014  0.7412
11141TIP3    H254915   1.058   0.311   1.653  0.1846  0.9286  0.2072
11142TIP3   OH254916   0.679   1.120  12.221 -0.0124 -0.3250  0.0096
11142TIP3    H154917   0.752   1.144  12.164  1.6674 -1.1247  1.7569
11142TIP3    H254918   0.609   1.093  12.162  1.7327 -1.2305 -1.6734
11143TIP3   OH254919   5.882   1.385  16.549  0.1270 -0.4738  0.2335
11143TIP3    H154920   5.928   1.306  16.522 -0.5708 -0.8096  0.0034
11143TIP3    H254921   5.794   1.354  16.572 -0.4414  0.3774 -0.7845
11144TIP3   OH254922   0.701   1.988  12.225  0.4822 -0.0183  0.7980
11144TIP3    H154923   0.744   1.915  12.270  0.5018  0.1802  1.0988
11144TIP3    H254924   0.634   2.017  12.286 -0.8911 -1.0991 -0.1477
11145TIP3   OH254925   2.033   1.564   5.451  0.0883 -0.6825  0.5197
11145TIP3    H154926   1.939   1.558   5.438 -0.2421  2.1287  1.2452
11145TIP3    H254927   2.051   1.511   5.528 -1.3336  1.0406  2.0580
11146TIP3   OH254928   1.279   1.083  15.288  0.0600 -0.6292  0.2085
11146TIP3    H154929   1.262   1.150  15.221 -0.3293 -2.2104 -1.2970
11146TIP3    H254930   1.200   1.029  15.288  0.1478 -0.7726  1.8179
11147TIP3   OH254931   4.331   6.250  16.469  0.2709 -0.3286 -0.1296
11147TIP3    H154932   4.291   6.268  16.554  0.2591  1.6129 -0.5190
11147TIP3    H254933   4.258   6.254  16.407  0.6498  0.6286 -0.5213
11148TIP3   OH254934   5.977   0.070   3.980  0.4794 -0.3188  0.4123
11148TIP3    H154935   6.025  -0.001   3.938 -0.0381  0.8046 -2.1520
11148TIP3    H254936   5.995   0.059   4.073  1.5585 -2.9414 -0.0710
11149TIP3   OH254937   4.082   6.360   0.024 -0.0025 -0.8492 -0.3025
11149TIP3    H154938   4.101   6.337  -0.067 -0.7112 -1.9246 -0.1851
11149TIP3    H254939   4.027   6.288   0.056 -1.0461  0.3047  0.5110
11150TIP3   OH254940   4.799   4.655   4.852 -0.3043  0.1655  1.0042
11150TIP3    H154941   4.836   4.585   4.906  2.8212 -0.4447 -1.7953
11150TIP3    H254942   4.763   4.610   4.776 -1.9963  1.2954  1.1119
11151TIP3   OH254943   4.116   0.083  15.696 -0.1007  0.0385 -0.0029
11151TIP3    H154944   4.089   0.169  15.663 -2.1630  0.2426  2.1111
11151TIP3    H254945   4.197   0.064  15.648 -0.7323  2.1923 -2.0432
11152TIP3   OH254946   0.941   0.417  14.197  0.2070  0.0617 -0.6726
11152TIP3    H154947   0.890   0.489  14.161  0.6803  1.0005  0.5129
11152TIP3    H254948   1.030   0.453  14.206 -0.0902  0.1735  2.3026
11153TIP3   OH254949   1.134   3.339   0.407 -0.7344  0.1381  0.8734
11153TIP3    H154950   1.219   3.296   0.418  0.0739  1.8767  1.6391
11153TIP3    H254951   1.131   3.364   0.315 -0.1637  0.5597  0.9663
11154TIP3   OH254952   0.860   5.535  16.719 -0.0726  0.3749 -0.1556
11154TIP3    H154953   0.783   5.567  16.766 -1.1686 -1.7617 -0.4148
11154TIP3    H254954   0.825   5.477  16.652  1.7303 -0.0112 -0.7986
11155TIP3   OH254955   4.402   3.521  13.999  0.9610 -0.1450 -0.2733
11155TIP3    H154956   4.353   3.548  13.921 -0.3365  0.6043  0.7755
11155TIP3    H254957   4.390   3.426  14.003 -1.1479  0.1191  0.4347
11156TIP3   OH254958   4.477   3.780   4.965 -0.1239 -0.5190  0.5620
11156TIP3    H154959   4.551   3.721   4.978  1.1489  1.3405  2.0586
11156TIP3    H254960   4.511   3.867   4.988 -2.4161  0.5546  0.0623
11157TIP3   OH254961   1.886   0.359  13.217 -0.3214  0.6153 -0.4508
11157TIP3    H154962   1.889   0.304  13.138  0.0754  0.1249 -0.1002
11157TIP3    H254963   1.873   0.448  13.184 -2.5707  0.1278 -0.9538
11158TIP3   OH254964   2.333   1.200   5.620 -0.4042 -0.1814  0.1285
11158TIP3    H154965   2.366   1.182   5.532 -2.3011 -1.6079 -0.3167
11158TIP3    H254966   2.354   1.121   5.670 -2.0746 -0.6476  0.1253
11159TIP3   OH254967   4.872   0.540   0.174 -0.3553  0.0012 -0.2064
11159TIP3    H154968   4.789   0.567   0.214 -0.1592 -1.1108  0.9969
11159TIP3    H254969   4.920   0.497   0.245  1.0025  0.0905 -1.0489
11160TIP3   OH254970   4.537   5.260  13.806  0.3499  0.1051 -0.3448
11160TIP3    H154971   4.582   5.178  13.783  0.0849 -1.0009  2.8771
11160TIP3    H254972   4.606   5.325  13.811  0.7664 -0.2441 -1.4765
11161TIP3   OH254973   3.472   3.042   0.862 -0.0649 -0.0864  0.2643
11161TIP3    H154974   3.478   3.134   0.886  0.8579  0.0822 -0.5847
11161TIP3    H254975   3.389   3.013   0.899 -1.5344  1.7091 -1.5484
11162TIP3   OH254976   2.638   4.255  12.473  0.7307 -0.1135  0.0246
11162TIP3    H154977   2.603   4.244  12.385  2.0360  2.6162 -0.8684
11162TIP3    H254978   2.705   4.186  12.480  0.7035 -0.2771 -1.1549
11163TIP3   OH254979   5.886   4.545  15.120 -0.3142 -0.0082 -0.0004
11163TIP3    H154980   5.808   4.491  15.133  0.2336 -1.1781 -1.3582
11163TIP3    H254981   5.958   4.482  15.117  0.4000  0.8373 -1.1306
11164TIP3   OH254982   6.688   2.172   1.755  0.2626 -0.3474 -0.2027
11164TIP3    H154983   6.682   2.254   1.804 -3.2361 -0.3081 -0.5913
11164TIP3    H254984   6.747   2.191   1.682 -0.3980  1.7641 -0.2019
11165TIP3   OH254985   4.390   3.502   3.073 -0.3110  0.6505 -0.1991
11165TIP3    H154986   4.391   3.504   2.977  0.6570  0.3996 -0.1996
11165TIP3    H254987   4.453   3.569   3.099 -1.2416  1.3581  0.2849
11166TIP3   OH254988   3.764   3.039  16.626  0.3203  0.1219  0.2613
11166TIP3    H154989   3.762   2.953  16.583 -0.6119  0.3668 -0.2223
11166TIP3    H254990   3.855   3.067  16.619  0.8262 -1.2234  1.2425
11167TIP3   OH254991   6.090   4.077  15.918 -0.2144  0.2439 -0.1325
11167TIP3    H154992   6.029   4.150  15.924  0.4049  0.7868 -0.3677
11167TIP3    H254993   6.098   4.060  15.824 -1.5852 -1.1811 -0.0169
11168TIP3   OH254994   4.076   5.010  15.025  0.0052  1.1806 -0.1510
11168TIP3    H154995   4.085   5.094  15.069  0.0137  0.8366  0.5088
11168TIP3    H254996   4.109   4.946  15.088  1.3848  0.8316 -1.2231
11169TIP3   OH254997   6.101   1.533  16.292 -0.0129  0.3776  0.3672
11169TIP3    H154998   6.094   1.613  16.239  0.3365  0.4991  0.4996
11169TIP3    H254999   6.141   1.562  16.374 -0.2578  0.1338  0.5743
11170TIP3   OH255000   5.153   5.023  11.804  0.2440 -0.3490  0.0063
11170TIP3    H155001   5.066   5.009  11.842  0.1933  1.3641  0.5472
11170TIP3    H255002   5.203   4.946  11.831 -1.2222 -1.5799 -0.7024
11171TIP3   OH255003   6.047   5.094  13.850 -0.2627  0.1671 -0.3123
11171TIP3    H155004   6.010   5.174  13.813  1.6796  1.2583  0.0422
11171TIP3    H255005   6.009   5.088  13.938  1.0821  1.7788  0.3943
11172TIP3   OH255006   0.526   3.787  15.654 -0.1380 -0.3394  0.3715
11172TIP3    H155007   0.466   3.853  15.688 -0.6330 -1.0611  0.9274
11172TIP3    H255008   0.613   3.821  15.671 -0.3464 -1.2177  3.4590
11173TIP3   OH255009   0.984   5.692   5.018  0.2151 -0.3017  0.7315
11173TIP3    H155010   0.945   5.617   4.973 -0.6054  1.2519 -1.1845
11173TIP3    H255011   1.045   5.729   4.954 -0.2813  1.3818  1.2120
11174TIP3   OH255012   4.616   5.528   1.592  0.1389  0.0662 -0.2629
11174TIP3    H155013   4.663   5.556   1.670  0.3876  0.6245 -0.6066
11174TIP3    H255014   4.651   5.584   1.522 -1.5228  0.9651 -0.3921
11175TIP3   OH255015   1.823   3.335   2.795  0.3787 -0.2665 -0.1029
11175TIP3    H155016   1.816   3.389   2.716  0.6609  0.7691  0.5685
11175TIP3    H255017   1.739   3.347   2.840  0.3151 -0.6576 -0.1116
11176TIP3   OH255018   5.345   4.197  16.933  0.2157  0.5963  0.2913
11176TIP3    H155019   5.427   4.225  16.892  0.2718 -1.4033 -1.0313
11176TIP3    H255020   5.277   4.230  16.875  0.2290 -0.6177 -0.4381
11177TIP3   OH255021   2.964   0.285  12.179  0.2001 -0.0519  0.2673
11177TIP3    H155022   2.903   0.357  12.162 -0.8555 -1.1678 -0.7722
11177TIP3    H255023   3.045   0.312  12.137 -0.3165  0.3678 -0.4760
11178TIP3   OH255024   4.981   2.317  12.918 -0.2890 -0.3423 -0.6819
11178TIP3    H155025   4.964   2.314  13.012 -1.7991  0.0831 -0.9339
11178TIP3    H255026   5.049   2.384  12.908 -0.3815 -0.1336  0.0560
11179TIP3   OH255027   5.688   4.165   4.446  0.2806 -0.8893 -0.8391
11179TIP3    H155028   5.671   4.172   4.539  0.9818 -2.5942 -0.5555
11179TIP3    H255029   5.669   4.252   4.411  1.2710  0.1326  1.0921
11180TIP3   OH255030   0.755   2.443   4.980 -0.6589  0.3679  0.4529
11180TIP3    H155031   0.796   2.522   5.016  0.6292  0.6323 -1.5003
11180TIP3    H255032   0.671   2.473   4.946 -1.9403  0.0908  3.2773
11181TIP3   OH255033   5.924   3.561  15.875 -0.3446  0.2684  0.3295
11181TIP3    H155034   5.981   3.505  15.824 -0.6170  0.3170 -0.0318
11181TIP3    H255035   5.916   3.642  15.823  0.8662  1.0479  1.3277
11182TIP3   OH255036   3.041   6.284  12.490 -0.0548  0.9673 -0.7860
11182TIP3    H155037   2.951   6.251  12.481  0.5049 -0.6623 -0.5717
11182TIP3    H255038   3.081   6.266  12.405  2.0120 -4.4403  1.1533
11183TIP3   OH255039   4.957   1.917  12.670 -0.1136 -0.0876 -0.5001
11183TIP3    H155040   4.866   1.938  12.650  0.1059  0.4772 -0.9168
11183TIP3    H255041   4.990   1.994  12.715  0.1680 -0.2769 -0.3868
11184TIP3   OH255042   4.132   2.242   2.357  0.1459 -0.4008  0.2414
11184TIP3    H155043   4.037   2.258   2.355  0.1446 -0.1496  1.6730
11184TIP3    H255044   4.151   2.201   2.273 -1.1839 -0.1565 -0.1955
11185TIP3   OH255045   2.166   0.227   4.116 -0.2754 -0.0524 -0.3668
11185TIP3    H155046   2.260   0.206   4.111 -0.2455 -0.1008  0.2706
11185TIP3    H255047   2.123   0.153   4.074 -0.1216 -0.9579  1.0303
11186TIP3   OH255048   5.550   0.283   1.814  0.2161  1.5213  0.2872
11186TIP3    H155049   5.470   0.259   1.862 -0.8355  1.7246 -1.3328
11186TIP3    H255050   5.621   0.253   1.870 -1.0128  0.2922  1.2308
11187TIP3   OH255051   5.574   0.416  11.320  0.3529  0.1268  0.2053
11187TIP3    H155052   5.576   0.494  11.375 -0.2315  1.4761 -1.6306
11187TIP3    H255053   5.663   0.381  11.326  1.1088  1.8950 -0.2796
11188TIP3   OH255054   0.311   3.730  12.446  0.2234 -0.6840 -0.2499
11188TIP3    H155055   0.362   3.784  12.505 -1.1013  0.7826 -0.4087
11188TIP3    H255056   0.252   3.791  12.402 -1.1737 -2.2223 -0.5709
11189TIP3   OH255057   3.109   2.898  15.684  0.4389  0.0073 -0.2637
11189TIP3    H155058   3.127   2.871  15.774  0.1763  0.3813 -0.0958
11189TIP3    H255059   3.149   2.985  15.677 -1.9720  1.2316  0.3779
11190TIP3   OH255060   4.216   1.065   1.471  0.3062  0.6419 -0.3473
11190TIP3    H155061   4.311   1.078   1.473  0.5177 -0.4422 -2.2764
11190TIP3    H255062   4.182   1.144   1.429  0.4078  0.7410 -0.2434
11191TIP3   OH255063   4.780   5.832   2.042  0.0244  0.2859  0.8485
11191TIP3    H155064   4.691   5.826   2.075 -0.0392  0.3958  0.6962
11191TIP3    H255065   4.818   5.908   2.087 -0.2798  0.8514  0.1604
11192TIP3   OH255066   3.471   4.620  11.718 -0.5062 -0.4102  0.6806
11192TIP3    H155067   3.512   4.583  11.796  0.2899  1.5163  1.2023
11192TIP3    H255068   3.541   4.621  11.653  0.5360  3.5039  1.7737
11193TIP3   OH255069   6.233   5.815   3.959 -0.6971 -0.0923 -0.2748
11193TIP3    H155070   6.202   5.727   3.938 -0.6727 -0.6686  1.9688
11193TIP3    H255071   6.174   5.873   3.910 -0.4097 -1.3362 -2.1586
11194TIP3   OH255072   2.221   4.246   4.581  0.2103  0.3016  0.9723
11194TIP3    H155073   2.293   4.257   4.642 -0.1031 -1.3100  1.6324
11194TIP3    H255074   2.157   4.312   4.608  1.8547  2.4976 -0.2976
11195TIP3   OH255075   4.358   4.583  15.768 -0.1744  0.0522  0.4705
11195TIP3    H155076   4.417   4.579  15.693  0.2880 -0.5079  0.8568
11195TIP3    H255077   4.270   4.581  15.730  0.0309  2.1481 -0.1746
11196TIP3   OH255078   4.652   1.001  12.674  0.1193  0.4874 -0.1691
11196TIP3    H155079   4.646   0.949  12.754 -0.9519 -0.5872 -0.9343
11196TIP3    H255080   4.732   1.052  12.685  0.4401 -0.2763  1.2127
11197TIP3   OH255081   5.286   3.347  13.660 -0.1360  0.2590 -0.2346
11197TIP3    H155082   5.265   3.374  13.750 -0.1454 -0.8734  0.1107
11197TIP3    H255083   5.330   3.423  13.622  0.5753  0.4606  0.9726
11198TIP3   OH255084   5.200   1.864   6.394 -0.1153 -0.6121 -0.2411
11198TIP3    H155085   5.276   1.882   6.339 -1.5979 -0.8912 -2.4594
11198TIP3    H255086   5.236   1.825   6.473  2.2134  1.4641 -0.2212
11199TIP3   OH255087   2.285   0.271  17.045  0.1808  0.1062 -0.6394
11199TIP3    H155088   2.207   0.304  17.088 -0.1870 -0.6777 -0.7041
11199TIP3    H255089   2.356   0.325  17.080 -0.4677  1.2597 -1.0791
11200TIP3   OH255090   5.421   3.172  14.150  0.1908  0.0026  0.2674
11200TIP3    H155091   5.449   3.188  14.240  2.4300 -0.4417 -0.3089
11200TIP3    H255092   5.467   3.239  14.099 -3.5525  2.3191 -0.2166
11201TIP3   OH255093   6.619   1.549  14.805  0.9541  0.3639  0.6382
11201TIP3    H155094   6.704   1.525  14.842  0.9317 -0.0475  0.4213
11201TIP3    H255095   6.586   1.469  14.764  0.2250  0.3850  1.1705
11202TIP3   OH255096   3.677   1.115   3.725 -0.0731  0.0634  0.8263
11202TIP3    H155097   3.614   1.132   3.794  1.7034  0.3121  2.4337
11202TIP3    H255098   3.718   1.200   3.707 -0.3928 -0.0319 -0.4013
11203TIP3   OH255099   4.593   6.598   0.434 -0.0496  0.1274 -0.1542
11203TIP3    H155100   4.598   6.603   0.339  1.3578  0.8589 -0.0608
11203TIP3    H255101   4.564   6.686   0.461 -0.3203 -0.0394  0.1065
11204TIP3   OH255102   3.794   2.252   5.833  0.2077  0.0710 -0.2243
11204TIP3    H155103   3.857   2.293   5.892  0.0983  0.2234 -0.2148
11204TIP3    H255104   3.743   2.324   5.797  1.6756  0.1935 -2.1586
11205TIP3   OH255105   1.008   5.682   2.183 -0.0723 -0.3321 -0.0221
11205TIP3    H155106   1.041   5.690   2.094  0.7148 -0.5876  0.2408
11205TIP3    H255107   0.943   5.752   2.191  0.1849 -0.0195 -0.6445
11206TIP3   OH255108   5.496   4.371  12.718  0.4767 -0.0652  0.0519
11206TIP3    H155109   5.546   4.323  12.653 -1.0692 -1.0388 -0.4487
11206TIP3    H255110   5.405   4.348  12.700 -0.3969  3.5357 -0.6319
11207TIP3   OH255111   2.801   0.371   5.377 -0.4196  0.0370 -0.0229
11207TIP3    H155112   2.725   0.313   5.377 -0.4388  0.0588  0.1902
11207TIP3    H255113   2.869   0.322   5.330 -0.7245  0.2331 -0.6609
11208TIP3   OH255114   0.269   2.081  12.921 -0.5573 -0.1229 -0.3257
11208TIP3    H155115   0.189   2.133  12.918  0.5088  1.5246 -1.0333
11208TIP3    H255116   0.321   2.114  12.848  0.4952 -1.6235 -0.2629
11209TIP3   OH255117   1.838   5.996   3.940 -0.1107  0.0635 -0.7396
11209TIP3    H155118   1.832   6.066   3.876 -0.9316  0.5413 -0.1474
11209TIP3    H255119   1.748   5.985   3.973  0.4556  0.5188  1.0562
11210TIP3   OH255120   1.992   1.345   0.854  0.6981  0.1744  0.3541
11210TIP3    H155121   1.906   1.305   0.851  0.5913  0.5042 -1.3477
11210TIP3    H255122   2.011   1.354   0.947 -1.4640  0.8856  0.7530
11211TIP3   OH255123   5.401   6.096  11.200  0.1818 -0.3490 -0.9217
11211TIP3    H155124   5.328   6.157  11.195 -1.1423 -1.8778 -0.6426
11211TIP3    H255125   5.383   6.032  11.132 -0.0511 -2.1314  0.7867
11212TIP3   OH255126   1.632   1.515  16.491 -0.4120  0.1354  0.4306
11212TIP3    H155127   1.708   1.508  16.433 -0.3767 -2.6161  0.7385
11212TIP3    H255128   1.604   1.606  16.484  2.0378  0.8180 -0.7983
11213TIP3   OH255129   0.746   6.796  15.708 -0.5912  0.2092  0.0913
11213TIP3    H155130   0.655   6.772  15.726 -0.4483  1.2381  2.4017
11213TIP3    H255131   0.746   6.892  15.712  0.4936  0.2383 -0.5066
11214TIP3   OH255132   4.386   0.514   5.570 -0.5669  0.6497  0.2403
11214TIP3    H155133   4.348   0.516   5.657 -0.3730  0.8497  0.3190
11214TIP3    H255134   4.385   0.605   5.540 -0.5230  0.5990  0.0801
11215TIP3   OH255135   5.682   1.751   1.807  0.1965 -0.3599 -0.4868
11215TIP3    H155136   5.610   1.698   1.841 -0.1447 -0.2500 -1.0336
11215TIP3    H255137   5.708   1.807   1.880 -0.0321 -0.6528 -0.1815
11216TIP3   OH255138   4.265   0.345   5.266 -0.1587  0.1463 -0.7350
11216TIP3    H155139   4.290   0.428   5.226 -0.3492  0.5045 -0.1186
11216TIP3    H255140   4.237   0.368   5.354  1.2899 -0.7690 -0.0066
11217TIP3   OH255141   1.783   5.796  13.051 -0.1639 -0.5096 -0.7126
11217TIP3    H155142   1.748   5.737  12.985  0.3042  0.7566 -2.1235
11217TIP3    H255143   1.858   5.749  13.088 -0.7503 -1.4425 -0.6789
11218TIP3   OH255144   5.961   2.856   4.341 -0.1067 -0.4746 -0.0596
11218TIP3    H155145   6.035   2.899   4.382  1.0352 -1.9156 -0.5628
11218TIP3    H255146   5.895   2.850   4.410 -0.8605  3.3347 -0.3690
11219TIP3   OH255147   4.161   4.448   0.923 -0.1072 -0.0713 -0.2414
11219TIP3    H155148   4.185   4.402   0.843 -0.6622 -2.7456  1.0661
11219TIP3    H255149   4.201   4.396   0.993 -0.6913  1.5014  1.2885
11220TIP3   OH255150   4.330   6.171   4.607 -0.1219 -0.3646  0.3673
11220TIP3    H155151   4.384   6.092   4.602  0.3888  0.0736 -1.2996
11220TIP3    H255152   4.300   6.185   4.518  1.1885  2.3121  0.2969
11221TIP3   OH255153   5.656   5.862   5.732  0.1791 -0.3857  0.3628
11221TIP3    H155154   5.586   5.797   5.730  0.0925 -0.2781 -1.5803
11221TIP3    H255155   5.625   5.929   5.793 -1.8326  0.0770 -1.0923
11222TIP3   OH255156   4.953   2.818   0.821  0.1363 -0.0108 -0.3037
11222TIP3    H155157   4.969   2.853   0.733 -1.3302  0.5193 -0.3775
11222TIP3    H255158   4.949   2.723   0.808 -0.4853  0.0908 -0.8954
11223TIP3   OH255159   5.860   3.194   1.528 -0.0996  0.0052 -0.4212
11223TIP3    H155160   5.793   3.247   1.571  1.3073  0.3109  1.4832
11223TIP3    H255161   5.858   3.110   1.575  0.4064 -0.2083 -0.7716
11224TIP3   OH255162   5.015   0.249   3.697  0.0745 -0.3788 -0.1670
11224TIP3    H155163   4.987   0.340   3.686  2.0393  0.3415  0.5562
11224TIP3    H255164   5.026   0.239   3.792  3.5355 -0.1833 -0.4838
11225TIP3   OH255165   4.407   3.384   0.161  0.2280  0.6270  0.5151
11225TIP3    H155166   4.483   3.426   0.202  1.7080 -2.6702  1.2805
11225TIP3    H255167   4.358   3.346   0.234 -0.6977  0.3558 -0.2333
11226TIP3   OH255168   4.406   1.099  12.582 -0.2380 -0.4605  0.1874
11226TIP3    H155169   4.488   1.063  12.616  0.1518 -0.9485 -1.2059
11226TIP3    H255170   4.405   1.071  12.490 -2.5480 -1.5037  0.4872
11227TIP3   OH255171   5.116   4.915  16.172  0.0663  0.5290  0.6763
11227TIP3    H155172   5.141   4.883  16.086 -0.1170  4.0658 -0.7792
11227TIP3    H255173   5.199   4.928  16.218  0.2428  0.0867  0.4861
11228TIP3   OH255174   6.237   6.369  13.503 -0.0860  0.1298  0.1441
11228TIP3    H155175   6.291   6.401  13.431 -0.0273 -1.0459 -0.3535
11228TIP3    H255176   6.281   6.402  13.582  1.1604 -0.4731 -0.2715
11229TIP3   OH255177   1.587   4.563  12.887 -0.3261  0.5960 -0.4736
11229TIP3    H155178   1.565   4.619  12.961 -2.7085 -0.3530 -0.4236
11229TIP3    H255179   1.567   4.616  12.809 -1.3011  0.3148 -0.4240
11230TIP3   OH255180   0.586   3.995  10.977  0.0629 -0.2615 -0.5018
11230TIP3    H155181   0.514   3.935  10.995  0.7099 -1.1693 -0.8906
11230TIP3    H255182   0.545   4.070  10.934 -1.0159  0.4408  1.6685
11231TIP3   OH255183   5.350   0.719  17.012  0.2760  0.1741 -0.3545
11231TIP3    H155184   5.388   0.632  17.003  1.1748  0.6404 -1.0609
11231TIP3    H255185   5.389   0.770  16.942 -0.5649  1.0457 -0.2007
11232TIP3   OH255186   3.341   1.377   4.511 -0.7348 -0.0410 -0.6120
11232TIP3    H155187   3.392   1.417   4.441  0.1649  1.2854  0.7520
11232TIP3    H255188   3.358   1.283   4.503 -0.7705  0.0853 -2.2391
11233TIP3   OH255189   0.007   6.007  16.408 -0.0290 -0.4631  0.0164
11233TIP3    H155190   0.097   5.974  16.399  0.0737 -0.4170  0.8143
11233TIP3    H255191  -0.046   5.929  16.423 -0.1159 -0.4853 -0.4058
11234TIP3   OH255192   3.191   1.424  15.522 -0.2810  0.3137  0.0514
11234TIP3    H155193   3.286   1.429  15.516 -0.0737 -0.4395  2.4309
11234TIP3    H255194   3.160   1.506  15.483  1.3378  0.6994 -0.4396
11235TIP3   OH255195   6.233   1.680   2.874  0.0536 -0.1064 -0.0292
11235TIP3    H155196   6.208   1.681   2.781 -1.0765  0.1766  0.2687
11235TIP3    H255197   6.186   1.605   2.910  0.2162 -0.0046  0.3919
11236TIP3   OH255198   4.581   1.208   5.184  0.8646  0.0607 -0.0947
11236TIP3    H155199   4.644   1.137   5.185  0.0375 -0.6637  1.4996
11236TIP3    H255200   4.626   1.280   5.229  1.2978  0.2157 -0.7601
11237TIP3   OH255201   1.396   2.340   6.293  0.0754  0.2486 -0.7988
11237TIP3    H155202   1.461   2.410   6.291 -0.6086  0.9155  0.0471
11237TIP3    H255203   1.373   2.327   6.201 -1.7230  2.9709 -0.7948
11238TIP3   OH255204   3.693   1.391   5.180  0.7261 -0.3114 -0.2170
11238TIP3    H155205   3.676   1.401   5.274  0.5628  0.2684 -0.3032
11238TIP3    H255206   3.713   1.480   5.151  0.8593 -0.5070 -0.7143
11239TIP3   OH255207   1.750   0.844   5.231 -0.2233  0.0492  0.0684
11239TIP3    H155208   1.843   0.844   5.254 -0.5656 -0.7210  1.4644
11239TIP3    H255209   1.712   0.913   5.285 -0.3019  1.0669 -1.2518
11240TIP3   OH255210   6.556   0.710  15.884  0.1535 -0.3256 -0.0356
11240TIP3    H155211   6.511   0.756  15.955  0.4804 -1.7349  1.1116
11240TIP3    H255212   6.644   0.693  15.918  0.7421  0.1356 -1.2904
11241TIP3   OH255213   4.501   6.672   0.168 -0.1260  0.4317  0.1277
11241TIP3    H155214   4.479   6.624   0.088 -1.1474  0.7298  0.2203
11241TIP3    H255215   4.457   6.756   0.158  1.9142  1.4693 -0.1669
11242TIP3   OH255216   4.517   1.890  11.342 -0.2028  0.4602 -0.0831
11242TIP3    H155217   4.511   1.837  11.422 -0.1231 -0.2004 -0.5054
11242TIP3    H255218   4.559   1.831  11.278 -1.3614  0.5624 -0.9577
11243TIP3   OH255219   1.375   5.997   0.725  0.2754 -0.3147 -0.3876
11243TIP3    H155220   1.442   6.018   0.660  1.4265  0.9758  1.1832
11243TIP3    H255221   1.330   6.080   0.741 -0.1328 -0.6692  0.3271
11244TIP3   OH255222   1.222   6.043   1.704  0.1419  0.2085  0.9519
11244TIP3    H155223   1.274   5.979   1.654 -0.7402 -1.0376  1.5920
11244TIP3    H255224   1.144   6.057   1.651  0.0638  0.3130  1.0959
11245TIP3   OH255225   3.035   2.283  14.666 -0.0491 -0.2558 -0.1681
11245TIP3    H155226   2.949   2.271  14.626 -0.4739 -1.0447  0.9658
11245TIP3    H255227   3.074   2.356  14.617 -0.8834 -0.6530 -1.4644
11246TIP3   OH255228   2.661   3.981  16.230  0.0558 -0.0985 -0.6673
11246TIP3    H155229   2.702   4.047  16.285  1.4055 -0.1804 -1.5534
11246TIP3    H255230   2.716   3.903  16.241  1.0021  0.2007 -2.9528
11247TIP3   OH255231   4.381   0.228   5.967  0.3339 -0.7497 -0.3263
11247TIP3    H155232   4.452   0.291   5.955  2.0330 -2.9132 -2.1284
11247TIP3    H255233   4.376   0.216   6.062  2.0841 -0.2126 -0.1528
11248TIP3   OH255234   1.134   6.227  13.990  0.1215  0.1812  0.9479
11248TIP3    H155235   1.098   6.311  13.964  0.6792  0.2636  0.4254
11248TIP3    H255236   1.223   6.226  13.954 -0.0466 -0.8278  0.5284
11249TIP3   OH255237   0.676   2.236   3.769  0.0598 -0.4875 -0.6327
11249TIP3    H155238   0.616   2.264   3.700 -0.3154  0.2688 -0.0081
11249TIP3    H255239   0.763   2.262   3.738 -0.1458  0.1795 -0.6670
11250TIP3   OH255240   2.482   6.793  15.489  0.0661 -0.3170  0.0599
11250TIP3    H155241   2.509   6.881  15.463  0.8589 -0.1381  1.4593
11250TIP3    H255242   2.421   6.806  15.561 -1.0598 -0.8684 -0.7689
11251TIP3   OH255243   3.338   3.976   2.250 -0.1700  1.0165  0.0500
11251TIP3    H155244   3.309   3.920   2.179 -0.2821  0.7876  0.2733
11251TIP3    H255245   3.259   4.017   2.284 -0.6185 -1.5287  2.2901
11252TIP3   OH255246   5.087   5.288   2.462 -0.0296 -0.3522  0.2260
11252TIP3    H155247   5.098   5.213   2.402 -1.1714  0.5338 -1.1247
11252TIP3    H255248   5.126   5.362   2.414 -0.8137  0.3329  0.6428
11253TIP3   OH255249   0.626   2.271  12.055  0.3689 -0.1345  0.3027
11253TIP3    H155250   0.708   2.260  12.104  0.0657 -1.4838  0.5099
11253TIP3    H255251   0.608   2.185  12.017 -0.8195  0.2135  0.0484
11254TIP3   OH255252   1.624   0.952   2.633  0.3854 -0.1312  0.0735
11254TIP3    H155253   1.545   0.957   2.688 -0.4568 -1.1361 -1.0309
11254TIP3    H255254   1.677   0.883   2.674  0.1539 -0.2766  0.1315
11255TIP3   OH255255   2.809   5.241  15.725 -0.5285 -0.6160 -0.1154
11255TIP3    H155256   2.819   5.192  15.806 -0.7191 -0.8448 -0.2283
11255TIP3    H255257   2.889   5.293  15.719 -0.5027 -0.6175  0.2052
11256TIP3   OH255258   1.888   1.313  12.770 -0.0036 -0.5619  0.1139
11256TIP3    H155259   1.903   1.287  12.679 -0.5027  0.7920 -0.3597
11256TIP3    H255260   1.974   1.302  12.811  0.5690  0.1376 -0.8513
11257TIP3   OH255261   6.397   5.478   0.237  0.2386 -0.0382  0.1944
11257TIP3    H155262   6.317   5.485   0.184 -1.1596  0.7258  2.3708
11257TIP3    H255263   6.463   5.524   0.186 -1.1024  0.7508 -0.8782
11258TIP3   OH255264   1.940   1.650   4.312  0.1700  0.0628 -0.3493
11258TIP3    H155265   1.950   1.699   4.230  0.1101  0.5093 -0.0880
11258TIP3    H255266   2.023   1.603   4.323  0.0398 -0.2957 -0.8592
11259TIP3   OH255267   4.930   0.079   4.298  0.2182 -0.1502  0.2997
11259TIP3    H155268   4.847   0.099   4.343 -0.0154  0.1258 -0.2443
11259TIP3    H255269   4.981   0.030   4.362  0.0247  0.5381  0.9929
11260TIP3   OH255270   1.561   4.662  13.988 -0.8086 -0.2292  0.4014
11260TIP3    H155271   1.611   4.742  13.975 -0.4396 -0.5073  0.0942
11260TIP3    H255272   1.491   4.666  13.922 -1.4385  0.3532  1.1012
11261TIP3   OH255273   5.506   0.961   6.290 -0.0174  0.1539 -0.4619
11261TIP3    H155274   5.588   0.965   6.338  0.1843  1.1741 -0.8844
11261TIP3    H255275   5.459   0.887   6.329  1.9785 -1.8210 -1.6291
11262TIP3   OH255276   6.124   2.376   3.440 -0.1583 -0.3823 -0.1253
11262TIP3    H155277   6.173   2.417   3.511  0.0504 -0.4065 -0.2538
11262TIP3    H255278   6.033   2.378   3.469 -0.1397  0.0963 -0.0945
11263TIP3   OH255279   3.222   2.704  11.677 -0.2177 -0.8188  0.0034
11263TIP3    H155280   3.151   2.766  11.662  0.5545  0.0443 -0.1395
11263TIP3    H255281   3.261   2.731  11.760  1.7049  0.4561 -1.2731
11264TIP3   OH255282   3.219   0.289  11.321  0.2043  0.1112  0.9185
11264TIP3    H155283   3.240   0.235  11.398 -0.0724  0.0532  0.9533
11264TIP3    H255284   3.139   0.250  11.286 -0.4027  0.9368  1.3599
11265TIP3   OH255285   4.321   0.469   1.586 -0.9847  0.5997 -0.1432
11265TIP3    H155286   4.303   0.489   1.678  0.3460 -0.0989  0.2777
11265TIP3    H255287   4.277   0.539   1.537 -2.4950  0.4571  0.9733
11266TIP3   OH255288   6.156   0.857  13.311 -0.0450  0.1897  0.0650
11266TIP3    H155289   6.097   0.892  13.377 -1.3537  0.4173 -1.2003
11266TIP3    H255290   6.177   0.769  13.341  0.1561  0.6408  1.2669
11267TIP3   OH255291   1.472   0.910   2.103  0.4451  0.3083 -0.2230
11267TIP3    H155292   1.532   0.968   2.149  1.2392 -0.5323 -0.1715
11267TIP3    H255293   1.525   0.871   2.033 -0.2316  0.1042 -0.6298
11268TIP3   OH255294   2.319   1.283   5.117 -0.4605  0.1982 -0.8685
11268TIP3    H155295   2.326   1.366   5.070 -0.7828 -1.0957 -3.2705
11268TIP3    H255296   2.226   1.273   5.135 -0.2050  1.3368  1.3460
11269TIP3   OH255297   4.877   2.614   1.981  0.1688 -0.6288 -0.2903
11269TIP3    H155298   4.904   2.571   2.063 -0.4144 -1.4689 -0.5374
11269TIP3    H255299   4.957   2.616   1.928  0.5249 -0.1720  0.2657
11270TIP3   OH255300   3.730   2.146  13.900  0.7567 -0.0677 -0.1128
11270TIP3    H155301   3.707   2.238  13.915 -1.0247 -0.4261 -0.4931
11270TIP3    H255302   3.811   2.134  13.948  1.0372  1.7220 -0.0829
11271TIP3   OH255303   2.686   1.537   0.740 -0.4166  0.5228 -0.0846
11271TIP3    H155304   2.690   1.507   0.649 -1.8573  0.3626 -0.1056
11271TIP3    H255305   2.601   1.507   0.772 -0.3664  1.4765  1.0049
11272TIP3   OH255306   6.566   5.075  16.146  0.1416 -0.4744  0.1552
11272TIP3    H155307   6.576   4.982  16.125 -0.5878 -0.7011  0.7534
11272TIP3    H255308   6.482   5.099  16.107 -0.9902 -0.7736  2.2886
11273TIP3   OH255309   5.928   5.850  15.700  0.4966 -0.3453 -0.0834
11273TIP3    H155310   5.871   5.774  15.692  0.4128 -0.2412 -0.4421
11273TIP3    H255311   5.978   5.834  15.781  0.5018 -0.7939 -0.1774
11274TIP3   OH255312   4.591   6.024  11.039 -0.6038 -0.3193  0.0614
11274TIP3    H155313   4.667   5.967  11.039  0.0708  0.5645 -0.3119
11274TIP3    H255314   4.592   6.065  10.952 -0.4095  1.1331  0.7265
11275TIP3   OH255315   5.606   1.180   1.481  0.1826 -0.2591 -0.1897
11275TIP3    H155316   5.615   1.125   1.559  2.4699 -0.3068 -0.4579
11275TIP3    H255317   5.620   1.120   1.408  0.3200  0.2293 -0.5630
11276TIP3   OH255318   1.333   5.807  13.348  0.0951 -0.3480 -0.3023
11276TIP3    H155319   1.265   5.820  13.282 -0.7126 -1.3714  0.3140
11276TIP3    H255320   1.389   5.738  13.311  0.5748  0.2183 -0.6362
11277TIP3   OH255321   5.866   1.815  12.733  0.4223 -0.0467  0.7263
11277TIP3    H155322   5.959   1.836  12.736  0.2463  0.5274  2.9350
11277TIP3    H255323   5.822   1.899  12.743 -0.3403 -0.3040 -0.4044
11278TIP3   OH255324   0.795   1.676  13.105  0.1557  0.3662  0.0633
11278TIP3    H155325   0.701   1.657  13.097 -0.1183  1.8706 -0.5370
11278TIP3    H255326   0.835   1.592  13.127 -1.5496  0.0749  2.1819
11279TIP3   OH255327   0.807   1.085   4.578  0.5178  0.4953 -0.1092
11279TIP3    H155328   0.853   1.011   4.617 -0.1564 -0.0118 -0.2768
11279TIP3    H255329   0.735   1.046   4.529 -0.7893  1.3291  1.0972
11280TIP3   OH255330   4.935   6.540   0.373 -0.0323 -0.1301  0.0584
11280TIP3    H155331   4.879   6.479   0.325  0.2549 -0.7511  0.5006
11280TIP3    H255332   5.007   6.486   0.405  0.6915  0.6207 -0.3025
11281TIP3   OH255333   5.175   1.208  16.592  0.0995  0.0693 -0.8487
11281TIP3    H155334   5.164   1.300  16.569  0.6655 -0.2171 -2.3565
11281TIP3    H255335   5.093   1.166  16.567 -0.2597  0.2144  0.0923
11282TIP3   OH255336   3.637   2.669  16.949  0.1527  0.1665 -0.1128
11282TIP3    H155337   3.585   2.686  17.027  0.3962 -1.1541  0.3589
11282TIP3    H255338   3.670   2.754  16.923  0.8519  0.4991  1.7864
11283TIP3   OH255339   0.275   0.640  13.289  0.4466 -0.5531  0.6748
11283TIP3    H155340   0.342   0.639  13.221  1.2036  1.5831  1.3651
11283TIP3    H255341   0.205   0.695  13.253 -1.2810 -3.2317 -0.2936
11284TIP3   OH255342   3.654   3.942   1.405  0.4058  0.3263 -0.8136
11284TIP3    H155343   3.607   4.002   1.348  0.3589  1.3157  0.2496
11284TIP3    H255344   3.651   3.983   1.491 -0.9123 -1.9193  0.2635
11285TIP3   OH255345   1.644   2.129   6.842 -0.3983  0.2723  0.4076
11285TIP3    H155346   1.737   2.110   6.831 -0.3613  0.9174 -0.4550
11285TIP3    H255347   1.603   2.096   6.762 -0.9250 -0.0797  0.8170
11286TIP3   OH255348   2.887   4.828  14.462  0.4070 -0.1416 -0.5889
11286TIP3    H155349   2.957   4.798  14.403  0.5067  0.1645 -0.6287
11286TIP3    H255350   2.904   4.782  14.544  1.5882  1.1140 -0.1104
11287TIP3   OH255351   1.433   0.119  11.533  0.0279  0.4467 -0.2816
11287TIP3    H155352   1.384   0.170  11.597  0.8057  1.4135 -0.4315
11287TIP3    H255353   1.508   0.085  11.581  0.7309  1.3545 -0.7040
11288TIP3   OH255354   0.831   2.669   5.115 -0.4765 -0.0238 -0.3272
11288TIP3    H155355   0.887   2.724   5.061 -1.1315  3.1065  2.0436
11288TIP3    H255356   0.891   2.627   5.177 -0.3400  0.6791  0.0233
11289TIP3   OH255357   4.248   5.007  15.867  0.2198  0.5100 -0.0872
11289TIP3    H155358   4.196   4.933  15.898  0.3386  0.1039 -0.8373
11289TIP3    H255359   4.293   4.973  15.789  0.9912  1.0883  0.0994
11290TIP3   OH255360   1.319   0.951  11.262 -0.1457  0.5588 -0.0729
11290TIP3    H155361   1.334   0.889  11.190 -0.2473  1.4833 -0.8952
11290TIP3    H255362   1.378   0.922  11.331  2.2585  1.5604 -1.6798
11291TIP3   OH255363   2.034   3.463   3.405  0.2787  0.6300 -0.1915
11291TIP3    H155364   2.063   3.405   3.335  0.2845 -1.5549  1.5640
11291TIP3    H255365   2.111   3.515   3.427  1.9819 -2.6401  2.0045
11292TIP3   OH255366   6.472   1.104  15.516 -0.4802 -0.6513  0.5893
11292TIP3    H155367   6.497   1.016  15.543  1.3037 -0.8787 -1.7133
11292TIP3    H255368   6.416   1.092  15.439 -0.0328  0.2178  0.1124
11293TIP3   OH255369   1.508   5.647   2.487 -0.4520  0.4271  0.5135
11293TIP3    H155370   1.518   5.704   2.411  0.0899  1.4242  1.3114
11293TIP3    H255371   1.414   5.631   2.493 -0.6483  1.5283  0.4744
11294TIP3   OH255372   0.718   0.997  15.332  0.0009 -0.4046 -0.4340
11294TIP3    H155373   0.700   0.934  15.263 -0.4731 -0.9930  0.2155
11294TIP3    H255374   0.714   0.946  15.413 -2.1924  0.7827  0.2701
11295TIP3   OH255375   1.065   2.303   6.620  0.5137  0.1459 -0.3591
11295TIP3    H155376   1.071   2.221   6.572  0.4254 -0.4684  0.6547
11295TIP3    H255377   1.093   2.280   6.709  0.4633  1.2085 -0.0632
11296TIP3   OH255378   6.504   2.889   3.143 -0.2251 -0.1092 -0.0336
11296TIP3    H155379   6.579   2.842   3.106  0.8474 -0.6832  2.7641
11296TIP3    H255380   6.434   2.824   3.146 -0.0532 -0.3024 -0.2418
11297TIP3   OH255381   1.681   5.709   4.898 -0.4588 -0.5164 -0.6102
11297TIP3    H155382   1.694   5.746   4.810 -2.1711  0.8987 -0.3275
11297TIP3    H255383   1.640   5.624   4.882 -0.1002 -0.5802 -1.2131
11298TIP3   OH255384   3.244   5.193  14.721 -0.4067  0.2194 -0.6721
11298TIP3    H155385   3.329   5.151  14.734 -0.6800 -0.6849 -1.7321
11298TIP3    H255386   3.265   5.286  14.707  0.1514  0.5825  2.2823
11299TIP3   OH255387   3.990   0.908   4.064  0.5578  0.3880 -0.0154
11299TIP3    H155388   3.956   0.948   3.985  0.1683  0.5405  0.2283
11299TIP3    H255389   3.954   0.961   4.135  0.4325 -0.1044  0.2902
11300TIP3   OH255390   4.050   4.121  12.303  0.7059  0.0798  0.5759
11300TIP3    H155391   4.013   4.099  12.388  1.4600 -0.5535  0.7505
11300TIP3    H255392   4.025   4.048  12.246 -1.0478  1.1920 -0.1415
11301TIP3   OH255393   4.399   3.356  11.280  0.2376  0.3958 -0.0825
11301TIP3    H155394   4.383   3.296  11.207  0.1867  2.1969 -1.5759
11301TIP3    H255395   4.323   3.414  11.280  1.4477  1.9999 -0.1989
11302TIP3   OH255396   2.754   0.458  14.764  0.4854 -0.2599  0.0584
11302TIP3    H155397   2.778   0.547  14.737  0.2868 -0.1377  0.2826
11302TIP3    H255398   2.674   0.439  14.715  0.2316 -0.1112  0.4084
11303TIP3   OH255399   2.230   6.612   4.035 -0.2478 -0.0386 -0.3550
11303TIP3    H155400   2.312   6.593   4.081  0.9657  0.9383 -2.0601
11303TIP3    H255401   2.161   6.577   4.092  1.3803 -1.2290  0.9092
11304TIP3   OH255402   3.493   2.850   1.585  0.8374  0.0113 -0.3737
11304TIP3    H155403   3.477   2.943   1.571  0.5688 -0.0116 -0.2130
11304TIP3    H255404   3.566   2.847   1.647  1.3149  0.1123 -0.9174
11305TIP3   OH255405   1.863   2.150  16.195  0.6121 -0.2528 -0.0005
11305TIP3    H155406   1.777   2.148  16.154  0.2095 -1.1311  0.8433
11305TIP3    H255407   1.898   2.062  16.180  2.2468  0.7261 -2.1378
11306TIP3   OH255408   4.952   2.974  16.465 -0.0667  0.2570  1.0446
11306TIP3    H155409   5.016   2.927  16.412 -0.2645  2.9333 -1.7195
11306TIP3    H255410   4.868   2.956  16.424 -0.5540  0.3519  1.9840
11307TIP3   OH255411   0.988   3.820   6.736 -0.5689 -0.2483 -0.4292
11307TIP3    H155412   1.073   3.777   6.722 -1.5321 -2.3694  0.0596
11307TIP3    H255413   0.942   3.763   6.797 -2.0861  1.2648 -0.1185
11308TIP3   OH255414   3.629   2.944  11.263  0.3430  0.7154 -1.0130
11308TIP3    H155415   3.555   3.004  11.251  0.6352  1.5659  1.1321
11308TIP3    H255416   3.706   2.997  11.243  0.4842  0.4547 -1.1533
11309TIP3   OH255417   0.117   4.972   6.447  0.1895  0.0989 -0.6875
11309TIP3    H155418   0.032   4.935   6.469  1.1801 -1.2785  0.9266
11309TIP3    H255419   0.146   5.015   6.527  1.4690 -0.3316 -0.9068
11310TIP3   OH255420   0.609   2.927   0.055 -0.4991 -0.0957 -0.4152
11310TIP3    H155421   0.624   2.902  -0.036 -1.0146  0.5825 -0.6899
11310TIP3    H255422   0.644   2.854   0.106  3.4043  1.2152 -1.0266
11311TIP3   OH255423   1.361   5.303   3.016  0.3348  0.0471  0.1713
11311TIP3    H155424   1.297   5.250   2.968  1.3830  0.2668 -1.4717
11311TIP3    H255425   1.348   5.278   3.108 -1.0401 -1.0501 -0.3042
11312TIP3   OH255426   3.341   2.504   5.034  0.0587 -0.4426 -0.1462
11312TIP3    H155427   3.410   2.551   4.987 -1.7603  1.3654 -1.0814
11312TIP3    H255428   3.340   2.544   5.121 -1.3716  1.1993 -0.8867
11313TIP3   OH255429   4.828   1.357  14.539  0.1336 -0.2654 -0.0032
11313TIP3    H155430   4.916   1.377  14.508 -0.1900 -2.2447 -2.3399
11313TIP3    H255431   4.813   1.267  14.512 -3.3346  0.6612 -1.3582
11314TIP3   OH255432   6.508   4.446  13.383 -0.0407 -0.5001 -0.2556
11314TIP3    H155433   6.425   4.405  13.360  0.5597 -2.2141  0.5510
11314TIP3    H255434   6.573   4.377  13.371  1.0874  0.4334  0.4215
11315TIP3   OH255435   1.272   4.362  13.199 -0.0856 -0.2127  0.2218
11315TIP3    H155436   1.287   4.355  13.105  0.8841  1.9306  0.1881
11315TIP3    H255437   1.254   4.272  13.228  0.5808 -1.0190 -1.8285
11316TIP3   OH255438   2.979   4.209   4.324  0.1079 -0.2242  0.2372
11316TIP3    H155439   3.044   4.191   4.256  0.6099  0.8107  0.4363
11316TIP3    H255440   3.028   4.203   4.406 -0.2825 -0.4934  0.4555
11317TIP3   OH255441   2.850   1.360   6.259 -0.3803  0.1243  0.3573
11317TIP3    H155442   2.778   1.322   6.208 -1.5480 -0.0015  2.0432
11317TIP3    H255443   2.902   1.408   6.195 -1.8494  0.0395 -0.9456
11318TIP3   OH255444   6.586   4.985   2.765 -0.1194 -0.1431 -0.7861
11318TIP3    H155445   6.523   5.004   2.834  2.0299  1.3309  0.8454
11318TIP3    H255446   6.634   4.908   2.795  0.1272 -0.1309 -1.1344
11319TIP3   OH255447   5.383   1.284  15.245  0.5244  0.2891  0.2893
11319TIP3    H155448   5.414   1.374  15.249 -0.1471  0.5011  0.8495
11319TIP3    H255449   5.294   1.287  15.281  0.2944 -0.5041 -0.1759
11320TIP3   OH255450   1.516   0.573  14.761  0.7121  0.3891  0.0627
11320TIP3    H155451   1.553   0.535  14.680  0.1272  1.9285 -0.9383
11320TIP3    H255452   1.577   0.546  14.830  1.0411 -1.2254 -0.8347
11321TIP3   OH255453   1.339   0.157  12.636  0.1419  0.2167  0.0658
11321TIP3    H155454   1.424   0.115  12.618  0.7315  1.2823  0.3105
11321TIP3    H255455   1.348   0.194  12.723 -0.6013  0.2811  0.1182
11322TIP3   OH255456   5.279   4.843   4.897  0.0219  0.6050 -0.9090
11322TIP3    H155457   5.258   4.828   4.805  1.3219 -0.0202 -1.1177
11322TIP3    H255458   5.266   4.757   4.939  1.7877  0.2788 -0.9856
11323TIP3   OH255459   3.344   0.167   2.503  0.4117  0.1873  0.2765
11323TIP3    H155460   3.353   0.079   2.465 -1.2290  0.1375 -0.0132
11323TIP3    H255461   3.322   0.151   2.595  3.2028  0.3137  1.0160
11324TIP3   OH255462   1.342   3.218   0.552  0.0763 -0.4031  0.3897
11324TIP3    H155463   1.330   3.150   0.486  0.9581  0.0753 -0.2786
11324TIP3    H255464   1.411   3.185   0.609 -0.1594 -0.4862  0.6269
11325TIP3   OH255465   5.869   6.251  14.802 -0.6489  0.1315 -0.3514
11325TIP3    H155466   5.826   6.250  14.888 -1.2866  1.0887 -0.6539
11325TIP3    H255467   5.914   6.167  14.797 -2.7706 -1.0526 -0.1788
11326TIP3   OH255468   2.582   0.819   5.112 -0.6652  0.2901  0.5770
11326TIP3    H155469   2.533   0.769   5.046  0.5199 -0.0963 -0.0226
11326TIP3    H255470   2.518   0.881   5.147 -2.1082 -1.5119  1.2107
11327TIP3   OH255471   0.723   6.428  11.016  0.0502  0.0169  0.3927
11327TIP3    H155472   0.670   6.355  10.982  0.0886  0.6382 -1.0407
11327TIP3    H255473   0.812   6.408  10.988  0.5438 -0.8193  2.4565
11328TIP3   OH255474   6.530   6.420  14.914  0.2480  0.1845 -0.4811
11328TIP3    H155475   6.438   6.446  14.912  0.5857  1.3742 -0.5772
11328TIP3    H255476   6.543   6.371  14.833 -0.5905 -1.0175  0.0801
11329TIP3   OH255477   0.143   3.374   1.195  0.1681 -0.9690 -0.3558
11329TIP3    H155478   0.172   3.285   1.176 -0.1731 -1.3091  0.7254
11329TIP3    H255479   0.185   3.396   1.278 -1.1193 -0.7469  0.2409
11330TIP3   OH255480   5.942   0.783   1.922  0.0690  0.3477  0.2205
11330TIP3    H155481   5.935   0.823   1.835 -1.0368 -0.4937 -0.0984
11330TIP3    H255482   5.854   0.789   1.958 -0.6781 -3.5205 -0.6419
11331TIP3   OH255483   1.012   1.257   2.123 -0.6486 -0.1180 -0.3711
11331TIP3    H155484   1.052   1.337   2.157 -0.0132 -0.3623 -0.5276
11331TIP3    H255485   0.968   1.218   2.198 -0.1401 -0.1115 -0.0633
11332TIP3   OH255486   5.179   0.228  11.852  0.4434  0.1359 -0.5694
11332TIP3    H155487   5.222   0.148  11.822  0.2085 -0.3883  0.4609
11332TIP3    H255488   5.091   0.199  11.876  0.7472  0.4506  0.9925
11333TIP3   OH255489   1.024   6.588  12.317  0.2192 -0.0879  0.4315
11333TIP3    H155490   0.963   6.655  12.288 -0.3842 -1.1451 -0.8142
11333TIP3    H255491   1.000   6.571  12.409 -0.3344  0.6065  0.4165
11334TIP3   OH255492   4.610   3.023  12.261 -0.4812  0.1742 -0.0458
11334TIP3    H155493   4.574   2.942  12.298  0.2166 -0.2986 -0.4016
11334TIP3    H255494   4.566   3.093  12.310 -1.0678 -0.4179  0.2796
11335TIP3   OH255495   1.465   6.557   4.176 -0.1769  0.0721 -0.1562
11335TIP3    H155496   1.505   6.633   4.219 -0.3072  0.2562 -0.3603
11335TIP3    H255497   1.425   6.593   4.097  1.6456 -0.5760 -1.3929
11336TIP3   OH255498   2.852   3.559  15.402 -0.1310  0.9619 -1.1255
11336TIP3    H155499   2.841   3.654  15.415  0.0952  0.7355  0.8967
11336TIP3    H255500   2.914   3.533  15.470 -1.2707 -0.8823 -0.7644
11337TIP3   OH255501   3.257   6.126   1.006 -0.6201  0.6048 -0.3313
11337TIP3    H155502   3.316   6.050   1.007  0.7281  1.6568  0.8387
11337TIP3    H255503   3.203   6.115   1.085 -1.8924 -0.2568 -1.2996
11338TIP3   OH255504   5.476   1.946  11.873  0.3156  0.1866 -0.3944
11338TIP3    H155505   5.414   1.975  11.806  0.3938  0.3709 -0.3899
11338TIP3    H255506   5.432   1.967  11.956  0.5893  0.7596 -0.3926
11339TIP3   OH255507   1.656   0.496   4.022 -0.5211 -0.0380 -0.6433
11339TIP3    H155508   1.617   0.426   3.971 -1.7022 -0.5664  0.9395
11339TIP3    H255509   1.747   0.469   4.035 -0.9518 -1.2617 -0.1016
11340TIP3   OH255510   6.693   1.422  14.381  0.2885  0.3577 -0.0383
11340TIP3    H155511   6.746   1.468  14.446 -0.5687 -0.0064  0.9504
11340TIP3    H255512   6.689   1.481  14.306  3.0005 -0.0829 -0.5750
11341TIP3   OH255513   2.509   4.270  12.773 -0.2002  0.1407  0.2236
11341TIP3    H155514   2.443   4.336  12.793 -1.0450 -0.1985 -1.3154
11341TIP3    H255515   2.465   4.186  12.790 -0.5347 -0.1119 -1.7700
11342TIP3   OH255516   1.950   2.043  15.684 -0.1949 -0.2693 -0.1087
11342TIP3    H155517   1.915   2.128  15.710  1.1731 -0.3496  2.1260
11342TIP3    H255518   2.034   2.064  15.644 -0.7612 -0.4275 -1.4002
11343TIP3   OH255519   1.812   3.811  16.124  0.1646 -0.3690 -0.0862
11343TIP3    H155520   1.865   3.890  16.115 -0.0169 -0.2543 -0.1509
11343TIP3    H255521   1.737   3.838  16.178  0.6061 -0.7444  0.7205
11344TIP3   OH255522   4.462   1.189   1.479 -0.2178  0.0571 -0.5380
11344TIP3    H155523   4.501   1.166   1.563 -3.0338 -1.9174  0.2943
11344TIP3    H255524   4.465   1.285   1.477  1.0194  0.0750  1.2253
11345TIP3   OH255525   1.212   0.034   5.716 -0.0833 -0.6760  0.2834
11345TIP3    H155526   1.297  -0.012   5.716 -1.5920 -3.5756 -0.3198
11345TIP3    H255527   1.160  -0.014   5.781 -1.9999 -0.3561 -1.0106
11346TIP3   OH255528   3.844   6.010  14.274 -0.4268 -0.0258  0.1404
11346TIP3    H155529   3.767   5.963  14.305 -0.4341 -2.1623 -2.8649
11346TIP3    H255530   3.809   6.085  14.227 -0.6607 -0.3977 -0.2865
11347TIP3   OH255531   3.236   4.894  15.369  0.2035 -0.9446 -0.5383
11347TIP3    H155532   3.193   4.928  15.447  0.5543 -1.9830  0.1244
11347TIP3    H255533   3.185   4.929  15.296 -0.2134 -0.0784  0.1577
11348TIP3   OH255534   1.025   6.597  11.161  0.3599 -0.5491  0.8062
11348TIP3    H155535   1.035   6.691  11.176  1.0696 -0.6503  1.0116
11348TIP3    H255536   1.115   6.564  11.158  0.1406 -1.0826 -0.1626
11349TIP3   OH255537   1.828   5.759  14.067  0.3513  0.4676 -0.0773
11349TIP3    H155538   1.866   5.771  13.980 -0.0845 -0.2860 -0.3799
11349TIP3    H255539   1.854   5.671  14.093 -0.4025  0.2864  0.1008
11350TIP3   OH255540   3.292   0.941  12.672  0.2608 -0.1338  0.3462
11350TIP3    H155541   3.219   0.994  12.702 -1.0047 -1.4244 -0.3604
11350TIP3    H255542   3.276   0.854  12.710  0.7894 -0.7299 -0.7593
11351TIP3   OH255543   0.264   1.440   4.435  0.1826 -0.2547 -0.1757
11351TIP3    H155544   0.265   1.535   4.443 -0.6201 -0.2381 -0.1664
11351TIP3    H255545   0.333   1.420   4.372  1.0077  0.2554  0.5693
11352TIP3   OH255546   4.874   4.091  13.252 -0.1119 -0.1903 -0.0579
11352TIP3    H155547   4.908   4.166  13.204  0.3160 -1.2890 -1.5189
11352TIP3    H255548   4.791   4.121  13.288 -0.2026  0.8196 -1.0831
11353TIP3   OH255549   1.424   6.384  14.997  0.6279 -0.3199 -0.0281
11353TIP3    H155550   1.386   6.472  14.991 -0.3516 -0.6417  1.2185
11353TIP3    H255551   1.506   6.397  15.046 -0.7851 -0.4555  2.4173
11354TIP3   OH255552   1.563   4.409  14.943 -0.4698 -0.0735 -0.1161
11354TIP3    H155553   1.654   4.378  14.940 -0.1296  0.7967  1.2183
11354TIP3    H255554   1.566   4.488  14.996 -2.0494 -0.1546  0.1114
11355TIP3   OH255555   4.312   3.884  13.019  0.2303 -0.2861  0.3039
11355TIP3    H155556   4.237   3.941  13.035  0.6730 -0.1219  1.9280
11355TIP3    H255557   4.316   3.876  12.924 -1.1898  0.5668  0.1472
11356TIP3   OH255558   6.630   1.165  12.638  0.8557 -0.0350 -0.5103
11356TIP3    H155559   6.718   1.201  12.648  1.4253 -1.5156 -0.0036
11356TIP3    H255560   6.579   1.207  12.707  0.5707  2.5173 -2.1863
11357TIP3   OH255561   1.517   5.859   5.403 -0.0427 -0.1252 -0.3613
11357TIP3    H155562   1.577   5.837   5.331 -0.8323  0.4703 -1.2275
11357TIP3    H255563   1.434   5.820   5.377 -1.8501  4.7214 -2.6117
11358TIP3   OH255564   0.409   1.083  12.107 -0.2461  0.3487 -0.1445
11358TIP3    H155565   0.345   1.053  12.172  0.6115 -0.8487  0.1681
11358TIP3    H255566   0.431   1.172  12.134  0.0201 -0.1021  1.1469
11359TIP3   OH255567   3.312   1.232   5.867  0.4244  0.6788 -0.2483
11359TIP3    H155568   3.340   1.230   5.959 -0.9545  0.2642  0.1671
11359TIP3    H255569   3.221   1.202   5.869  0.3846  0.6835 -1.7519
11360TIP3   OH255570   6.327   2.145  13.882  0.0238  0.1559 -0.8201
11360TIP3    H155571   6.232   2.141  13.881  0.0560 -1.3046 -0.2686
11360TIP3    H255572   6.348   2.237  13.896 -1.2776  0.7543 -2.7373
11361TIP3   OH255573   2.304   0.166   3.047 -0.0799 -0.3026 -0.0616
11361TIP3    H155574   2.348   0.133   2.969  0.7403 -0.6450  0.5329
11361TIP3    H255575   2.235   0.223   3.014 -0.2320 -1.0454 -1.0584
11362TIP3   OH255576   5.647   4.016  13.559 -0.2517 -0.3815  0.0605
11362TIP3    H155577   5.647   4.057  13.646 -2.2949  0.9813 -0.5608
11362TIP3    H255578   5.695   4.078  13.504 -1.0878 -0.0682 -0.3162
11363TIP3   OH255579   2.223   1.460   2.479 -0.0012  0.5838  0.5028
11363TIP3    H155580   2.150   1.468   2.541 -0.8138 -1.2699 -0.1607
11363TIP3    H255581   2.301   1.470   2.533 -0.7116  0.0760  1.6661
11364TIP3   OH255582   3.680   2.453  15.100  0.3179  0.2750 -0.2032
11364TIP3    H155583   3.763   2.480  15.139  0.7660  0.8762 -1.5464
11364TIP3    H255584   3.658   2.523  15.038 -1.0683  0.0035 -0.0485
11365TIP3   OH255585   3.321   6.101   5.036 -0.1760  0.6772  0.2561
11365TIP3    H155586   3.282   6.037   4.977  1.0057 -0.9611  1.1810
11365TIP3    H255587   3.257   6.113   5.105  0.1236 -0.5169  0.7533
11366TIP3   OH255588   3.015   4.431  12.569 -0.1722 -0.6155 -0.1704
11366TIP3    H155589   2.972   4.441  12.654 -1.4514 -1.1865 -0.7282
11366TIP3    H255590   2.957   4.478  12.508 -0.6513 -2.3911 -1.1251
11367TIP3   OH255591   4.512   3.935  13.371  0.3347  0.1606 -0.6479
11367TIP3    H155592   4.560   4.017  13.359  0.0564  0.2017 -1.4773
11367TIP3    H255593   4.574   3.878  13.417  0.6242  0.7430 -0.3081
11368TIP3   OH255594   1.510   0.732  13.858 -0.4922 -0.6972  0.0470
11368TIP3    H155595   1.531   0.639  13.869  1.5412 -0.0019  2.3550
11368TIP3    H255596   1.590   0.771  13.823 -0.6358  0.5362  1.0636
11369TIP3   OH255597   3.312   6.322  13.225  0.0042 -0.2094 -0.0912
11369TIP3    H155598   3.303   6.417  13.216 -0.3699 -0.2939 -0.5978
11369TIP3    H255599   3.228   6.292  13.259 -0.3902 -0.5380 -1.3259
11370TIP3   OH255600   0.308   1.774  12.324  0.4429 -0.1393  0.4130
11370TIP3    H155601   0.309   1.683  12.354  3.2074 -0.1233  0.5348
11370TIP3    H255602   0.329   1.825  12.402 -1.6971  0.6899  0.4836
11371TIP3   OH255603   6.368   1.421  14.502  0.4134  0.2432  0.3363
11371TIP3    H155604   6.390   1.482  14.430  0.0053  0.7648  0.6503
11371TIP3    H255605   6.313   1.355  14.461  1.6499 -0.4536 -0.2214
11372TIP3   OH255606   6.636   2.823  11.641  0.1718  0.5534 -0.0466
11372TIP3    H155607   6.562   2.873  11.675 -1.7724 -1.0106 -1.8649
11372TIP3    H255608   6.689   2.888  11.595 -1.5440  1.2216 -1.1220
11373TIP3   OH255609   6.614   4.223  12.520 -0.2201 -0.4336  0.2463
11373TIP3    H155610   6.608   4.316  12.544  0.3295 -0.5051  0.6903
11373TIP3    H255611   6.571   4.176  12.591 -3.2212 -0.3634 -1.4499
11374TIP3   OH255612   2.852   6.696  12.014 -0.0806  0.7196  0.6630
11374TIP3    H155613   2.910   6.771  12.005 -0.6593  1.0355 -0.4994
11374TIP3    H255614   2.765   6.730  11.992 -0.4581 -0.1312  0.7966
11375TIP3   OH255615   4.647   3.899  15.631  0.0956 -0.4261 -0.7134
11375TIP3    H155616   4.629   3.950  15.711 -0.4775 -1.6380 -0.0617
11375TIP3    H255617   4.561   3.883  15.593  0.4924  2.0873 -2.8319
11376TIP3   OH255618   5.716   1.795   3.930  0.4770 -0.4019 -0.1694
11376TIP3    H155619   5.622   1.800   3.945  0.6014 -0.7548  0.7864
11376TIP3    H255620   5.725   1.781   3.836 -0.4596 -1.4256 -0.1143
11377TIP3   OH255621   1.863   1.819  11.701  0.7694  0.2057 -0.3024
11377TIP3    H155622   1.863   1.889  11.767  1.8744 -0.5206  0.5026
11377TIP3    H255623   1.789   1.838  11.645  0.9115  1.8879  0.0628
11378TIP3   OH255624   5.621   6.199   6.504  0.6594  0.1272  0.4014
11378TIP3    H155625   5.681   6.209   6.578  0.6739 -2.2126  0.7179
11378TIP3    H255626   5.677   6.199   6.427  0.9472 -0.7533  0.6096
11379TIP3   OH255627   6.271   3.849   1.176 -0.1323  0.0276 -0.0535
11379TIP3    H155628   6.362   3.839   1.203  0.1301  1.4831 -0.3607
11379TIP3    H255629   6.221   3.806   1.245  0.8061 -1.3786 -0.2179
11380TIP3   OH255630   0.310   0.927   1.593 -0.1874  0.1377 -0.1049
11380TIP3    H155631   0.384   0.893   1.644 -0.2267 -2.2981 -1.5644
11380TIP3    H255632   0.349   0.959   1.512 -0.7248 -1.3477 -0.9713
11381TIP3   OH255633   4.071   1.466   1.913 -0.4282 -0.4507 -0.9506
11381TIP3    H155634   4.124   1.541   1.888  1.7310 -0.8569  2.0693
11381TIP3    H255635   4.130   1.391   1.904 -0.8409 -1.0787  1.1863
11382TIP3   OH255636   4.888   6.193  14.187  0.3895  0.4783 -0.1654
11382TIP3    H155637   4.927   6.108  14.207  0.3870  0.4634 -0.2267
11382TIP3    H255638   4.803   6.192  14.231 -0.5148 -0.3733 -1.9167
11383TIP3   OH255639   1.426   6.339  16.258 -0.0961 -0.0779  0.4834
11383TIP3    H155640   1.396   6.261  16.211 -0.8288 -0.2287  1.2010
11383TIP3    H255641   1.441   6.404  16.189  1.4201 -1.1310 -0.2165
11384TIP3   OH255642   1.168   6.121  15.146  0.5647  0.1267 -0.5515
11384TIP3    H155643   1.262   6.104  15.151  0.3483 -1.3120 -1.1755
11384TIP3    H255644   1.138   6.067  15.073 -0.9793 -0.5030  0.5381
11385TIP3   OH255645   3.634   0.222  11.762  0.0141 -0.1903  0.0604
11385TIP3    H155646   3.689   0.247  11.688  1.8054  0.3468  1.5306
11385TIP3    H255647   3.653   0.288  11.829 -1.7640 -0.5208  0.9183
11386TIP3   OH255648   0.101   5.600   1.939 -0.3034 -0.1431 -0.7055
11386TIP3    H155649   0.152   5.527   1.975  0.0122  0.6344  0.4864
11386TIP3    H255650   0.023   5.560   1.902  0.2181 -1.1563 -0.7210
11387TIP3   OH255651   1.503   5.732   3.425 -0.3303 -0.3325 -0.2522
11387TIP3    H155652   1.563   5.800   3.455 -0.0154 -0.7990  0.1826
11387TIP3    H255653   1.435   5.780   3.377 -1.1414  0.4989  1.6673
11388TIP3   OH255654   5.965   1.166  14.150 -0.4943 -0.8087 -0.2322
11388TIP3    H155655   5.965   1.079  14.190 -0.5393 -1.3506 -1.3990
11388TIP3    H255656   5.887   1.167  14.095  0.4170 -0.6469 -1.5408
11389TIP3   OH255657   0.736   1.573   1.103  0.0841  0.0663 -0.3944
11389TIP3    H155658   0.810   1.513   1.092  0.0115  0.0935 -1.0463
11389TIP3    H255659   0.776   1.657   1.126  0.2038 -0.1514  0.1970
11390TIP3   OH255660   4.780   4.947  13.282 -0.1129 -0.1689 -0.7892
11390TIP3    H155661   4.718   4.875  13.293 -0.7467  0.4074 -0.5439
11390TIP3    H255662   4.767   4.977  13.193  0.1825 -0.3740 -0.9046
11391TIP3   OH255663   2.508   3.236  17.112 -0.8922 -0.3004 -0.1949
11391TIP3    H155664   2.602   3.228  17.101 -0.6098  0.5421  1.5206
11391TIP3    H255665   2.471   3.176  17.047  0.7742  0.4786 -1.8927
11392TIP3   OH255666   2.709   0.929  12.200  0.4405 -0.1307 -0.2846
11392TIP3    H155667   2.749   1.005  12.158 -0.5020 -0.2888 -1.5004
11392TIP3    H255668   2.766   0.856  12.176 -0.9806 -0.5091 -2.7775
11393TIP3   OH255669   6.082   4.034   0.296  0.2416 -0.0892  1.4821
11393TIP3    H155670   6.069   4.102   0.230 -2.1769 -0.1268  1.8905
11393TIP3    H255671   6.056   3.953   0.253  4.2611 -1.0078  0.5948
11394TIP3   OH255672   2.818   3.275  11.299 -0.2031  0.5397 -0.0054
11394TIP3    H155673   2.810   3.196  11.246 -1.7983 -1.0313  2.5053
11394TIP3    H255674   2.855   3.340  11.238 -0.6330 -1.5532 -2.6282
11395TIP3   OH255675   5.109   4.402   2.858  0.3503  0.6609 -0.5147
11395TIP3    H155676   5.050   4.375   2.787  0.1547  0.2603 -0.2037
11395TIP3    H255677   5.158   4.322   2.879  1.7228  1.2261 -1.4515
11396TIP3   OH255678   1.296   3.970   5.694 -0.1014  0.1054 -0.3782
11396TIP3    H155679   1.286   3.924   5.611 -0.2507  1.3622 -1.0659
11396TIP3    H255680   1.273   4.060   5.675  0.5073  0.5443  0.8823
11397TIP3   OH255681   0.653   0.930   3.244 -0.0794  0.3839  0.0981
11397TIP3    H155682   0.568   0.924   3.200  0.0169 -0.2978 -0.0026
11397TIP3    H255683   0.672   0.840   3.272  1.7427  0.0720 -2.0279
11398TIP3   OH255684   3.768   5.471   0.643  0.6538  0.6304 -0.2431
11398TIP3    H155685   3.849   5.469   0.694  1.3091 -0.4401 -1.3038
11398TIP3    H255686   3.797   5.481   0.552 -0.2688 -2.1933 -0.8910
11399TIP3   OH255687   1.781   1.749   3.627  0.3476  0.6883 -0.0337
11399TIP3    H155688   1.850   1.727   3.565  0.7011  1.0818  0.2214
11399TIP3    H255689   1.816   1.823   3.677  0.2093  0.1375  0.8859
11400TIP3   OH255690   5.842   5.619  15.354 -0.2472  0.3713 -0.9984
11400TIP3    H155691   5.905   5.587  15.289  1.9267  1.7854  0.3458
11400TIP3    H255692   5.843   5.714  15.345  0.6038  0.6489  1.5013
11401TIP3   OH255693   0.215   6.634  15.577 -0.0745 -0.5465 -0.2406
11401TIP3    H155694   0.216   6.690  15.654 -0.5747 -0.3082 -0.4048
11401TIP3    H255695   0.284   6.569  15.593  1.0021  0.5484 -0.3727
11402TIP3   OH255696   5.701   2.419  11.492  0.4030 -0.2606  0.6251
11402TIP3    H155697   5.718   2.336  11.446  0.2638 -0.8067  1.5546
11402TIP3    H255698   5.785   2.466  11.487  0.0895  0.1768 -1.1406
11403TIP3   OH255699   5.747   1.614   0.747 -0.1105 -0.6613  0.0684
11403TIP3    H155700   5.685   1.563   0.696 -0.5141  0.6851 -0.8348
11403TIP3    H255701   5.741   1.579   0.836 -1.3519 -1.2796 -0.2550
11404TIP3   OH255702   4.955   6.634   0.095  0.2746  0.2651  0.2076
11404TIP3    H155703   5.026   6.689   0.061  0.8891 -0.3433  0.4960
11404TIP3    H255704   4.958   6.647   0.189  1.7780 -1.8399  0.4866
11405TIP3   OH255705   3.436   0.771   4.117 -0.1147  0.5818  0.0418
11405TIP3    H155706   3.475   0.723   4.189 -0.3901 -1.0588 -0.8662
11405TIP3    H255707   3.342   0.772   4.137  0.0914  2.4425  1.0215
11406TIP3   OH255708   6.496   2.121  11.890  0.2414 -0.3578  0.0683
11406TIP3    H155709   6.528   2.210  11.903  3.8755 -1.3712 -1.2176
11406TIP3    H255710   6.485   2.086  11.978  2.5325  0.1599  0.5882
11407TIP3   OH255711   2.854   5.455   3.017 -0.8863 -1.0521  0.1945
11407TIP3    H155712   2.860   5.429   3.109  1.1155 -0.3992  0.2857
11407TIP3    H255713   2.853   5.372   2.969 -1.1019 -1.3840  0.7681
11408TIP3   OH255714   2.493   5.700   2.188  0.0668  0.4094  0.3642
11408TIP3    H155715   2.427   5.729   2.125 -0.9748  0.3556  1.4142
11408TIP3    H255716   2.548   5.639   2.139 -2.3591 -1.7087  0.2174
11409TIP3   OH255717   1.623   3.501   0.209 -0.5129 -0.3139  0.2077
11409TIP3    H155718   1.554   3.500   0.142 -0.9089  1.5112  0.5566
11409TIP3    H255719   1.704   3.513   0.160 -0.7853  0.8407  0.0082
11410TIP3   OH255720   6.013   6.727   5.244 -0.3290 -0.0814 -0.3646
11410TIP3    H155721   6.011   6.724   5.340 -0.8837 -1.0272 -0.4031
11410TIP3    H255722   6.105   6.744   5.223  0.2048 -1.9811  0.2941
11411TIP3   OH255723   6.325   3.365   4.584 -0.2877 -0.2385 -0.2549
11411TIP3    H155724   6.382   3.294   4.556  0.7218  0.5681 -0.2705
11411TIP3    H255725   6.368   3.401   4.661 -1.3078 -0.2730  0.3386
11412TIP3   OH255726   4.680   4.729   3.903  0.6635  0.0277  0.2754
11412TIP3    H155727   4.748   4.663   3.889  0.2138 -0.1084 -1.3974
11412TIP3    H255728   4.632   4.731   3.820 -0.9043  0.6608  1.1929
11413TIP3   OH255729   6.250   3.644  11.313  0.1400 -0.3004 -0.0031
11413TIP3    H155730   6.277   3.712  11.251 -2.4047  0.7334 -0.0407
11413TIP3    H255731   6.196   3.689  11.377 -1.9471 -2.3305 -0.2610
11414TIP3   OH255732   4.484   0.797  13.632 -0.0841  0.7726  0.2980
11414TIP3    H155733   4.506   0.788  13.724  0.2926  3.9376  0.6008
11414TIP3    H255734   4.396   0.836  13.632  1.1566  3.7501 -0.5375
11415TIP3   OH255735   1.691   1.767  14.992  0.1713  0.3236  0.2188
11415TIP3    H155736   1.754   1.826  15.034  0.6413  0.5661 -0.8064
11415TIP3    H255737   1.631   1.826  14.946 -2.1706  0.2231  2.9817
11416TIP3   OH255738   2.087   5.142  14.755  0.3817 -0.1482 -0.0298
11416TIP3    H155739   1.998   5.109  14.748  0.2058  0.2430  0.3768
11416TIP3    H255740   2.133   5.101  14.681 -0.5247  0.9447 -1.2264
11417TIP3   OH255741   0.018   3.090   5.148  0.0216 -0.0002  0.3678
11417TIP3    H155742   0.054   3.033   5.216 -2.3855 -1.6551  0.3282
11417TIP3    H255743  -0.049   3.037   5.106  0.2762  1.6035 -2.1803
11418TIP3   OH255744   0.244   0.322   3.788  0.3498  0.5579 -0.7381
11418TIP3    H155745   0.267   0.230   3.774  0.6146  0.1281  2.1922
11418TIP3    H255746   0.193   0.346   3.711 -2.4007 -2.9544 -0.1430
11419TIP3   OH255747   6.105   3.181  13.862  0.6857  0.1736  0.0254
11419TIP3    H155748   6.183   3.184  13.916  0.9705 -0.7725 -0.3213
11419TIP3    H255749   6.136   3.161  13.774  0.0071 -0.9109  0.0165
11420TIP3   OH255750   6.738   6.070   4.251  0.3045  0.1329 -0.1889
11420TIP3    H155751   6.684   6.032   4.321  1.2066  1.0069  1.0175
11420TIP3    H255752   6.808   6.006   4.237  0.3411  0.1328 -0.0088
11421TIP3   OH255753   0.936   4.665  12.722  0.4344 -0.0023 -0.7856
11421TIP3    H155754   0.942   4.758  12.700  0.2963  0.1589 -0.1643
11421TIP3    H255755   0.952   4.619  12.640  1.4994  0.5583 -0.9000
11422TIP3   OH255756   0.335   6.070   5.583  0.0236 -0.0198 -0.1210
11422TIP3    H155757   0.247   6.067   5.621 -0.0455 -0.2829 -0.3056
11422TIP3    H255758   0.385   6.007   5.634 -0.0168 -0.2236 -0.3362
11423TIP3   OH255759   6.815   1.413   6.925  0.1699  0.1400 -0.6469
11423TIP3    H155760   6.885   1.359   6.889  0.1407 -2.1615  2.5433
11423TIP3    H255761   6.854   1.501   6.931  1.4013 -0.2304 -2.5909
11424TIP3   OH255762   2.587   6.383   3.542  0.0161 -0.0307 -0.1196
11424TIP3    H155763   2.515   6.319   3.537 -0.4777  0.6786 -3.1598
11424TIP3    H255764   2.543   6.468   3.540  0.8977  0.4016 -1.1520
11425TIP3   OH255765   3.032   1.127   0.128  0.7087  0.3349  0.0729
11425TIP3    H155766   3.033   1.040   0.087  2.0447  1.1012 -1.5543
11425TIP3    H255767   2.941   1.157   0.117  0.4268 -0.5451 -0.0313
11426TIP3   OH255768   5.709   2.146  14.211  0.2361 -0.0312  0.0626
11426TIP3    H155769   5.795   2.161  14.250 -0.7546  4.7148  0.6982
11426TIP3    H255770   5.649   2.144  14.286 -0.4244 -1.9101 -0.4850
11427TIP3   OH255771   0.420   5.763  14.383  0.3001 -0.2761  0.3312
11427TIP3    H155772   0.454   5.849  14.404 -0.4020 -0.0710  0.6384
11427TIP3    H255773   0.452   5.706  14.453  0.6832 -0.2526  0.1792
11428TIP3   OH255774   5.827   6.520  13.244  0.6826 -0.1187  0.4488
11428TIP3    H155775   5.871   6.529  13.329  1.4622 -0.5614  0.0919
11428TIP3    H255776   5.804   6.427  13.239  4.2036 -0.9708 -1.5543
11429TIP3   OH255777   2.830   0.202   6.159  0.5743 -0.2333 -0.1948
11429TIP3    H155778   2.759   0.141   6.139  0.4797 -0.1367 -0.1538
11429TIP3    H255779   2.792   0.288   6.147  0.9154 -0.1801 -0.9939
11430TIP3   OH255780   0.224   6.503   4.159  0.2899 -0.1719 -0.3196
11430TIP3    H155781   0.171   6.582   4.165 -0.0736 -0.3086 -1.6687
11430TIP3    H255782   0.160   6.432   4.147  0.6207 -0.6607  0.6930
11431TIP3   OH255783   6.797   4.184   5.458 -0.6188  0.0192  0.1691
11431TIP3    H155784   6.767   4.203   5.369 -0.5327  0.5013  0.2439
11431TIP3    H255785   6.877   4.236   5.468 -1.1932  0.7766  0.8897
11432TIP3   OH255786   1.340   1.939  11.874  0.0519 -0.6405 -0.3536
11432TIP3    H155787   1.414   1.927  11.934  0.0594  0.7433 -0.0738
11432TIP3    H255788   1.330   1.854  11.832  1.6997 -0.9019 -0.2645
11433TIP3   OH255789   3.204   1.814  11.698 -0.4844  0.3623 -0.1034
11433TIP3    H155790   3.113   1.806  11.725 -0.4606 -0.4980 -0.2894
11433TIP3    H255791   3.208   1.897  11.651 -1.3801 -0.0785 -0.9504
11434TIP3   OH255792   2.904   1.359  13.231  0.6867 -0.6069  0.3831
11434TIP3    H155793   2.885   1.387  13.320  0.5160 -0.8292  0.4166
11434TIP3    H255794   2.998   1.372  13.221  0.4094  1.2116 -0.0349
11435TIP3   OH255795   2.729   1.076  13.852  0.4229 -0.2595 -0.2001
11435TIP3    H155796   2.654   1.086  13.911 -0.2123 -0.4874 -0.9540
11435TIP3    H255797   2.697   1.017  13.783  0.8696  0.7170 -1.2525
11436TIP3   OH255798   6.074   0.561   3.651  0.1452 -0.6384  0.0380
11436TIP3    H155799   6.136   0.608   3.596 -1.2920  0.3358 -0.7959
11436TIP3    H255800   6.062   0.477   3.607 -0.5516 -0.0920 -0.8399
11437TIP3   OH255801   5.790   5.854   3.238 -0.0677  0.7972 -0.1082
11437TIP3    H155802   5.754   5.894   3.158  0.1003 -1.4586 -1.3552
11437TIP3    H255803   5.730   5.781   3.257  2.4380 -1.5330 -0.8502
11438TIP3   OH255804   1.030   6.552   4.590  0.2834 -0.3076 -0.3235
11438TIP3    H155805   0.993   6.487   4.650 -0.8924 -0.1884 -0.8913
11438TIP3    H255806   1.017   6.513   4.503  1.2799 -0.1392 -0.5519
11439TIP3   OH255807   3.518   6.134  17.150 -0.2062 -0.0696  0.2852
11439TIP3    H155808   3.566   6.195  17.206  1.1574  0.5617 -1.5432
11439TIP3    H255809   3.455   6.189  17.103  1.7708  0.1638 -2.1869
11440TIP3   OH255810   6.231   4.401   3.276 -0.3797 -0.0722 -0.3404
11440TIP3    H155811   6.233   4.322   3.221 -2.0727  0.0615 -0.6013
11440TIP3    H255812   6.146   4.441   3.259 -0.3212  0.7922  1.2514
11441TIP3   OH255813   2.977   4.545  15.368  0.4636  0.0664 -0.2141
11441TIP3    H155814   3.060   4.508  15.398 -1.3360 -2.6415  1.6255
11441TIP3    H255815   2.988   4.555  15.274  1.3591 -4.5423 -0.7243
11442TIP3   OH255816   4.166   5.049  12.404 -0.2005 -0.2448 -0.2571
11442TIP3    H155817   4.217   5.079  12.329  0.9594 -0.7158  0.3351
11442TIP3    H255818   4.179   5.116  12.471 -0.4485 -0.3180 -0.1337
11443TIP3   OH255819   4.201   2.083   4.531 -0.4564 -0.0719 -0.0412
11443TIP3    H155820   4.160   2.023   4.593 -3.7122  0.4005 -1.6009
11443TIP3    H255821   4.162   2.168   4.550 -1.8053  0.0239 -2.8374
11444TIP3   OH255822   6.062   3.917  16.453 -0.2646 -0.0677  0.0451
11444TIP3    H155823   6.034   3.830  16.425 -1.9877  0.2132  0.7873
11444TIP3    H255824   5.982   3.970  16.448  0.7540  1.4645 -0.3482
11445TIP3   OH255825   0.977   3.779   5.874  0.1458  0.1661  0.3607
11445TIP3    H155826   1.044   3.758   5.809  0.3076  1.2938  0.1537
11445TIP3    H255827   1.010   3.857   5.919 -0.1351 -0.4014  1.5623
11446TIP3   OH255828   5.140   2.462  16.433 -0.4429 -0.3686 -0.3683
11446TIP3    H155829   5.231   2.456  16.464 -0.4572 -0.6442 -0.3771
11446TIP3    H255830   5.147   2.508  16.350 -0.2936 -0.5062 -0.4360
11447TIP3   OH255831   6.410   2.960   0.669  0.2799  0.7021 -0.4751
11447TIP3    H155832   6.446   2.966   0.758 -1.1182  1.1428  0.0711
11447TIP3    H255833   6.429   3.045   0.630  0.5714  0.6389 -0.4711
11448TIP3   OH255834   0.517   2.997   5.046 -0.2812 -0.2156 -0.0697
11448TIP3    H155835   0.433   2.987   5.001  0.7054 -1.9616 -1.5993
11448TIP3    H255836   0.524   2.921   5.103 -0.0563  0.3008  0.5961
11449TIP3   OH255837   5.265   1.733  14.696 -0.0850 -0.1633 -0.1730
11449TIP3    H155838   5.178   1.712  14.732 -0.3445 -1.1408 -1.3259
11449TIP3    H255839   5.246   1.791  14.622  0.2933  0.2396  0.0536
11450TIP3   OH255840   0.462   3.485   4.468  0.1576  0.6071  0.5584
11450TIP3    H155841   0.373   3.499   4.503  0.1870  0.2780  0.7615
11450TIP3    H255842   0.449   3.430   4.391  0.2527 -0.0282  0.9921
11451TIP3   OH255843   0.422   6.699  11.854  0.7020  0.4219  0.1477
11451TIP3    H155844   0.514   6.691  11.828  0.5915  0.8062 -0.3887
11451TIP3    H255845   0.392   6.780  11.811 -0.6331 -1.1358 -1.9543
11452TIP3   OH255846   0.424   5.873   4.494 -0.9482 -0.6371 -0.2409
11452TIP3    H155847   0.333   5.903   4.492 -1.6753 -2.6935 -0.2659
11452TIP3    H255848   0.418   5.781   4.468  1.1939 -0.6927 -0.5816
11453TIP3   OH255849   0.332   0.436  16.367  0.3145 -0.3213 -0.2306
11453TIP3    H155850   0.314   0.460  16.458 -0.4556  1.1545 -0.7534
11453TIP3    H255851   0.280   0.357  16.353 -0.9110  0.4086  0.1272
11454TIP3   OH255852   2.675   2.612  17.168 -0.4590  0.2634  0.2014
11454TIP3    H155853   2.740   2.593  17.236 -0.5168  1.9646  0.7534
11454TIP3    H255854   2.594   2.573  17.202 -0.3244  0.4603  0.7623
11455TIP3   OH255855   1.443   0.400   3.648  0.0423 -0.2525  0.2062
11455TIP3    H155856   1.524   0.451   3.659  0.1844 -0.2170 -0.9747
11455TIP3    H255857   1.468   0.328   3.591 -0.2014 -1.5802  1.7569
11456TIP3   OH255858   5.750   5.602  15.647 -0.0543  0.3102  0.0603
11456TIP3    H155859   5.771   5.530  15.707 -0.9826 -0.0404 -0.0168
11456TIP3    H255860   5.778   5.571  15.562  1.0515  0.7122  0.2791
11457TIP3   OH255861   3.258   0.336   1.078  0.2412 -0.7709  0.2240
11457TIP3    H155862   3.237   0.377   0.994  1.8698 -1.9382 -0.7675
11457TIP3    H255863   3.314   0.399   1.123  1.1008 -1.0398 -0.4625
11458TIP3   OH255864   4.615   5.069   4.899 -0.3653 -0.2167 -1.0242
11458TIP3    H155865   4.545   5.031   4.846 -0.4201  0.7127 -1.6274
11458TIP3    H255866   4.604   5.163   4.889 -1.1614  0.0315  1.6573
11459TIP3   OH255867   5.777   5.074  13.376  0.6205  0.6248 -0.3312
11459TIP3    H155868   5.761   5.051  13.468 -1.3920 -2.1621 -1.3124
11459TIP3    H255869   5.713   5.142  13.357 -0.3594 -0.2641 -0.2340
11460TIP3   OH255870   1.450   4.546  15.454 -0.3959 -1.0352  0.5295
11460TIP3    H155871   1.369   4.553  15.405  1.2652 -0.2717 -2.1907
11460TIP3    H255872   1.519   4.553  15.389  1.9471  2.1778  3.1515
11461TIP3   OH255873   2.286   6.036   3.440 -0.3682 -0.3074  0.3542
11461TIP3    H155874   2.220   5.993   3.496 -1.6318  1.4484  0.2536
11461TIP3    H255875   2.306   5.970   3.373 -1.2874 -1.2294  0.9604
11462TIP3   OH255876   5.015   5.510   5.477  0.1507 -0.3538  0.0290
11462TIP3    H155877   5.054   5.426   5.502  0.2248 -0.2091  0.3972
11462TIP3    H255878   4.959   5.489   5.403 -0.0778 -0.7831  0.3222
11463TIP3   OH255879   5.521   6.286  13.918 -0.5842  0.4069 -0.0250
11463TIP3    H155880   5.581   6.354  13.888 -0.1101  0.8768  1.9004
11463TIP3    H255881   5.566   6.245  13.992 -1.2421 -1.4240 -0.6065
11464TIP3   OH255882   2.183   6.018  12.460 -0.1595 -0.7181 -0.6399
11464TIP3    H155883   2.273   6.051  12.466  0.3034 -1.8273 -1.2230
11464TIP3    H255884   2.157   6.001  12.550 -0.1722  0.6137 -0.3851
11465TIP3   OH255885   4.863   0.649   4.726 -0.1856 -0.2864  0.1463
11465TIP3    H155886   4.811   0.573   4.753  0.1235 -0.6177 -0.1948
11465TIP3    H255887   4.942   0.612   4.689 -0.3560  0.1918 -0.7057
11466TIP3   OH255888   3.964   1.448   0.113  1.0009 -0.4714  0.1106
11466TIP3    H155889   3.916   1.516   0.066  0.2827 -0.3804  0.9604
11466TIP3    H255890   3.945   1.367   0.065  0.7396 -0.2933 -0.0860
11467TIP3   OH255891   6.310   1.576  16.460 -0.0172  0.0390  0.3027
11467TIP3    H155892   6.391   1.544  16.421 -1.4418 -1.9419 -1.1605
11467TIP3    H255893   6.329   1.666  16.486  2.5047 -0.2620 -0.3831
11468TIP3   OH255894   1.336   3.964   2.942  0.0915 -0.0305  0.0522
11468TIP3    H155895   1.243   3.965   2.922 -0.0878 -0.7069  0.8303
11468TIP3    H255896   1.352   4.047   2.986 -0.0074  0.3671 -0.6469
11469TIP3   OH255897   2.957   4.393  15.898 -0.1813  0.1235  0.6901
11469TIP3    H155898   3.015   4.469  15.889 -0.0458 -0.2484 -1.8276
11469TIP3    H255899   3.017   4.319  15.910 -0.2753  0.2236  1.8479
11470TIP3   OH255900   6.761   3.162   1.083 -0.5256 -0.2195  0.1062
11470TIP3    H155901   6.770   3.150   1.177  0.4482 -0.9573 -0.0809
11470TIP3    H255902   6.849   3.148   1.048 -0.4579  2.0166 -0.7018
11471TIP3   OH255903   5.450   3.660   2.766  0.2998  0.7303 -0.3834
11471TIP3    H155904   5.420   3.605   2.838  0.1102  0.7143 -0.4726
11471TIP3    H255905   5.516   3.607   2.720  0.9928  1.0480  0.2432
11472TIP3   OH255906   0.991   0.189   4.935 -0.3755  0.7466 -0.0198
11472TIP3    H155907   1.004   0.194   4.840  2.7208 -2.3288  0.1709
11472TIP3    H255908   0.928   0.119   4.947 -0.6025  0.9898  0.2262
11473TIP3   OH255909   6.478   4.257   0.645  0.2826 -0.0669 -0.4579
11473TIP3    H155910   6.393   4.216   0.633  0.6416 -1.0651  0.4015
11473TIP3    H255911   6.537   4.186   0.668  0.7803  0.9944  1.6620
11474TIP3   OH255912   5.694   1.538   2.554 -0.1656  0.0506 -0.5127
11474TIP3    H155913   5.677   1.541   2.460 -0.4797 -0.2712 -0.4664
11474TIP3    H255914   5.613   1.506   2.593  0.1042 -0.2314 -0.1726
11475TIP3   OH255915   5.569   3.789  10.812 -0.0557  0.2945 -0.0307
11475TIP3    H155916   5.593   3.701  10.784  1.3834  1.0782 -1.3795
11475TIP3    H255917   5.651   3.838  10.811 -0.7820  1.5805  0.9934
11476TIP3   OH255918   1.594   6.572   7.064  0.0129 -0.1682 -0.0919
11476TIP3    H155919   1.672   6.598   7.015 -0.0245 -1.1968 -0.7054
11476TIP3    H255920   1.568   6.488   7.026 -2.1508  0.7729 -0.7748
11477TIP3   OH255921   4.442   4.846   2.786 -0.1119 -0.0855  0.3901
11477TIP3    H155922   4.398   4.926   2.758  1.2477  0.8882  0.9597
11477TIP3    H255923   4.373   4.793   2.824 -1.1950  0.4295 -0.8252
11478TIP3   OH255924   0.967   3.195   5.956  0.3835  0.5962  0.4861
11478TIP3    H155925   0.911   3.148   5.894 -0.1694 -0.9278  2.0929
11478TIP3    H255926   0.916   3.198   6.037  1.4409  1.8120  1.1328
11479TIP3   OH255927   1.049   0.066  14.265 -0.1476  0.3024  0.6091
11479TIP3    H155928   1.054   0.142  14.324  1.8274 -0.3704  1.3488
11479TIP3    H255929   1.061  -0.009  14.323  0.3030 -0.4385 -0.4418
11480TIP3   OH255930   2.187   0.582   2.915  0.1102 -0.3850  0.0821
11480TIP3    H155931   2.217   0.670   2.941 -1.0629 -0.0921  0.4923
11480TIP3    H255932   2.101   0.574   2.957 -1.4466 -0.2460 -2.9984
11481TIP3   OH255933   6.563   2.897  16.851 -0.5235 -0.3576 -0.7300
11481TIP3    H155934   6.645   2.924  16.892 -2.2476  1.0004  1.9757
11481TIP3    H255935   6.556   2.804  16.871  0.1517 -0.3917 -0.6209
11482TIP3   OH255936   1.843   0.085   6.034 -0.6357 -0.3544  0.1296
11482TIP3    H155937   1.751   0.068   6.055 -1.0752  0.0565 -1.3881
11482TIP3    H255938   1.873   0.004   5.992  1.2447 -2.5514  5.2651
11483TIP3   OH255939   5.068   5.285  13.401 -0.4817  0.1061  0.0799
11483TIP3    H155940   5.126   5.350  13.442 -1.3285  0.4238  0.7977
11483TIP3    H255941   4.980   5.312  13.428 -0.9681 -0.3280 -1.0559
11484TIP3   OH255942   1.223   6.750   3.688 -0.3665 -0.4403  0.3749
11484TIP3    H155943   1.185   6.835   3.712  1.8099  0.1263  1.9024
11484TIP3    H255944   1.147   6.692   3.679 -1.6085  0.5074  3.9644
11485TIP3   OH255945   5.156   2.042  15.236  0.0898 -0.5225 -0.0243
11485TIP3    H155946   5.250   2.044  15.214 -0.0517  0.8069 -0.5474
11485TIP3    H255947   5.145   2.115  15.297 -0.8720  0.1794 -1.0379
11486TIP3   OH255948   3.194   0.193   4.420  0.6318 -0.1456  0.2390
11486TIP3    H155949   3.230   0.281   4.406 -0.1414  0.3379  1.1696
11486TIP3    H255950   3.117   0.208   4.475  0.0571 -1.3346 -0.2328
11487TIP3   OH255951   3.691   2.001  12.652  0.0406  0.5465 -0.0622
11487TIP3    H155952   3.745   2.049  12.589  1.1869 -0.2640  0.2977
11487TIP3    H255953   3.601   2.018  12.623  0.5091  1.1482 -1.2173
11488TIP3   OH255954   3.961   4.648  14.354  0.5289 -0.2998 -0.0858
11488TIP3    H155955   3.871   4.641  14.321  0.3499  1.1464  0.0813
11488TIP3    H255956   3.956   4.712  14.425  1.3092 -1.7558  1.3446
11489TIP3   OH255957   1.584   4.500   4.210 -0.6155  0.2475 -0.4121
11489TIP3    H155958   1.637   4.468   4.137 -1.3502 -0.9908 -0.4063
11489TIP3    H255959   1.645   4.554   4.261 -0.2406  1.5960 -2.2334
11490TIP3   OH255960   5.338   3.780   2.538  0.0855 -0.9727 -0.3633
11490TIP3    H155961   5.319   3.865   2.578  0.7563 -0.3141 -1.4198
11490TIP3    H255962   5.368   3.725   2.611  0.9698  0.1068  0.0986
11491TIP3   OH255963   5.585   0.108  14.169 -0.4519 -0.3408 -0.0568
11491TIP3    H155964   5.566   0.067  14.253 -3.5609  3.2010  1.1154
11491TIP3    H255965   5.660   0.165  14.186 -0.2063 -0.6541 -0.0727
11492TIP3   OH255966   5.826   1.617   6.228  0.0328  0.1317 -0.3267
11492TIP3    H155967   5.904   1.657   6.266 -0.6199  0.5777  0.5938
11492TIP3    H255968   5.782   1.689   6.183  0.2703 -0.1700 -1.0490
11493TIP3   OH255969   3.617   4.942  12.874 -0.0230 -0.6742  0.1130
11493TIP3    H155970   3.587   4.944  12.783  0.2482  0.0227  0.0376
11493TIP3    H255971   3.552   4.889  12.919 -1.4806  0.9467 -0.0142
11494TIP3   OH255972   5.608   0.122  12.821 -0.3865  0.3740 -0.1083
11494TIP3    H155973   5.630   0.160  12.735 -1.2862 -1.2062 -1.0561
11494TIP3    H255974   5.619   0.028  12.809 -1.4039  0.0685  1.2587
11495TIP3   OH255975   5.359   6.066  12.019 -0.0801  0.1257  0.2871
11495TIP3    H155976   5.269   6.095  12.004  0.0558  0.3164 -0.1702
11495TIP3    H255977   5.352   6.006  12.093 -0.7989 -0.9004 -0.5688
11496TIP3   OH255978   3.384   2.193  12.027  0.1518 -0.5838 -0.4737
11496TIP3    H155979   3.297   2.233  12.032  0.5068  0.1516 -0.1752
11496TIP3    H255980   3.376   2.112  12.077 -0.5119 -0.7816 -0.8989
11497TIP3   OH255981   3.791   4.160  17.070  0.0296 -0.3757  0.0525
11497TIP3    H155982   3.776   4.148  17.164 -0.0155 -1.3192 -0.0643
11497TIP3    H255983   3.877   4.120  17.054 -0.1294 -0.5532 -0.3675
11498TIP3   OH255984   4.939   6.663   3.604 -0.3224  0.3962 -0.7493
11498TIP3    H155985   4.882   6.739   3.593 -0.1075  0.5870 -0.5586
11498TIP3    H255986   4.963   6.665   3.697 -0.8703 -0.2968 -0.5942
11499TIP3   OH255987   1.288   1.134   4.722 -0.4449 -1.2462 -0.2553
11499TIP3    H155988   1.377   1.098   4.715 -0.0886 -0.4994  0.3482
11499TIP3    H255989   1.260   1.111   4.810 -0.7331 -1.2140 -0.3396
11500TIP3   OH255990   0.065   0.192   1.225 -0.0334 -0.1030  0.8315
11500TIP3    H155991   0.060   0.264   1.289  0.4903 -0.3243  1.1231
11500TIP3    H255992   0.059   0.113   1.278  1.8225 -0.3077  0.7547
11501TIP3   OH255993   1.327   1.111   4.448 -1.3592 -0.1749  0.4460
11501TIP3    H155994   1.360   1.188   4.403  3.7219 -1.4517  1.6897
11501TIP3    H255995   1.300   1.143   4.534  0.6086  0.2923  0.9115
11502TIP3   OH255996   5.028   2.782   5.907 -0.2505  0.2140  0.2104
11502TIP3    H155997   5.055   2.817   5.991 -0.1044 -0.7064  0.5577
11502TIP3    H255998   4.934   2.797   5.902 -0.2003  0.5718  0.3912
11503TIP3   OH255999   3.017   4.677   0.687  0.1281 -0.9561 -0.1072
11503TIP3    H156000   2.964   4.631   0.753  1.9270 -1.5842  0.9394
11503TIP3    H256001   3.107   4.664   0.716  0.9329 -0.8991 -2.5082
11504TIP3   OH256002   0.962   3.914  16.343  0.2795 -0.4460  0.0417
11504TIP3    H156003   1.022   3.877  16.278  0.4864  1.7701 -1.0771
11504TIP3    H256004   0.882   3.933  16.294  1.0798  2.9959 -0.0974
11505TIP3   OH256005   1.572   3.246   5.480  0.1903  0.1627 -0.3655
11505TIP3    H156006   1.477   3.238   5.473  0.2569 -0.8900 -0.2267
11505TIP3    H256007   1.599   3.167   5.527  1.2004  0.1535 -0.9570
11506TIP3   OH256008   5.496   2.706   5.536 -0.3025  1.4244 -0.0281
11506TIP3    H156009   5.546   2.787   5.529  1.6769  0.3907  1.6120
11506TIP3    H256010   5.406   2.734   5.550  0.4229  3.3377  0.9387
11507TIP3   OH256011   6.098   6.239  15.779 -0.2006  0.0579 -0.4296
11507TIP3    H156012   6.074   6.189  15.857 -0.2238  0.1280 -0.3915
11507TIP3    H256013   6.038   6.209  15.712 -1.0644  0.9565 -0.0811
11508TIP3   OH256014   5.761   4.781   4.739  0.1800 -1.0194 -0.1148
11508TIP3    H156015   5.790   4.855   4.686  2.4349 -1.3707  0.5941
11508TIP3    H256016   5.824   4.712   4.720  0.4118 -1.4809  2.2394
11509TIP3   OH256017   3.528   3.376   5.953  0.8878 -0.2855  0.1101
11509TIP3    H156018   3.614   3.411   5.978 -0.0803  1.6342  0.8453
11509TIP3    H256019   3.495   3.334   6.033  0.0211  1.2918  0.5900
11510TIP3   OH256020   0.676   4.538   4.251  0.4506 -0.2212  0.0570
11510TIP3    H156021   0.673   4.456   4.300 -3.1321 -1.4127 -2.0407
11510TIP3    H256022   0.686   4.512   4.160  1.3215  1.7705 -0.4520
11511TIP3   OH256023   5.834   6.704  14.036 -0.2013 -0.2880  0.4113
11511TIP3    H156024   5.875   6.762  14.100  1.5065 -1.3474  0.2892
11511TIP3    H256025   5.817   6.623  14.084  2.0028 -1.4468 -0.7040
11512TIP3   OH256026   0.246   5.525   6.152 -0.0380  0.4880  0.1625
11512TIP3    H156027   0.329   5.500   6.111 -1.1082 -1.4486 -0.9054
11512TIP3    H256028   0.253   5.494   6.242 -1.1790 -3.5414 -1.0282
11513TIP3   OH256029   5.583   5.231   2.055  0.1885 -0.1907  0.1889
11513TIP3    H156030   5.593   5.137   2.074  2.2691  0.2423  1.4056
11513TIP3    H256031   5.495   5.252   2.088  0.7718 -1.1367  2.5098
11514TIP3   OH256032   2.817   3.875   4.147 -0.2229 -0.5308  0.0589
11514TIP3    H156033   2.817   3.966   4.115 -2.2762 -0.8354 -0.9241
11514TIP3    H256034   2.734   3.867   4.194  0.8789 -1.3212  1.8765
11515TIP3   OH256035   3.448   4.738   3.641  0.2347  0.5831 -0.1526
11515TIP3    H156036   3.363   4.695   3.651 -0.3142  1.6722  0.0008
11515TIP3    H256037   3.439   4.789   3.560  0.6501  0.9060  0.0041
11516TIP3   OH256038   0.937   3.270  12.955 -0.5722 -0.0243 -0.2669
11516TIP3    H156039   0.858   3.316  12.925 -1.2432 -0.7836  0.3034
11516TIP3    H256040   1.009   3.313  12.909 -1.2360  1.2649 -0.1165
11517TIP3   OH256041   6.140   2.719   0.455 -0.5478 -0.1218 -0.1861
11517TIP3    H156042   6.142   2.751   0.364  3.8863 -3.5430 -1.5042
11517TIP3    H256043   6.210   2.767   0.499 -0.5809 -0.7633  0.5734
11518TIP3   OH256044   5.946   6.377   4.356  0.0793 -0.1261  0.4281
11518TIP3    H156045   5.928   6.293   4.398 -3.0135  0.5806  0.6633
11518TIP3    H256046   5.867   6.428   4.370  0.7571  1.7855 -2.2492
11519TIP3   OH256047   1.724   6.589   5.808 -0.2173  0.3739 -0.2309
11519TIP3    H156048   1.701   6.572   5.717 -0.0100  2.1437 -0.6203
11519TIP3    H256049   1.812   6.552   5.818 -0.7875 -1.0611 -0.3508
11520TIP3   OH256050   0.230   3.821   5.879  0.4037 -0.3819 -0.5018
11520TIP3    H156051   0.295   3.824   5.949  0.0309  0.7020 -0.1833
11520TIP3    H256052   0.271   3.771   5.809  1.2395 -0.4505  0.0337
11521TIP3   OH256053   3.353   6.651  15.140 -0.2167  0.1459  0.0720
11521TIP3    H156054   3.441   6.631  15.171 -0.2041 -1.8294 -1.1433
11521TIP3    H256055   3.365   6.677  15.049 -0.6927  1.9281  0.4882
11522TIP3   OH256056   0.302   6.173  16.713 -0.5063  0.7656  0.3577
11522TIP3    H156057   0.361   6.126  16.654  0.3030  1.4567  0.6078
11522TIP3    H256058   0.359   6.228  16.766 -1.2341  0.1678  1.7695
11523TIP3   OH256059   0.713   1.370  13.805  0.1059  0.3062  0.5770
11523TIP3    H156060   0.755   1.393  13.888  0.1524  2.0940  0.0736
11523TIP3    H256061   0.709   1.274  13.806  2.1990  0.1967  1.6105
11524TIP3   OH256062   3.948   6.226  13.898  0.2125 -0.4581  0.0959
11524TIP3    H156063   3.977   6.222  13.807 -0.7724  1.3810 -0.3267
11524TIP3    H256064   4.014   6.178  13.947  1.6320 -0.0448 -1.3911
11525TIP3   OH256065   4.569   1.526   4.390 -0.0369 -0.4223 -0.0699
11525TIP3    H156066   4.595   1.435   4.374 -1.2499 -0.6804 -0.5780
11525TIP3    H256067   4.477   1.530   4.365 -0.1072  0.8495  0.3531
11526TIP3   OH256068   2.079   3.162   1.166 -0.1519 -0.1167  0.6376
11526TIP3    H156069   2.042   3.249   1.152 -0.5502 -0.2926  0.5651
11526TIP3    H256070   2.112   3.136   1.080  1.0573  0.4566  0.9326
11527TIP3   OH256071   2.764   0.022   0.698 -0.6327 -0.2059 -0.3487
11527TIP3    H156072   2.765  -0.073   0.706 -0.3149 -0.1924 -0.2214
11527TIP3    H256073   2.809   0.054   0.776 -1.3421  0.0728 -0.0496
11528TIP3   OH256074   4.139   0.926  13.957 -0.0655  0.2321 -1.1064
11528TIP3    H156075   4.112   0.836  13.941  0.3361 -0.1560  0.3601
11528TIP3    H256076   4.080   0.979  13.903 -1.1959 -0.8162 -0.9142
11529TIP3   OH256077   4.610   2.317   5.223 -0.1329 -0.1650  0.1681
11529TIP3    H156078   4.541   2.357   5.170 -0.5168 -0.4888  0.4166
11529TIP3    H256079   4.683   2.378   5.218 -0.5479  0.3381  0.1637
11530TIP3   OH256080   5.547   0.783  13.321  0.2239  0.2544 -0.5435
11530TIP3    H156081   5.513   0.846  13.258 -1.0524  1.4810  1.3152
11530TIP3    H256082   5.517   0.698  13.289 -0.2081  0.8391 -1.7024
11531TIP3   OH256083   5.190   0.150  13.718 -0.9119 -0.1186 -0.5937
11531TIP3    H156084   5.275   0.193  13.711 -1.8289  2.1193  1.1784
11531TIP3    H256085   5.147   0.168  13.635 -0.1378 -0.1288 -0.9995
11532TIP3   OH256086   4.915   2.399  15.625  0.2448 -0.2288  0.3377
11532TIP3    H156087   4.862   2.463  15.671  0.1465  0.0425 -0.1534
11532TIP3    H256088   4.981   2.451  15.578  1.8758 -0.6285  2.0993
11533TIP3   OH256089   5.254   5.756  12.860  0.4543 -0.0044  0.2995
11533TIP3    H156090   5.279   5.838  12.903  2.4548 -0.3118 -0.2228
11533TIP3    H256091   5.187   5.718  12.917  0.7141  1.1872  1.4193
11534TIP3   OH256092   3.209   3.800   4.746 -0.4453  0.0410 -0.1079
11534TIP3    H156093   3.174   3.881   4.709  0.5486  1.3460  1.6898
11534TIP3    H256094   3.299   3.796   4.713 -0.6612 -0.6245 -0.6240
11535TIP3   OH256095   3.063   6.629   5.222  0.0191 -0.1600  0.1802
11535TIP3    H156096   3.047   6.645   5.129 -0.6579 -1.0963  0.1333
11535TIP3    H256097   3.136   6.568   5.224  0.6672  0.6116  0.2906
11536TIP3   OH256098   5.546   6.741   5.624 -0.1789  0.1772 -0.1858
11536TIP3    H156099   5.568   6.817   5.678 -0.8771 -0.0043  0.3551
11536TIP3    H256100   5.476   6.772   5.567 -1.0780 -0.3174  0.6489
11537TIP3   OH256101   2.883   0.810   4.210 -0.1951  0.1002  0.3926
11537TIP3    H156102   2.899   0.904   4.215 -0.6611  0.0813  3.1574
11537TIP3    H256103   2.787   0.802   4.214 -0.2199 -0.4402 -1.0875
11538TIP3   OH256104   4.746   5.000  12.556  0.6157  0.0546  0.1620
11538TIP3    H156105   4.766   4.929  12.495 -0.9652  0.4839 -0.8930
11538TIP3    H256106   4.650   5.002  12.559  0.6476  2.1782  0.1432
11539TIP3   OH256107   2.688   6.101  11.415  0.2474 -0.5737 -0.1346
11539TIP3    H156108   2.770   6.092  11.367 -0.5810  1.4571 -1.9986
11539TIP3    H256109   2.624   6.127  11.349 -1.1669  1.1419  1.8531
11540TIP3   OH256110   6.096   5.908   1.486  0.0350 -0.0676 -0.1913
11540TIP3    H156111   6.108   5.964   1.409 -2.6352 -1.5007 -1.7290
11540TIP3    H256112   6.183   5.872   1.503  1.2597  2.4969 -0.7693
11541TIP3   OH256113   5.047   5.146   0.877 -0.3129 -0.4910 -0.2328
11541TIP3    H156114   4.998   5.184   0.950 -0.0985  0.2789 -0.4869
11541TIP3    H256115   5.037   5.051   0.889 -0.8030 -0.3630  0.4359
11542TIP3   OH256116   3.254   4.588  14.974 -0.0910 -0.4760 -0.5605
11542TIP3    H156117   3.187   4.545  15.026 -0.1975  0.2137 -0.1272
11542TIP3    H256118   3.330   4.593  15.032 -0.2940  0.5319 -0.3761
11543TIP3   OH256119   1.049   1.366   2.998 -0.0103 -0.4505  0.5598
11543TIP3    H156120   1.138   1.391   3.023  0.1927  0.5195 -1.0657
11543TIP3    H256121   1.060   1.285   2.948  0.1228  0.3391 -0.7351
11544TIP3   OH256122   3.406   1.322  16.123 -0.2520 -0.2693 -0.3781
11544TIP3    H156123   3.334   1.272  16.161  0.2150 -0.9911 -0.4480
11544TIP3    H256124   3.371   1.411  16.114 -0.7211 -0.3374  0.7392
11545TIP3   OH256125   5.634   3.865   2.656 -0.0865  0.3984  0.1187
11545TIP3    H156126   5.721   3.825   2.662  0.2715  1.3303  1.2755
11545TIP3    H256127   5.577   3.805   2.705 -0.2700 -0.6329 -1.3082
11546TIP3   OH256128   2.412   1.994  16.870 -0.8444  1.2476  0.0391
11546TIP3    H156129   2.412   2.066  16.806  0.2961 -0.5879 -2.0973
11546TIP3    H256130   2.503   1.964  16.872 -1.1376  0.4474  1.5978
11547TIP3   OH256131   0.072   1.163  13.326  0.1392 -0.1069  1.0527
11547TIP3    H156132   0.057   1.232  13.261  3.0062 -1.1320 -0.8126
11547TIP3    H256133   0.001   1.100  13.312 -0.8982  1.0810  0.8916
11548TIP3   OH256134   5.176   3.617   3.508 -0.1320  0.1610 -0.1679
11548TIP3    H156135   5.195   3.697   3.458 -3.2035  1.6750  0.9631
11548TIP3    H256136   5.093   3.586   3.472 -0.1518 -1.1748  1.0291
11549TIP3   OH256137   4.820   2.516  11.323 -0.5262  0.5908 -0.2080
11549TIP3    H156138   4.877   2.525  11.247  1.8382 -0.3012  1.3880
11549TIP3    H256139   4.756   2.450  11.298 -0.2681  0.8845 -1.6984
11550TIP3   OH256140   1.721   4.799  14.323  0.6201 -0.4605  0.5643
11550TIP3    H156141   1.674   4.881  14.304  0.7194  0.0449  2.3777
11550TIP3    H256142   1.808   4.812  14.286 -0.1779 -0.7997 -1.4810
11551TIP3   OH256143   3.520   0.794  12.997 -0.2413  0.1872 -0.1133
11551TIP3    H156144   3.575   0.803  12.919 -0.4981 -0.2014 -0.3418
11551TIP3    H256145   3.449   0.736  12.969 -0.6571  0.5320  0.2422
11552TIP3   OH256146   4.159   4.768  12.381 -0.0439  0.3466  0.5429
11552TIP3    H156147   4.143   4.861  12.396  0.9864  0.4651  0.9337
11552TIP3    H256148   4.112   4.749  12.299  0.8308  1.5123 -0.2454
11553TIP3   OH256149   1.708   5.807  16.973  0.0699 -0.5409  0.4201
11553TIP3    H156150   1.726   5.862  17.049  0.3674  1.3914 -0.9967
11553TIP3    H256151   1.647   5.741  17.005  1.1871 -0.5378  2.6364
11554TIP3   OH256152   5.893   4.954   3.636 -0.5988  0.0727  0.4604
11554TIP3    H156153   5.809   4.932   3.596 -1.5129  1.4077  1.5861
11554TIP3    H256154   5.943   4.996   3.565 -0.7937 -0.9170 -0.2704
11555TIP3   OH256155   3.879   4.069  14.083  0.3521 -0.6914 -0.5668
11555TIP3    H156156   3.803   4.011  14.091 -0.2324 -0.1294 -1.8777
11555TIP3    H256157   3.954   4.012  14.099 -0.2704 -1.5909 -0.7905
11556TIP3   OH256158   3.798   6.367   1.835 -0.2740  0.8478 -0.3285
11556TIP3    H156159   3.881   6.354   1.879 -0.2413  0.0801 -0.6136
11556TIP3    H256160   3.754   6.436   1.885 -0.8421 -0.9893  1.7233
11557TIP3   OH256161   1.233   5.154   3.967  0.3998 -0.6186  0.1989
11557TIP3    H156162   1.289   5.231   3.973 -1.1923  0.6324 -0.7164
11557TIP3    H256163   1.289   5.082   3.996  2.0004  0.8196  0.7895
11558TIP3   OH256164   2.778   5.352   3.918  0.6188  0.2356 -0.1083
11558TIP3    H156165   2.683   5.355   3.904  0.5149 -2.4096 -0.0997
11558TIP3    H256166   2.789   5.376   4.010  0.0157  0.9927 -0.2222
11559TIP3   OH256167   4.093   4.985   2.812 -0.0559  0.0473 -0.2202
11559TIP3    H156168   4.098   4.927   2.888 -0.7057  0.0282 -0.1907
11559TIP3    H256169   4.005   4.972   2.778  0.3150 -0.1115 -1.1205
11560TIP3   OH256170   0.200   5.525  15.979 -0.2265 -0.0457  0.1440
11560TIP3    H156171   0.162   5.451  15.932  0.2104  0.1481 -0.5316
11560TIP3    H256172   0.203   5.497  16.070  0.9224 -1.2895 -0.2562
11561TIP3   OH256173   3.949   4.744   2.760 -0.3936 -0.2103  0.0072
11561TIP3    H156174   3.879   4.736   2.695 -0.4685 -0.1959  0.0864
11561TIP3    H256175   3.911   4.798   2.829  0.4758  1.8439 -1.0623
11562TIP3   OH256176   4.139   2.430  15.526  0.4378  0.2763 -0.8074
11562TIP3    H156177   4.095   2.356  15.484 -1.6963  0.8573  0.3633
11562TIP3    H256178   4.214   2.391  15.570 -1.1415 -1.3383  0.5299
11563TIP3   OH256179   4.516   1.277   2.206 -0.2092  0.3987 -0.2093
11563TIP3    H156180   4.589   1.215   2.201 -1.2881 -0.9255  0.1766
11563TIP3    H256181   4.507   1.311   2.117  0.5821  0.2439 -0.3533
11564TIP3   OH256182   3.185   4.715  16.796  0.8773  0.3319 -0.5868
11564TIP3    H156183   3.153   4.784  16.854 -0.9315  0.5960 -1.8350
11564TIP3    H256184   3.111   4.656  16.784  1.5029 -0.2391 -1.8363
11565TIP3   OH256185   5.717   4.124  12.586  0.2347  0.0243  0.5063
11565TIP3    H156186   5.674   4.146  12.503  1.4042 -0.2517 -0.1745
11565TIP3    H256187   5.672   4.046  12.616  0.5313 -0.5118 -0.4201
11566TIP3   OH256188   4.473   2.863  16.089 -0.4791  0.2937 -0.1056
11566TIP3    H156189   4.559   2.870  16.049 -0.2989 -1.0965  0.0160
11566TIP3    H256190   4.449   2.953  16.111  1.1377  0.6394  0.3001
11567TIP3   OH256191   4.640   0.001  12.374 -0.4702 -0.8200  0.0964
11567TIP3    H156192   4.685  -0.055  12.438 -0.1089  0.9219  1.4048
11567TIP3    H256193   4.595   0.067  12.427 -2.4491 -0.9692 -1.3302
11568TIP3   OH256194   4.768   4.332  16.052 -0.4583  0.4001 -0.6095
11568TIP3    H156195   4.788   4.395  16.121  2.6896 -1.0596 -0.0977
11568TIP3    H256196   4.685   4.293  16.078 -0.3196  1.3430  1.2831
11569TIP3   OH256197   1.037   6.314  13.255 -0.6169 -0.4177  0.2779
11569TIP3    H156198   1.039   6.222  13.279 -0.4662 -0.7185 -0.8851
11569TIP3    H256199   0.966   6.351  13.307 -1.8989 -1.5654 -0.6483
11570TIP3   OH256200   0.870   6.595   1.042 -0.3199  0.1879  0.3738
11570TIP3    H156201   0.851   6.505   1.019 -1.5981  0.8132 -1.0682
11570TIP3    H256202   0.912   6.632   0.965 -1.6215  1.3757  0.2126
11571TIP3   OH256203   0.496   5.968  11.195 -0.1927  1.1466 -0.1388
11571TIP3    H156204   0.476   5.918  11.116 -0.8422  0.9693  0.1354
11571TIP3    H256205   0.412   6.002  11.223 -0.3506 -0.7686  1.8204
11572TIP3   OH256206   1.480   1.169   6.402 -0.0647  0.2104 -0.1798
11572TIP3    H156207   1.528   1.144   6.481 -0.3575 -0.8691 -0.3394
11572TIP3    H256208   1.456   1.086   6.361 -1.1745  0.7540 -0.6498
11573TIP3   OH256209   4.931   1.225  15.789  0.0062 -0.2518 -0.0989
11573TIP3    H156210   5.009   1.170  15.784 -0.2441 -0.7262  1.1213
11573TIP3    H256211   4.964   1.314  15.778  0.5584 -0.5495 -0.8717
11574TIP3   OH256212   1.937   2.921  16.758 -0.2658  0.5398  0.0955
11574TIP3    H156213   1.864   2.936  16.697  0.5367  0.3667 -0.9239
11574TIP3    H256214   1.895   2.910  16.843 -1.5032 -0.3704 -0.6087
11575TIP3   OH256215   5.613   1.183   2.748  0.0116  0.1135  1.1070
11575TIP3    H156216   5.565   1.147   2.674  0.4099  2.8882 -0.5811
11575TIP3    H256217   5.546   1.227   2.801  0.1795  1.0374  0.5680
11576TIP3   OH256218   3.125   2.438  11.634 -0.3887 -0.0760  0.7453
11576TIP3    H156219   3.163   2.526  11.637  0.4045 -0.3646 -0.3831
11576TIP3    H256220   3.195   2.383  11.599 -1.1741 -0.9872  0.5857
11577TIP3   OH256221   1.252   0.517  12.305 -0.1363  0.4644 -0.0888
11577TIP3    H156222   1.187   0.550  12.367 -0.0148  0.2833  0.1370
11577TIP3    H256223   1.261   0.424  12.328 -1.5239 -0.0882 -1.6326
11578TIP3   OH256224   5.008   2.906   4.647  0.2797  0.1841  0.0243
11578TIP3    H156225   4.974   2.900   4.558 -1.9448 -0.2453  0.8691
11578TIP3    H256226   5.000   2.999   4.669 -1.6202 -0.0889  0.6522
11579TIP3   OH256227   0.826   0.907   4.041 -0.0428 -0.2189 -0.5216
11579TIP3    H156228   0.782   0.824   4.020  1.2767 -1.6166  2.0710
11579TIP3    H256229   0.788   0.934   4.124  1.2354  0.5647 -0.1869
11580TIP3   OH256230   0.252   0.397  10.591  0.0893 -0.1795 -0.4671
11580TIP3    H156231   0.241   0.349  10.509 -0.3016 -0.6640 -0.1330
11580TIP3    H256232   0.199   0.348  10.655  0.8438 -0.1293  0.2059
11581TIP3   OH256233   4.435   2.147  14.866 -0.3614  1.0395  0.4465
11581TIP3    H156234   4.489   2.216  14.904  1.5117 -0.8120  1.2550
11581TIP3    H256235   4.398   2.101  14.942 -0.0134 -0.0505 -0.0318
11582TIP3   OH256236   1.773   6.230  15.118 -0.0277  0.2554  0.3069
11582TIP3    H156237   1.720   6.227  15.038  0.3550 -1.6209  0.1095
11582TIP3    H256238   1.718   6.188  15.185 -0.4438  2.0225  1.1034
11583TIP3   OH256239   4.711   2.928   2.529 -0.3428  0.4839 -0.1697
11583TIP3    H156240   4.672   2.883   2.454 -2.7872  1.5995  0.3948
11583TIP3    H256241   4.649   2.916   2.600  0.2140  2.5312  0.6985
11584TIP3   OH256242   4.767   4.825  15.268  0.4083 -0.1268 -0.0950
11584TIP3    H156243   4.767   4.732  15.247  0.3272 -0.3242  0.7503
11584TIP3    H256244   4.751   4.869  15.185 -0.3929 -0.9063 -0.3623
11585TIP3   OH256245   4.070   2.012  15.863  0.5783  0.1657  0.4631
11585TIP3    H156246   4.133   2.013  15.935 -0.1968  1.1908  1.1442
11585TIP3    H256247   3.986   2.032  15.905  0.5612  3.9084 -1.1625
11586TIP3   OH256248   4.367   1.929   1.356  0.2526  0.0560  0.2548
11586TIP3    H156249   4.366   2.007   1.300  3.0071  1.3409  1.8913
11586TIP3    H256250   4.454   1.891   1.341 -1.7070 -3.8609 -1.9647
11587TIP3   OH256251   1.296   1.354  15.300  0.3992 -0.0541 -0.0465
11587TIP3    H156252   1.299   1.324  15.391 -0.2197  2.5066  0.8518
11587TIP3    H256253   1.203   1.373  15.284  0.3992 -1.1570 -1.4617
11588TIP3   OH256254   1.599   3.674   6.508  0.4397  0.7044  0.3392
11588TIP3    H156255   1.539   3.655   6.580 -0.4995  1.3114 -0.2797
11588TIP3    H256256   1.611   3.769   6.510  1.2255  0.6090  0.3341
11589TIP3   OH256257   3.333   3.554  12.406  0.3064 -0.1759 -0.2967
11589TIP3    H156258   3.311   3.481  12.347  1.2591 -0.4404 -0.3407
11589TIP3    H256259   3.307   3.523  12.493 -0.3167 -0.1236 -0.4627
11590TIP3   OH256260   1.699   4.950  11.430 -0.0310 -0.3424  0.5350
11590TIP3    H156261   1.757   5.024  11.445  0.1339 -0.6635  1.5142
11590TIP3    H256262   1.642   4.978  11.359  0.1381  0.6603  0.7926
11591TIP3   OH256263   0.100   0.470  16.845  1.4815 -0.6868 -0.7190
11591TIP3    H156264   0.190   0.445  16.863  1.8268  1.1681  0.2237
11591TIP3    H256265   0.093   0.561  16.875 -0.7038 -0.8040 -0.7550
11592TIP3   OH256266   5.829   0.952   6.178  0.1846  0.2159  0.0325
11592TIP3    H156267   5.891   1.023   6.195  2.1042 -0.8948 -1.9822
11592TIP3    H256268   5.830   0.900   6.259  1.5298  0.4898  0.2105
11593TIP3   OH256269   3.296   5.969   5.349  0.4364 -0.3052 -0.2296
11593TIP3    H156270   3.318   5.909   5.279  0.7650 -0.0507 -0.3476
11593TIP3    H256271   3.201   5.978   5.344  0.2991 -1.4003  0.2715
11594TIP3   OH256272   3.770   2.326  12.282 -0.5945  0.3685  0.6391
11594TIP3    H156273   3.815   2.410  12.273 -0.2989  0.2880  1.3411
11594TIP3    H256274   3.690   2.337  12.231  0.9349 -0.0276 -1.9703
11595TIP3   OH256275   2.769   0.201  14.256 -0.3125 -0.3432  0.1875
11595TIP3    H156276   2.771   0.175  14.348 -2.6937 -1.6880 -0.0880
11595TIP3    H256277   2.848   0.253  14.244 -0.9183  1.4655  3.4546
11596TIP3   OH256278   3.105   1.143  13.507  1.0278  0.3390  0.2434
11596TIP3    H156279   3.022   1.187  13.491  0.5532 -0.3848  0.6945
11596TIP3    H256280   3.093   1.098  13.591  1.4093 -0.8628 -0.3347
11597TIP3   OH256281   5.003   0.163   5.935 -0.0552 -0.5395 -0.4261
11597TIP3    H156282   5.063   0.171   5.861 -0.1303 -2.2966 -0.7039
11597TIP3    H256283   4.968   0.074   5.928 -2.4132  0.3172 -0.0608
11598TIP3   OH256284   3.292   1.431  13.217 -0.0961 -0.1143 -0.4164
11598TIP3    H156285   3.306   1.339  13.240  1.6809 -0.0076 -0.9680
11598TIP3    H256286   3.296   1.478  13.301 -2.2526 -0.6489  0.0149
11599TIP3   OH256287   6.362   6.775   4.164 -0.1659  0.6388  0.5199
11599TIP3    H156288   6.297   6.714   4.128 -0.2523 -0.7709  2.9901
11599TIP3    H256289   6.433   6.774   4.099 -0.1829 -2.1031  0.4654
11600TIP3   OH256290   4.430   4.917  15.671 -0.1697 -0.0513 -0.3925
11600TIP3    H156291   4.501   4.980  15.674 -1.1139  0.9339  2.2085
11600TIP3    H256292   4.473   4.833  15.655  1.3678  0.7958 -0.7592
11601TIP3   OH256293   3.841   2.440   1.720  0.1369  0.1789  0.3376
11601TIP3    H156294   3.872   2.523   1.756  0.9558  0.2664 -0.5550
11601TIP3    H256295   3.920   2.388   1.705 -0.1358  0.2942 -1.6836
11602TIP3   OH256296   6.579   0.886  16.315 -0.0574  0.0104 -0.5570
11602TIP3    H156297   6.643   0.920  16.252 -1.0569 -0.4558 -1.8519
11602TIP3    H256298   6.579   0.791  16.301 -0.6778 -0.0416 -0.2296
11603TIP3   OH256299   3.122   0.320  11.946  0.0067  0.3057  0.2929
11603TIP3    H156300   3.171   0.326  11.864  0.0249 -0.9366  0.2056
11603TIP3    H256301   3.039   0.364  11.927 -0.0123 -0.0256 -0.4213
11604TIP3   OH256302   3.618   1.871  16.144  0.6133 -0.8162  0.5854
11604TIP3    H156303   3.589   1.837  16.228  0.4318 -1.4214  0.2846
11604TIP3    H256304   3.631   1.964  16.158 -0.8655 -0.6440  0.8950
11605TIP3   OH256305   2.792   6.490   5.730  0.5937 -0.1814 -0.0077
11605TIP3    H156306   2.861   6.480   5.665  0.1057  2.1918 -0.9226
11605TIP3    H256307   2.834   6.537   5.803  0.2941  0.0969 -0.0112
11606TIP3   OH256308   1.153   3.800  14.833  0.2582 -1.1480  0.0266
11606TIP3    H156309   1.236   3.835  14.800 -0.0193  1.2894  1.8539
11606TIP3    H256310   1.152   3.823  14.926 -2.1862 -1.7220  0.1759
11607TIP3   OH256311   3.354   3.080  15.000  0.2918  0.1634 -0.0447
11607TIP3    H156312   3.403   2.998  14.996 -0.1096 -0.0167 -1.7408
11607TIP3    H256313   3.354   3.112  14.910 -1.8647  0.6438  0.1018
11608TIP3   OH256314   2.669   4.666   3.113  0.0472 -0.3560  0.4413
11608TIP3    H156315   2.668   4.572   3.094  1.8026 -0.1727 -0.5955
11608TIP3    H256316   2.678   4.708   3.027  2.1122  0.6604  1.1326
11609TIP3   OH256317   3.429   2.859  15.568 -0.3188 -0.4616 -0.4801
11609TIP3    H156318   3.439   2.947  15.532 -0.5087  0.8050  2.4491
11609TIP3    H256319   3.335   2.848  15.581 -0.2545 -0.8812 -0.3453
11610TIP3   OH256320   5.711   5.925  11.627  0.2664  0.2107  0.0833
11610TIP3    H156321   5.772   5.951  11.697  1.1191  1.3570 -1.0662
11610TIP3    H256322   5.625   5.925  11.670  0.8978 -0.0614  1.3815
11611TIP3   OH256323   2.567   1.781  11.980  0.3435  0.2709  0.0801
11611TIP3    H156324   2.507   1.828  12.039  0.4527 -0.7578  1.0247
11611TIP3    H256325   2.654   1.798  12.016  0.3055 -1.5543  1.1007
11612TIP3   OH256326   5.136   1.325  13.807  0.4498  0.2482 -0.5717
11612TIP3    H156327   5.085   1.370  13.874  0.2526  0.7713 -1.0667
11612TIP3    H256328   5.159   1.241  13.846  0.3614  0.5648  0.1576
11613TIP3   OH256329   2.702   2.039  16.983 -0.0788  0.2039 -0.3009
11613TIP3    H156330   2.756   2.115  16.962  0.8710 -0.0714  1.0468
11613TIP3    H256331   2.716   1.979  16.909  0.1197  0.8430 -0.7875
11614TIP3   OH256332   3.375   2.238  16.119 -0.3593  0.0381 -0.3603
11614TIP3    H156333   3.387   2.317  16.171 -0.4786 -1.7214  2.4630
11614TIP3    H256334   3.452   2.185  16.138 -0.8513 -1.0307 -1.2838
11615TIP3   OH256335   5.723   5.773  16.431  0.6459  0.1703 -0.1543
11615TIP3    H156336   5.646   5.767  16.487 -1.3472  0.0655 -2.7827
11615TIP3    H256337   5.735   5.866  16.415  2.5397  0.3586  2.1372
11616TIP3   OH256338   2.697   0.509   3.174 -0.4567  0.0426  0.9761
11616TIP3    H156339   2.675   0.420   3.147 -0.4297  0.8031 -1.6103
11616TIP3    H256340   2.787   0.502   3.208  0.4713 -0.5037 -1.4749
11617TIP3   OH256341   4.725   1.199  14.147 -0.0399  0.3999 -0.5065
11617TIP3    H156342   4.681   1.116  14.127  0.6070  0.0120 -0.3273
11617TIP3    H256343   4.654   1.259  14.170 -0.3850 -0.5857  1.0795
11618TIP3   OH256344   4.734   2.919   0.986 -0.0145 -0.0209 -0.3462
11618TIP3    H156345   4.804   2.857   0.965  0.4985  1.0322 -1.8437
11618TIP3    H256346   4.654   2.866   0.986  0.4862 -0.7967 -1.0755
11619TIP3   OH256347   2.852   0.143   6.949 -0.1007  0.0285  0.5465
11619TIP3    H156348   2.899   0.181   6.875 -1.1614  3.6222  1.6288
11619TIP3    H256349   2.917   0.089   6.994  1.5704  0.8538 -0.8331
11620TIP3   OH256350   1.545   4.392  11.506  0.3967 -0.6423 -0.0003
11620TIP3    H156351   1.451   4.387  11.491  0.5978 -1.4872 -1.0185
11620TIP3    H256352   1.581   4.420  11.421  1.1430 -1.1710  0.1402
11621TIP3   OH256353   2.250   2.052   1.773 -0.2113 -0.0872 -0.2159
11621TIP3    H156354   2.301   1.987   1.726  0.2990 -0.4293  0.7847
11621TIP3    H256355   2.312   2.122   1.793 -0.3326 -0.1055  0.2411
11622TIP3   OH256356   4.119   2.780   5.898  0.2351 -0.4024  0.3626
11622TIP3    H156357   4.103   2.810   5.808  1.1735 -0.2351  0.2416
11622TIP3    H256358   4.054   2.712   5.913  0.5023 -0.9044 -0.6880
11623TIP3   OH256359   0.087   5.819  13.916 -0.3505 -0.0861 -0.2239
11623TIP3    H156360   0.044   5.819  13.831  0.4798 -1.1317 -0.6559
11623TIP3    H256361   0.048   5.744  13.962  0.9593 -1.0223 -0.6075
11624TIP3   OH256362   5.218   1.281  14.686 -0.1281 -0.6808  0.4637
11624TIP3    H156363   5.175   1.200  14.658 -0.0898 -0.9844  1.2722
11624TIP3    H256364   5.175   1.350  14.636 -0.1370 -1.2022 -0.2629
11625TIP3   OH256365   2.486   2.168   2.232  0.1588 -0.0055 -0.2258
11625TIP3    H156366   2.478   2.131   2.145  0.2944  1.2557 -0.7831
11625TIP3    H256367   2.431   2.246   2.230  2.4428  1.6440 -0.0893
11626TIP3   OH256368   0.921   2.160  15.466  0.4451 -0.7394 -0.1682
11626TIP3    H156369   0.953   2.172  15.555  1.1415 -1.1708 -0.3560
11626TIP3    H256370   0.992   2.194  15.411 -0.2692  0.1691 -0.5419
11627TIP3   OH256371   0.154   1.304   5.475 -0.3222  0.2332 -0.3754
11627TIP3    H156372   0.174   1.214   5.501 -0.1174  0.5564  0.6113
11627TIP3    H256373   0.237   1.350   5.485 -0.8850  0.9692  1.0791
11628TIP3   OH256374   1.376   3.422  13.567 -0.2677  0.6120 -0.1080
11628TIP3    H156375   1.302   3.394  13.621 -1.3062  1.7865 -0.8936
11628TIP3    H256376   1.376   3.361  13.494  0.1068  0.0575  0.3466
11629TIP3   OH256377   0.575   5.404   5.365 -0.1222  0.0813  0.1762
11629TIP3    H156378   0.540   5.330   5.414  0.1542 -1.1250 -1.4235
11629TIP3    H256379   0.631   5.450   5.429 -1.6520 -0.0627  1.6704
11630TIP3   OH256380   3.392   2.851   3.261 -0.1456  0.4429  0.0182
11630TIP3    H156381   3.355   2.894   3.338 -0.0256 -1.2715  1.0441
11630TIP3    H256382   3.486   2.848   3.278 -0.1707 -0.3687  0.0270
11631TIP3   OH256383   1.039   4.745  11.365  0.1384 -0.0194  0.5779
11631TIP3    H156384   1.065   4.707  11.449 -0.1721 -0.6046  0.4218
11631TIP3    H256385   1.037   4.670  11.305  1.7236  0.6182 -0.2928
11632TIP3   OH256386   3.862   0.310   3.868 -0.3397 -0.3088 -0.6962
11632TIP3    H156387   3.832   0.330   3.957  0.8625  0.1497 -0.3746
11632TIP3    H256388   3.885   0.217   3.871  0.8787 -0.0094 -0.1538
11633TIP3   OH256389   4.914   6.112  14.595  0.3515  0.2093  0.3005
11633TIP3    H156390   4.892   6.044  14.532  0.6228  0.5756 -0.1895
11633TIP3    H256391   4.968   6.174  14.547  1.5007 -0.0850  1.1950
11634TIP3   OH256392   6.342   3.127  11.221  0.2286  0.1229  0.2821
11634TIP3    H156393   6.434   3.150  11.207 -0.0409  0.6230 -0.6742
11634TIP3    H256394   6.300   3.210  11.245 -0.5341  0.4697 -2.1273
11635TIP3   OH256395   0.486   3.910   3.861 -0.5354  0.1445  0.4270
11635TIP3    H156396   0.505   3.954   3.944  1.2976 -1.9248  1.1365
11635TIP3    H256397   0.571   3.883   3.827 -1.4928 -1.4282 -0.7969
11636TIP3   OH256398   5.557   5.138   1.333 -0.2593  0.0318 -0.3661
11636TIP3    H156399   5.474   5.115   1.373 -0.3793  1.5250  0.2832
11636TIP3    H256400   5.623   5.106   1.394 -0.3459 -1.3654 -0.9980
11637TIP3   OH256401   0.840   1.442   6.484  0.2312  0.6547  0.3291
11637TIP3    H156402   0.809   1.489   6.561 -2.0314  0.4490 -0.4124
11637TIP3    H256403   0.795   1.357   6.488  0.8201  0.2861 -0.7176
11638TIP3   OH256404   4.845   1.567  13.119 -0.4874 -0.4977  0.2885
11638TIP3    H156405   4.832   1.492  13.178  1.1587 -1.1234 -0.1134
11638TIP3    H256406   4.875   1.638  13.176 -0.2581 -0.6909  0.4107
11639TIP3   OH256407   4.416   3.931  12.282 -0.1031  0.2872  0.1343
11639TIP3    H156408   4.413   3.836  12.270 -1.2214  0.2354  0.7732
11639TIP3    H256409   4.388   3.967  12.197 -0.4651  0.0401  0.1504
11640TIP3   OH256410   3.874   4.422  14.871 -0.1821  0.0687 -0.3815
11640TIP3    H156411   3.876   4.329  14.849 -1.8438 -0.0763  0.0125
11640TIP3    H256412   3.834   4.464  14.794 -1.1202  0.2202  0.1819
11641TIP3   OH256413   2.717   2.396  11.968 -0.4466 -0.0708  0.5023
11641TIP3    H156414   2.622   2.409  11.961 -0.5145 -0.6708  0.2884
11641TIP3    H256415   2.729   2.302  11.958  0.0055 -0.2257  2.3306
11642TIP3   OH256416   2.268   6.575   1.582 -0.3542  0.2523 -0.1771
11642TIP3    H156417   2.359   6.603   1.585 -0.4127  0.4194  0.0527
11642TIP3    H256418   2.218   6.656   1.593 -0.5390  0.2872 -1.2112
11643TIP3   OH256419   4.085   6.139  15.504 -0.3192 -0.6218  0.3226
11643TIP3    H156420   4.112   6.116  15.415 -0.0073  0.4765  0.1316
11643TIP3    H256421   4.002   6.093  15.516 -0.3286 -0.8321 -0.5116
11644TIP3   OH256422   4.587   3.956   4.674  0.4397  0.4483 -0.2597
11644TIP3    H156423   4.618   3.962   4.765  2.0728 -0.6579 -0.7207
11644TIP3    H256424   4.666   3.935   4.624 -0.5098  0.7675 -1.9054
11645TIP3   OH256425   1.609   1.996   4.897 -0.0041 -0.2532 -0.0345
11645TIP3    H156426   1.614   2.048   4.977 -0.1999 -0.4386  0.0989
11645TIP3    H256427   1.522   2.014   4.862  0.8184  1.4469 -1.3155
11646TIP3   OH256428   5.973   1.365  15.452  0.1433  0.1941  0.0667
11646TIP3    H156429   5.958   1.274  15.478 -0.0379  0.0646 -0.4741
11646TIP3    H256430   5.980   1.413  15.534  0.5037 -0.3531  0.3572
11647TIP3   OH256431   0.104   3.932   4.908 -0.0930 -0.2246  0.3990
11647TIP3    H156432   0.088   3.878   4.831 -0.1853 -1.6647  1.4204
11647TIP3    H256433   0.047   4.009   4.895  2.0009  0.9440 -2.3239
11648TIP3   OH256434   5.525   5.563   2.179  0.2001 -0.2353 -0.1335
11648TIP3    H156435   5.449   5.595   2.228 -1.0815 -2.6099 -0.4398
11648TIP3    H256436   5.600   5.604   2.220 -1.0839  0.2275  1.8342
11649TIP3   OH256437   5.706   1.514   3.535  0.4398  0.0705  0.3119
11649TIP3    H156438   5.688   1.583   3.598 -2.3551 -0.3191  0.0205
11649TIP3    H256439   5.769   1.456   3.579  0.3021  1.0487  1.8116
11650TIP3   OH256440   0.180   1.653   1.460  0.0513 -0.5938  0.4076
11650TIP3    H156441   0.167   1.558   1.460 -0.2457 -0.5546  0.2560
11650TIP3    H256442   0.224   1.671   1.377 -1.6133 -0.3740 -0.4381
11651TIP3   OH256443   6.431   0.686   2.808 -0.3533  0.1621  0.0398
11651TIP3    H156444   6.455   0.604   2.852  0.5202  0.3660 -0.0498
11651TIP3    H256445   6.337   0.678   2.794  0.1449 -2.1368 -2.5733
11652TIP3   OH256446   2.498   4.405  15.380 -0.8332 -0.1327  0.0139
11652TIP3    H156447   2.592   4.384  15.378 -0.5760  0.8556  0.7542
11652TIP3    H256448   2.492   4.488  15.333 -1.2520  0.0775  0.4365
11653TIP3   OH256449   1.693   3.365  12.114  0.4789  0.2048 -0.1658
11653TIP3    H156450   1.756   3.398  12.177 -0.3263  0.6592  0.4047
11653TIP3    H256451   1.746   3.336  12.040  1.3128  1.1929  0.0339
11654TIP3   OH256452   0.790   2.030   4.871  0.3474  0.2419  0.2049
11654TIP3    H156453   0.865   1.973   4.887  0.5623  0.8808  1.5944
11654TIP3    H256454   0.716   1.986   4.913  0.7059  1.4090  2.1761
11655TIP3   OH256455   3.264   2.534   4.332 -0.0876 -0.2747  0.0879
11655TIP3    H156456   3.291   2.579   4.412 -2.9966  3.8212 -1.1006
11655TIP3    H256457   3.341   2.538   4.275 -0.0182  2.5729  0.3236
11656TIP3   OH256458   4.242   5.004   4.242  0.0740 -0.6259  0.2466
11656TIP3    H156459   4.251   5.094   4.273  1.2837 -1.0819  1.2671
11656TIP3    H256460   4.157   4.975   4.276  0.2127 -0.2554  0.9200
11657TIP3   OH256461   3.356   2.136  13.530  0.1582  0.0993  0.3291
11657TIP3    H156462   3.329   2.093  13.449 -0.6465  0.8882  0.1637
11657TIP3    H256463   3.438   2.180  13.508  0.2081 -0.1121  0.0887
11658TIP3   OH256464   5.987   5.067  14.445 -0.1624  0.6708 -0.0117
11658TIP3    H156465   6.013   5.012  14.518 -1.3769 -2.2260 -1.6817
11658TIP3    H256466   5.978   5.155  14.483  1.1636 -0.3729  2.8508
11659TIP3   OH256467   5.422   5.609   4.436 -0.3495  0.4462  0.1054
11659TIP3    H156468   5.464   5.678   4.385  0.5722 -0.8524 -0.8964
11659TIP3    H256469   5.413   5.536   4.376 -0.4592 -0.6504  1.4255
11660TIP3   OH256470   3.880   3.075   0.283  0.4352  0.0475  0.6133
11660TIP3    H156471   3.904   3.154   0.332 -1.4955  0.6725  0.5928
11660TIP3    H256472   3.821   3.027   0.341  0.9581 -0.9845  0.3051
11661TIP3   OH256473   3.894   2.436   1.381  0.0830 -0.3338  0.2310
11661TIP3    H156474   3.961   2.389   1.431  0.0930  1.2659  1.7420
11661TIP3    H256475   3.811   2.395   1.408  0.0573  0.7408  1.8392
11662TIP3   OH256476   4.605   5.653  15.870  0.3791 -0.1090  0.5629
11662TIP3    H156477   4.548   5.690  15.937  0.5755 -0.1750  0.7672
11662TIP3    H256478   4.682   5.621  15.918  1.1034  0.9911  0.1721
11663TIP3   OH256479   0.970   6.541   2.964 -0.3202  0.3782 -0.3370
11663TIP3    H156480   0.919   6.571   2.889 -0.3757  0.7455 -0.1514
11663TIP3    H256481   1.031   6.612   2.982  1.1261 -0.5663 -1.3475
11664TIP3   OH256482   3.654   1.274   6.035 -0.2770 -0.4000 -0.5090
11664TIP3    H156483   3.561   1.272   6.061 -0.4420  1.0567 -0.9373
11664TIP3    H256484   3.694   1.202   6.083 -1.5047 -0.6180  0.2056
11665TIP3   OH256485   5.790   0.309  13.585 -0.4362  0.1312  0.2870
11665TIP3    H156486   5.704   0.294  13.625  0.9429 -0.0514  3.3259
11665TIP3    H256487   5.771   0.361  13.507 -3.3121 -0.0202  0.8138
11666TIP3   OH256488   3.701   1.595  13.167 -0.2326 -0.4702  0.0370
11666TIP3    H156489   3.693   1.558  13.255 -1.8728  1.3515  0.6829
11666TIP3    H256490   3.796   1.603  13.153  0.0661 -1.7134  1.2149
11667TIP3   OH256491   2.581   1.982  13.579  0.0132  0.0622  0.5214
11667TIP3    H156492   2.663   1.973  13.627 -1.1968 -1.3498  2.3530
11667TIP3    H256493   2.530   1.905  13.602 -0.8574 -0.3733 -2.5965
11668TIP3   OH256494   3.395   2.104  17.003  0.0140 -0.1257  0.0374
11668TIP3    H156495   3.402   2.200  17.009  0.1048 -0.2100  1.2375
11668TIP3    H256496   3.305   2.089  16.971 -0.0893  0.3434  0.1020
11669TIP3   OH256497   4.392   2.243   0.294  0.2267 -1.0384  0.1745
11669TIP3    H156498   4.335   2.207   0.361  0.2335  2.0346  1.9467
11669TIP3    H256499   4.458   2.292   0.342  0.7372  0.5379 -2.0170
11670TIP3   OH256500   6.353   2.403  10.514  0.1699 -1.1255 -0.9450
11670TIP3    H156501   6.404   2.412  10.434  0.0498 -2.5781 -1.1960
11670TIP3    H256502   6.264   2.427  10.489  0.2143 -1.1714 -1.1404
11671TIP3   OH256503   5.303   5.213   0.746 -0.5345  0.0517 -0.1004
11671TIP3    H156504   5.265   5.142   0.695  0.4067  0.8709 -2.0175
11671TIP3    H256505   5.389   5.227   0.706 -1.2854  3.2170 -0.7139
11672TIP3   OH256506   0.398   4.790  16.283 -0.2247 -0.2186 -0.0392
11672TIP3    H156507   0.396   4.883  16.308 -1.1622  0.3396 -2.1233
11672TIP3    H256508   0.331   4.749  16.338 -0.4610  0.5200  0.2255
11673TIP3   OH256509   2.744   6.285  11.915  0.3416 -0.2143 -0.2450
11673TIP3    H156510   2.664   6.312  11.870  1.0142  0.2398 -1.1988
11673TIP3    H256511   2.785   6.221  11.857 -0.0733 -1.5786  0.9389
11674TIP3   OH256512   0.269   2.548  16.616  0.4194  0.0007 -0.1118
11674TIP3    H156513   0.357   2.558  16.653  0.4322 -0.9436  0.1267
11674TIP3    H256514   0.237   2.465  16.652  0.1365 -0.5676 -1.6441
11675TIP3   OH256515   0.534   6.542   2.474  0.0575  0.2013  0.3722
11675TIP3    H156516   0.587   6.475   2.431 -1.4733  0.3598 -1.8698
11675TIP3    H256517   0.593   6.616   2.486  0.6580 -0.0445 -1.0019
11676TIP3   OH256518   1.089   6.811  12.071  0.0514  0.1984  0.3208
11676TIP3    H156519   1.053   6.882  12.124 -0.2538  0.7778 -0.6552
11676TIP3    H256520   1.170   6.848  12.034 -0.0092 -0.0243 -0.0322
11677TIP3   OH256521   4.676   2.313  11.203  0.2694  0.1255 -0.5894
11677TIP3    H156522   4.598   2.300  11.149 -1.1033 -0.3235  1.4293
11677TIP3    H256523   4.697   2.226  11.236  0.1954  0.6024  0.7582
11678TIP3   OH256524   6.045   0.753  17.167  0.3853 -0.5071  0.6816
11678TIP3    H156525   6.048   0.845  17.193 -0.5469 -0.9726  2.4903
11678TIP3    H256526   6.106   0.747  17.093 -1.2956  2.0287 -0.9530
11679TIP3   OH256527   1.523   0.691   3.186  0.7135  0.6798 -0.2229
11679TIP3    H156528   1.455   0.648   3.238  1.2496  0.5296  0.3650
11679TIP3    H256529   1.477   0.725   3.109 -0.3660  2.1521  1.0397
11680TIP3   OH256530   2.236   1.057  14.860  0.2974  0.2968 -0.0124
11680TIP3    H156531   2.310   1.093  14.811  1.5210 -1.3702  0.5530
11680TIP3    H256532   2.256   1.076  14.952  2.0666 -3.5584  0.5172
11681TIP3   OH256533   1.712   4.668  11.423 -0.2790 -0.1280 -0.1250
11681TIP3    H156534   1.802   4.635  11.418 -0.2923 -0.0558 -0.8883
11681TIP3    H256535   1.721   4.763  11.424 -0.2525 -0.1332  1.8413
11682TIP3   OH256536   5.643   4.473   4.454 -1.0854 -0.1080 -0.0305
11682TIP3    H156537   5.577   4.521   4.404 -0.4818  0.6333 -0.1253
11682TIP3    H256538   5.624   4.495   4.545 -0.8402  0.2688 -0.0707
11683TIP3   OH256539   2.347   2.823  13.985  0.2239  0.0450  0.3562
11683TIP3    H156540   2.265   2.860  14.019  0.3186  0.5185  0.0720
11683TIP3    H256541   2.328   2.730  13.974 -0.5424  0.2833 -0.4620
11684TIP3   OH256542   1.708   1.882   5.783  0.5550 -0.3478 -0.2266
11684TIP3    H156543   1.652   1.949   5.742 -0.4197 -0.4573  0.8915
11684TIP3    H256544   1.796   1.918   5.778  0.1280  0.7050 -0.2929
11685TIP3   OH256545   3.439   2.135   1.951  0.1883 -0.1934  0.0085
11685TIP3    H156546   3.414   2.148   2.043 -1.1177 -0.1160 -0.3460
11685TIP3    H256547   3.520   2.085   1.955  0.6884  0.6786  1.2265
11686TIP3   OH256548   0.425   2.540  11.508  0.0127  1.0089 -1.0288
11686TIP3    H156549   0.466   2.592  11.438  2.4021  0.1323 -0.3259
11686TIP3    H256550   0.421   2.599  11.583  0.4538  0.9296 -0.9447
11687TIP3   OH256551   4.361   3.814  16.936  0.5154 -0.6519 -0.2257
11687TIP3    H156552   4.447   3.838  16.903  0.0023  0.2652 -0.9064
11687TIP3    H256553   4.303   3.884  16.906 -0.2392 -0.6059  1.3054
11688TIP3   OH256554   3.434   2.904  14.393  0.0331  0.5753  0.1588
11688TIP3    H156555   3.507   2.843  14.383  0.1059  0.8584 -1.2209
11688TIP3    H256556   3.472   2.991  14.379 -0.7070  0.6590 -1.5023
11689TIP3   OH256557   1.413   1.659  12.490 -0.4228 -0.1899 -0.4079
11689TIP3    H156558   1.490   1.646  12.435  0.3222 -1.0801  0.8228
11689TIP3    H256559   1.348   1.598  12.456  0.0257 -0.7162 -0.3287
11690TIP3   OH256560   4.369   3.004   0.766  0.2693 -0.8681 -0.0710
11690TIP3    H156561   4.439   3.061   0.736 -0.5180  0.5265  0.6960
11690TIP3    H256562   4.307   3.062   0.810 -1.2680 -2.0894 -0.5466
11691TIP3   OH256563   5.975   0.259   1.326 -0.2399 -0.2873  0.6739
11691TIP3    H156564   5.994   0.207   1.249  0.5618 -1.9152  1.9519
11691TIP3    H256565   5.885   0.236   1.349 -0.8918  1.0868 -0.4472
11692TIP3   OH256566   0.693   1.046   5.390  1.0250  0.4770 -0.2063
11692TIP3    H156567   0.725   1.136   5.396  2.7633 -0.1029 -0.4476
11692TIP3    H256568   0.743   0.998   5.456  1.4782 -0.6620 -1.3415
11693TIP3   OH256569   2.640   6.396  16.819  0.2961  0.0387  0.6246
11693TIP3    H156570   2.622   6.489  16.806 -1.0775 -0.2587  0.2903
11693TIP3    H256571   2.682   6.368  16.737 -1.4835 -0.1505 -0.2520
11694TIP3   OH256572   5.709   1.686  13.894 -0.0994  0.2051 -0.2941
11694TIP3    H156573   5.799   1.717  13.883 -0.3961  0.9138 -0.7491
11694TIP3    H256574   5.683   1.657  13.806 -0.4623  0.4088 -0.2550
11695TIP3   OH256575   2.992   5.523   4.492 -0.7270  0.4632  0.5536
11695TIP3    H156576   3.008   5.615   4.471 -1.9421  0.4529 -0.4303
11695TIP3    H256577   3.043   5.474   4.428  0.0807  0.4409  1.2025
11696TIP3   OH256578   4.632   1.207  15.086  0.0613  0.2869  0.4354
11696TIP3    H156579   4.650   1.152  15.163  1.0546 -0.2578 -0.1746
11696TIP3    H256580   4.671   1.291  15.107  0.1618  0.2000  0.6029
11697TIP3   OH256581   6.447   6.582   1.278 -0.2653  0.3979 -0.1321
11697TIP3    H156582   6.357   6.561   1.253  0.2526 -0.4763 -1.3011
11697TIP3    H256583   6.451   6.566   1.372 -1.5372  1.1719  0.0615
11698TIP3   OH256584   4.440   5.242  12.303  0.1565  0.2156  0.0229
11698TIP3    H156585   4.478   5.330  12.306  2.0335 -0.5664  0.1502
11698TIP3    H256586   4.509   5.187  12.267 -0.3315 -1.5230  1.6405
11699TIP3   OH256587   0.614   0.836   2.740 -0.3203  0.3263 -0.2280
11699TIP3    H156588   0.636   0.924   2.770  0.2044 -0.5248  1.9980
11699TIP3    H256589   0.584   0.791   2.819 -0.7600 -1.4385 -1.3747
11700TIP3   OH256590   1.578   1.671  12.256 -0.4076 -0.1219 -0.2216
11700TIP3    H156591   1.565   1.759  12.291 -1.2193  0.2336 -1.4104
11700TIP3    H256592   1.559   1.678  12.163 -2.0535 -1.8845 -0.0726
11701TIP3   OH256593   3.766   4.885   5.555 -0.2269  0.2374 -0.2765
11701TIP3    H156594   3.805   4.929   5.631 -1.7052  0.0759  0.5918
11701TIP3    H256595   3.686   4.846   5.588 -0.7432 -0.0917 -1.8674
11702TIP3   OH256596   4.173   4.706  15.108 -0.1690  0.0182 -0.0235
11702TIP3    H156597   4.203   4.628  15.062 -0.7460  0.8477 -1.8784
11702TIP3    H256598   4.118   4.673  15.179  1.8853 -1.3381  0.9791
11703TIP3   OH256599   1.962   5.093  12.262  0.0136 -0.5742  0.3489
11703TIP3    H156600   1.904   5.160  12.298 -2.5231 -1.7715 -1.3501
11703TIP3    H256601   2.033   5.142  12.222  0.0727  0.9408  2.2456
11704TIP3   OH256602   5.004   5.692   1.015 -0.2467  0.2133  0.0885
11704TIP3    H156603   5.003   5.760   0.948 -0.1092  0.0735 -0.0557
11704TIP3    H256604   5.023   5.611   0.967  0.2154  0.1710  0.3486
11705TIP3   OH256605   3.800   4.366  14.359  0.5033  0.1242  0.3799
11705TIP3    H156606   3.799   4.271  14.349 -0.7237  0.1064  0.5025
11705TIP3    H256607   3.707   4.389  14.371  0.9041  1.2005  1.5196
11706TIP3   OH256608   2.463   5.567   1.482  0.1757  0.2814  0.1052
11706TIP3    H156609   2.374   5.531   1.487  0.0615  0.7592  1.5392
11706TIP3    H256610   2.458   5.650   1.529  0.7409  1.6379 -2.1330
11707TIP3   OH256611   2.678   2.615   4.341  0.0555  0.1321  0.2703
11707TIP3    H156612   2.684   2.634   4.248 -2.2721  0.7423  0.2275
11707TIP3    H256613   2.713   2.693   4.384  1.1314 -0.1503 -0.0611
11708TIP3   OH256614   6.309   5.652   2.180 -0.1570 -0.1890  0.1310
11708TIP3    H156615   6.242   5.591   2.151  0.5847 -0.6830 -0.5366
11708TIP3    H256616   6.287   5.735   2.137 -0.7862 -0.1446  0.5320
11709TIP3   OH256617   5.086   0.505   5.635  0.8472 -0.2767 -0.1170
11709TIP3    H156618   4.990   0.507   5.640  0.8949 -0.2074  0.7575
11709TIP3    H256619   5.112   0.596   5.625  0.8541 -0.2484  0.1697
11710TIP3   OH256620   4.912   3.950   2.045 -0.3615 -0.6432 -0.3230
11710TIP3    H156621   4.904   3.940   2.140 -0.8533  0.7144 -0.2104
11710TIP3    H256622   4.954   3.869   2.016  0.7800 -0.6122  1.1793
11711TIP3   OH256623   5.031   6.286   1.898  0.5077 -0.2534  0.1753
11711TIP3    H156624   5.004   6.269   1.807  0.6099  1.6219 -0.2325
11711TIP3    H256625   5.120   6.251   1.903  0.5312 -0.3038 -0.4904
11712TIP3   OH256626   2.437   5.950   5.250  0.1425 -0.3744  0.3967
11712TIP3    H156627   2.451   6.042   5.226  3.1151 -0.9197 -0.1823
11712TIP3    H256628   2.383   5.915   5.179 -2.1112  1.2005  1.2712
11713TIP3   OH256629   5.605   5.704  15.907 -0.0741 -0.5891 -0.4464
11713TIP3    H156630   5.669   5.765  15.943 -2.3149  0.4098  2.0621
11713TIP3    H256631   5.522   5.731  15.947 -1.6525 -3.3175 -1.7515
11714TIP3   OH256632   2.363   3.703   2.381  0.0900 -0.1034 -0.6326
11714TIP3    H156633   2.448   3.723   2.419 -0.0249  0.7687 -0.8331
11714TIP3    H256634   2.351   3.609   2.398  0.2838  0.1504  0.9846
11715TIP3   OH256635   0.449   0.423   1.034  0.3095 -0.4267 -0.2407
11715TIP3    H156636   0.474   0.391   1.121  0.3787 -0.5727 -0.3156
11715TIP3    H256637   0.499   0.504   1.023  2.0140 -1.5731 -1.0837
11716TIP3   OH256638   0.288   1.975  11.765 -0.3376  0.5196  0.3963
11716TIP3    H156639   0.363   1.933  11.807  0.0411  1.8962  1.1202
11716TIP3    H256640   0.313   2.067  11.757 -1.0933  0.5921 -1.3259
11717TIP3   OH256641   3.377   6.263  14.566 -0.4648  0.0616  0.0505
11717TIP3    H156642   3.334   6.263  14.652  0.5221 -2.0005  0.5670
11717TIP3    H256643   3.444   6.332  14.573 -0.7658  0.2891  0.7271
11718TIP3   OH256644   2.180   3.323  13.236  0.0307 -0.6938 -0.5313
11718TIP3    H156645   2.208   3.410  13.264 -0.5122 -1.2820  1.8896
11718TIP3    H256646   2.100   3.338  13.186  0.1272  0.2013 -0.4158
11719TIP3   OH256647   3.834   6.781   3.690 -0.2614  0.0277  0.2955
11719TIP3    H156648   3.739   6.785   3.703 -0.2181  3.2333  0.1248
11719TIP3    H256649   3.871   6.806   3.774  0.3457  1.6206 -0.4202
11720TIP3   OH256650   0.074   6.292   4.090 -0.4328 -0.4366 -0.5711
11720TIP3    H156651   0.118   6.216   4.053  0.2519  0.3304 -1.3770
11720TIP3    H256652   0.028   6.259   4.167  0.4490 -1.5179 -0.5001
11721TIP3   OH256653   0.662   6.139   5.259 -0.1496  0.3167 -0.3800
11721TIP3    H156654   0.676   6.055   5.216  0.2907 -0.3638  1.0750
11721TIP3    H256655   0.571   6.160   5.240 -0.3810 -0.6744 -0.4132
11722TIP3   OH256656   4.122   0.501   3.311  0.2854  0.3225  0.0801
11722TIP3    H156657   4.202   0.460   3.279 -0.6394 -0.6268 -1.0914
11722TIP3    H256658   4.152   0.569   3.371  2.1317  2.0974 -2.7078
11723TIP3   OH256659   2.223   3.577  11.863  0.3075  0.3419  0.5996
11723TIP3    H156660   2.259   3.494  11.831  0.5885  1.2020 -1.4446
11723TIP3    H256661   2.130   3.573  11.842  0.1918  0.2688  1.1203
11724TIP3   OH256662   2.529   6.039   3.902  0.4637  0.2095  0.4559
11724TIP3    H156663   2.531   6.082   3.817  0.1731 -0.3167  0.1822
11724TIP3    H256664   2.576   5.956   3.889 -0.3208 -0.2597  0.5900
11725TIP3   OH256665   4.225   4.005  13.850  0.3378  0.0309 -0.4661
11725TIP3    H156666   4.307   3.958  13.835 -0.0391 -1.0044  0.7325
11725TIP3    H256667   4.171   3.984  13.774  0.5128 -0.7085 -0.3838
11726TIP3   OH256668   4.510   5.403  13.182  0.4539 -0.3363  0.2505
11726TIP3    H156669   4.604   5.416  13.194  0.4275  0.8056 -0.6812
11726TIP3    H256670   4.502   5.362  13.096  0.1351 -1.0448  0.6122
11727TIP3   OH256671   5.368   2.346   6.509 -0.1356  0.0775 -0.4713
11727TIP3    H156672   5.457   2.319   6.486 -0.3676 -0.1551 -1.1120
11727TIP3    H256673   5.338   2.281   6.572  0.4483  0.6254  0.3795
11728TIP3   OH256674   5.399   3.122   1.563 -0.3429  0.4167 -0.3176
11728TIP3    H156675   5.457   3.101   1.490  0.4377  1.1012  0.0929
11728TIP3    H256676   5.420   3.056   1.629 -1.5318 -0.6206 -0.9530
11729TIP3   OH256677   0.621   0.206  16.421 -0.7858  0.3421 -0.4297
11729TIP3    H156678   0.582   0.255  16.349  0.5558  0.6555 -0.9604
11729TIP3    H256679   0.639   0.272  16.488  0.4557  0.5022 -0.9005
11730TIP3   OH256680   0.407   2.246  14.722  0.0531  0.0088  0.0056
11730TIP3    H156681   0.397   2.280  14.633  1.4176  1.0508  0.2249
11730TIP3    H256682   0.453   2.162  14.711  0.7045  0.3936 -0.2479
11731TIP3   OH256683   0.296   3.841   2.590 -0.3545  0.6583  0.4260
11731TIP3    H156684   0.239   3.773   2.556  0.5335 -0.3098  0.8388
11731TIP3    H256685   0.264   3.922   2.550 -0.5868 -0.1828 -1.1283
11732TIP3   OH256686   1.662   6.816   5.205 -0.4270  0.0675 -0.0823
11732TIP3    H156687   1.617   6.739   5.238  2.2409 -1.7946 -0.6980
11732TIP3    H256688   1.744   6.820   5.253  0.1914  1.6045 -1.2022
11733TIP3   OH256689   1.570   1.930   0.548 -0.3784 -0.1392 -0.1532
11733TIP3    H156690   1.612   1.891   0.623  1.6003 -1.9936 -2.1636
11733TIP3    H256691   1.560   1.858   0.485 -2.3512  1.2592 -1.5316
11734TIP3   OH256692   0.167   4.465  11.725  0.0104 -0.4351 -0.6432
11734TIP3    H156693   0.211   4.537  11.680 -0.6458  0.8606  0.7754
11734TIP3    H256694   0.233   4.432  11.786  0.0192 -0.4867 -0.6803
11735TIP3   OH256695   4.711   3.987   1.691  0.2307  0.0589 -0.1247
11735TIP3    H156696   4.779   4.042   1.731 -0.9329  1.6933 -0.3111
11735TIP3    H256697   4.629   4.024   1.725 -0.8095  1.5038 -3.9874
11736TIP3   OH256698   1.059   5.688  14.111  0.0894  0.1081 -0.2741
11736TIP3    H156699   0.976   5.667  14.069 -0.6354  1.9515  0.1987
11736TIP3    H256700   1.068   5.624  14.182 -1.8212  1.0547  0.8403
11737TIP3   OH256701   2.845   0.622  15.060  0.2053  0.4407  0.1694
11737TIP3    H156702   2.780   0.688  15.036  0.4684  1.1552  1.4130
11737TIP3    H256703   2.920   0.641  15.004 -0.1592  0.4490 -0.3211
11738TIP3   OH256704   1.077   1.597   2.291  0.2129  0.3446  0.5224
11738TIP3    H156705   1.052   1.632   2.377  0.1025  1.7433 -0.0727
11738TIP3    H256706   1.122   1.670   2.247 -2.2684  0.5943 -1.7120
11739TIP3   OH256707   6.410   2.289  16.363  0.7727 -0.2231 -0.1852
11739TIP3    H156708   6.385   2.322  16.276 -0.5161 -1.0391 -0.1406
11739TIP3    H256709   6.504   2.274  16.357  0.7432  0.0259 -1.3480
11740TIP3   OH256710   4.740   0.406   3.487 -0.1460 -0.0908 -0.3533
11740TIP3    H156711   4.763   0.488   3.442  1.3420 -0.6239 -0.6148
11740TIP3    H256712   4.790   0.339   3.440  1.2568 -0.6899  1.9255
11741TIP3   OH256713   2.056   6.384  14.515  0.2610  0.1562  0.2032
11741TIP3    H156714   1.963   6.386  14.537 -0.0444 -1.2968 -0.8683
11741TIP3    H256715   2.062   6.318  14.445  1.5657  2.6043 -2.0897
11742TIP3   OH256716   3.792   1.465  10.874  0.0517 -0.0905 -0.0584
11742TIP3    H156717   3.750   1.381  10.894  3.0760 -1.9758 -1.2447
11742TIP3    H256718   3.746   1.497  10.797 -1.0905 -0.6805  0.3673
11743TIP3   OH256719   2.161   1.203   2.078  0.1597 -0.1758 -0.2091
11743TIP3    H156720   2.127   1.135   2.019  0.7923 -0.1423 -0.6139
11743TIP3    H256721   2.189   1.274   2.019 -0.8390  0.5935  0.2265
11744TIP3   OH256722   0.713   1.402  11.906  0.0406 -0.4946  0.1041
11744TIP3    H156723   0.657   1.374  11.978  2.6179 -0.5259  2.1807
11744TIP3    H256724   0.746   1.488  11.933  2.8433 -1.5159  0.0650
11745TIP3   OH256725   1.602   5.189  11.193 -0.2552  0.1768  0.6771
11745TIP3    H156726   1.509   5.205  11.181 -0.3151  1.0941  2.1742
11745TIP3    H256727   1.620   5.110  11.142 -1.9594 -0.3042  0.8014
11746TIP3   OH256728   0.818   3.014   3.313  0.1928 -0.1554  0.3548
11746TIP3    H156729   0.742   3.071   3.327  1.0481  0.6668  1.7598
11746TIP3    H256730   0.799   2.936   3.365 -0.6637 -0.8944 -1.0253
11747TIP3   OH256731   0.349   0.421   2.140 -0.1537 -0.2891 -0.1727
11747TIP3    H156732   0.359   0.328   2.157  0.8298 -0.0471  0.6532
11747TIP3    H256733   0.337   0.460   2.227 -0.6304  0.3421 -0.5170
11748TIP3   OH256734   6.271   5.695  16.433  0.2972  0.5175 -0.1897
11748TIP3    H156735   6.298   5.786  16.439 -1.0122  0.7875  2.0343
11748TIP3    H256736   6.194   5.696  16.375 -0.4390  0.9999  0.7887
11749TIP3   OH256737   1.638   3.153  14.493  0.0695  0.1754  0.0981
11749TIP3    H156738   1.693   3.127  14.419  1.8284 -0.2857  1.5409
11749TIP3    H256739   1.551   3.167  14.454  0.6572 -1.2829 -1.8349
11750TIP3   OH256740   0.808   6.577  13.681  0.1692  0.3458 -0.9621
11750TIP3    H156741   0.773   6.661  13.710 -1.1306 -0.4839 -0.0727
11750TIP3    H256742   0.866   6.550  13.753  1.5017  1.0082 -1.7640
11751TIP3   OH256743   4.673   4.933  10.783 -0.4595 -0.1857  0.1647
11751TIP3    H156744   4.624   5.011  10.810 -0.6471 -0.8618  1.8469
11751TIP3    H256745   4.605   4.868  10.766 -0.1774 -1.0571  2.2790
11752TIP3   OH256746   3.830   4.417   4.186 -0.8645 -0.1179  0.0019
11752TIP3    H156747   3.843   4.463   4.269  2.2954  0.5487 -0.7891
11752TIP3    H256748   3.789   4.482   4.129  1.4004  1.0160 -0.3916
11753TIP3   OH256749   1.283   1.966   1.840 -0.9271 -0.0122  0.0153
11753TIP3    H156750   1.218   1.927   1.899 -1.8863 -0.8877 -1.5901
11753TIP3    H256751   1.234   1.988   1.761  0.1179  2.1862 -0.0670
11754TIP3   OH256752   0.531   5.580  11.279  0.3101 -0.4471  0.2595
11754TIP3    H156753   0.469   5.538  11.339  0.9175 -0.3946  0.9269
11754TIP3    H256754   0.499   5.558  11.192 -0.5873 -0.5135  0.6029
11755TIP3   OH256755   1.086   6.658   6.757 -0.0595  0.2168 -0.1292
11755TIP3    H156756   1.034   6.643   6.835 -3.2416  0.6384 -2.0749
11755TIP3    H256757   1.125   6.744   6.770 -0.8837  0.4478  0.8390
11756TIP3   OH256758   1.933   6.461  15.116  0.1963 -0.0540 -0.1015
11756TIP3    H156759   1.869   6.394  15.093 -2.1744  2.0238  0.2905
11756TIP3    H256760   1.967   6.493  15.032 -2.2855  1.6565 -0.4883
11757TIP3   OH256761   6.226   3.363  11.276  0.2964 -0.0778  0.0651
11757TIP3    H156762   6.245   3.457  11.276  0.8114 -0.1799  1.5359
11757TIP3    H256763   6.172   3.349  11.353  2.2425 -1.3895  1.2034
11758TIP3   OH256764   2.120   4.096  15.376 -0.3797  0.3673 -0.8720
11758TIP3    H156765   2.107   4.016  15.325 -1.2888 -2.4692  3.5113
11758TIP3    H256766   2.035   4.112  15.418  0.8650  1.3605  1.3713
11759TIP3   OH256767   4.097   2.395   2.832 -0.4427 -0.2941  0.1111
11759TIP3    H156768   4.004   2.380   2.814 -0.8835  2.3977 -0.0947
11759TIP3    H256769   4.099   2.474   2.887  1.7194 -0.2972  0.0975
11760TIP3   OH256770   4.830   0.393  17.228  0.0192  0.5509 -0.1270
11760TIP3    H156771   4.873   0.332  17.288 -0.1934 -0.0678 -0.5843
11760TIP3    H256772   4.838   0.478  17.269  0.7386  0.2781  0.3087
11761TIP3   OH256773   4.957   0.664  12.275  0.3245  0.5991 -0.0927
11761TIP3    H156774   4.869   0.630  12.292  0.5700  0.3043  0.6108
11761TIP3    H256775   4.988   0.616  12.199  0.3735 -0.2159  0.4336
11762TIP3   OH256776   3.970   3.121  14.322 -0.0768 -0.4945  0.4515
11762TIP3    H156777   3.875   3.129  14.336 -0.1395  0.6189 -0.5293
11762TIP3    H256778   3.979   3.106  14.228  0.7363 -0.2268  0.4808
11763TIP3   OH256779   2.223   2.709  16.797  0.0523 -0.1963  0.7646
11763TIP3    H156780   2.262   2.658  16.868 -0.1047  1.1710  1.8470
11763TIP3    H256781   2.169   2.775  16.842 -1.6792 -0.6060 -0.6533
11764TIP3   OH256782   0.368   1.150   5.177  0.4389  0.4941  0.2024
11764TIP3    H156783   0.411   1.218   5.228 -0.7341  2.3453 -1.1981
11764TIP3    H256784   0.339   1.195   5.097 -0.8426 -1.5228 -0.4997
11765TIP3   OH256785   3.275   5.326  11.950 -0.0503 -0.2344 -0.2915
11765TIP3    H156786   3.245   5.247  11.907  0.2306 -0.0509 -0.8322
11765TIP3    H256787   3.202   5.353  12.006  0.6196 -2.0436  1.5287
11766TIP3   OH256788   0.606   2.312  12.847 -0.1370 -0.5736 -0.1606
11766TIP3    H156789   0.627   2.406  12.844 -0.3072 -0.5110  0.4360
11766TIP3    H256790   0.658   2.278  12.919 -0.0724 -0.9411 -0.3795
11767TIP3   OH256791   4.670   2.184   2.351  0.2707 -0.2269  0.2513
11767TIP3    H156792   4.659   2.090   2.338 -1.2121  0.0952 -0.8835
11767TIP3    H256793   4.654   2.222   2.265  0.4771  1.0941  0.7968
11768TIP3   OH256794   3.907   3.990   2.816 -0.2507 -0.0788  0.1687
11768TIP3    H156795   3.845   4.032   2.874 -1.6196 -1.2112 -0.4287
11768TIP3    H256796   3.860   3.981   2.733  0.0225 -2.6134  0.2436
11769TIP3   OH256797   4.864   5.658  10.611  0.6446 -0.3800  0.2718
11769TIP3    H156798   4.927   5.591  10.584  0.5136 -0.4923  0.2423
11769TIP3    H256799   4.790   5.646  10.552  0.2439 -0.7959  0.8597
11770TIP3   OH256800   2.274   1.417  15.056 -0.3024 -0.2182  0.0576
11770TIP3    H156801   2.302   1.325  15.057 -0.9833 -0.4340 -0.2305
11770TIP3    H256802   2.287   1.447  15.146 -0.2617 -0.6587  0.1987
11771TIP3   OH256803   4.518   5.392   2.391 -0.0830  0.7712  0.5612
11771TIP3    H156804   4.567   5.474   2.387 -0.4812  0.9201 -2.1348
11771TIP3    H256805   4.581   5.324   2.368  0.3905  0.2201  3.3650
11772TIP3   OH256806   6.662   4.931   6.380  0.0473  0.2472 -0.4331
11772TIP3    H156807   6.690   4.929   6.289 -0.7765  0.7271 -0.7071
11772TIP3    H256808   6.591   4.866   6.384  0.4217 -0.1417 -0.0133
11773TIP3   OH256809   1.497   6.732  11.823 -0.0343  0.5854 -0.1840
11773TIP3    H156810   1.423   6.671  11.821  1.1408 -0.9433  1.1696
11773TIP3    H256811   1.544   6.715  11.742  0.4438 -0.5761  0.3077
11774TIP3   OH256812   6.762   5.664  15.029  0.0206  0.0758  0.0922
11774TIP3    H156813   6.685   5.715  15.056 -0.4424 -1.6206  2.0724
11774TIP3    H256814   6.837   5.718  15.056 -0.4661 -0.0347  1.7005
11775TIP3   OH256815   3.392   2.396   4.766  0.4117 -0.3307 -0.3408
11775TIP3    H156816   3.396   2.492   4.761 -2.3797 -0.1909 -0.2272
11775TIP3    H256817   3.381   2.377   4.859 -0.8267 -0.6737 -0.5503
11776TIP3   OH256818   6.737   4.950   6.104  0.2465  0.9212 -0.7072
11776TIP3    H156819   6.713   4.863   6.073  1.6974  0.0016  0.6821
11776TIP3    H256820   6.658   5.003   6.093 -1.5118 -1.2686  1.0067
11777TIP3   OH256821   6.543   3.188  15.124 -0.4052  0.2321  0.2941
11777TIP3    H156822   6.602   3.217  15.055 -0.5849  0.8807  0.4137
11777TIP3    H256823   6.456   3.218  15.096 -0.1066  3.0108  2.1697
11778TIP3   OH256824   6.051   4.261   1.855  0.3346 -0.0210  0.4590
11778TIP3    H156825   5.978   4.212   1.892 -0.1073 -1.8805 -2.6803
11778TIP3    H256826   6.021   4.287   1.768  2.6916  0.8995 -0.1196
11779TIP3   OH256827   2.864   2.702  10.907  0.0378  0.1551  0.0213
11779TIP3    H156828   2.814   2.644  10.849  0.3007  1.3294 -1.4197
11779TIP3    H256829   2.808   2.778  10.920  0.9168  0.9247 -0.5969
11780TIP3   OH256830   0.010   0.839  10.336  0.3659 -0.1634 -0.6039
11780TIP3    H156831  -0.045   0.915  10.355 -0.0811 -0.0879 -2.1098
11780TIP3    H256832  -0.005   0.780  10.410 -0.9462  0.3108 -0.4696
11781TIP3   OH256833   4.773   2.864  16.698 -0.4671 -0.3868  0.2671
11781TIP3    H156834   4.749   2.788  16.645  0.5035 -0.0365 -0.6992
11781TIP3    H256835   4.819   2.922  16.637  2.1057 -0.6930  1.8387
11782TIP3   OH256836   1.863   4.181  12.147 -0.4015  0.5271 -0.4771
11782TIP3    H156837   1.868   4.124  12.224 -0.7067  0.1748 -0.7141
11782TIP3    H256838   1.843   4.268  12.182  1.7147  0.8362  0.0265
11783TIP3   OH256839   0.766   0.405   3.971 -0.1654 -0.0784 -0.5043
11783TIP3    H156840   0.744   0.437   4.059  2.2702  1.1044 -0.2761
11783TIP3    H256841   0.856   0.436   3.956  0.3624 -2.3991 -2.4199
11784TIP3   OH256842   3.121   1.516   0.582  0.1806  0.4981 -0.7531
11784TIP3    H156843   3.058   1.587   0.575  0.2514  0.4817 -1.6058
11784TIP3    H256844   3.195   1.544   0.529  0.4678  0.0582 -0.5931
11785TIP3   OH256845   0.909   6.219   2.113 -0.5488 -0.4963  0.5400
11785TIP3    H156846   0.975   6.285   2.093 -0.3091 -0.5262  1.1996
11785TIP3    H256847   0.916   6.155   2.043 -0.7725  0.1746 -0.0953
11786TIP3   OH256848   6.397   3.942   0.652 -0.6629 -0.0464  0.2498
11786TIP3    H156849   6.352   4.004   0.594 -0.8095  0.7211  1.1775
11786TIP3    H256850   6.366   3.965   0.740  1.5746  0.5031  0.9167
11787TIP3   OH256851   0.133   4.440  16.581  0.2208  0.1202  0.2838
11787TIP3    H156852   0.174   4.386  16.648  0.4746 -0.0408  0.0019
11787TIP3    H256853   0.118   4.524  16.624  1.1896  0.3026  0.2826
11788TIP3   OH256854   1.801   2.263  14.482 -0.5428  0.6054  0.0590
11788TIP3    H156855   1.718   2.217  14.473  1.0113 -2.6255  1.3095
11788TIP3    H256856   1.833   2.239  14.570  2.0598  1.1274 -0.6844
11789TIP3   OH256857   3.677   2.619   6.046 -0.5272 -0.5259 -0.0464
11789TIP3    H156858   3.661   2.714   6.048  0.2227 -0.3827 -0.3951
11789TIP3    H256859   3.704   2.597   6.135 -1.5145 -0.5648  0.2475
11790TIP3   OH256860   2.061   6.576   2.138 -0.7797  0.3522  0.1604
11790TIP3    H156861   2.078   6.668   2.119  0.8694 -0.0223 -0.2666
11790TIP3    H256862   2.107   6.560   2.220  0.8296 -0.6177 -0.8879
11791TIP3   OH256863   6.601   1.965  15.748  0.3016  0.2970  0.0634
11791TIP3    H156864   6.692   1.988  15.728  0.6495 -2.1681 -1.4463
11791TIP3    H256865   6.606   1.920  15.833  0.4098  0.6795  0.2590
11792TIP3   OH256866   2.043   4.687   0.885  0.7162  0.0475  0.8912
11792TIP3    H156867   2.130   4.652   0.904  1.8454  1.9472 -0.6392
11792TIP3    H256868   2.028   4.667   0.793  0.4145  1.5996  0.6010
11793TIP3   OH256869   3.050   0.454  12.463 -0.6550  0.2133 -0.1976
11793TIP3    H156870   2.966   0.412  12.445 -1.2318  1.1071  0.3491
11793TIP3    H256871   3.072   0.425  12.551 -0.5958  0.2978 -0.1844
11794TIP3   OH256872   4.938   0.418  14.532  0.3084  0.0558  0.7354
11794TIP3    H156873   4.850   0.422  14.569  0.0875  0.0868  0.2153
11794TIP3    H256874   4.993   0.462  14.596 -0.2559  1.1682  0.4801
11795TIP3   OH256875   0.021   2.257   2.384  0.2930  0.3455  0.4504
11795TIP3    H156876   0.065   2.341   2.369  0.3600  0.1351 -0.5185
11795TIP3    H256877   0.014   2.218   2.297 -0.2741 -0.3874  0.8296
11796TIP3   OH256878   0.786   1.888   2.734  0.0400  0.0724  1.1598
11796TIP3    H156879   0.856   1.944   2.700  1.1641 -1.3479  1.0344
11796TIP3    H256880   0.804   1.881   2.827  0.7200 -1.1464  0.9555
11797TIP3   OH256881   1.995   1.110   5.318 -0.0852  0.1402  0.0963
11797TIP3    H156882   2.050   1.069   5.385  0.8470  1.4258  0.1381
11797TIP3    H256883   1.918   1.142   5.365  1.2236  2.2971  0.8229
11798TIP3   OH256884   1.452   1.942  11.234 -0.1556  0.2856 -0.3661
11798TIP3    H156885   1.425   2.006  11.168  0.4522  0.6346 -0.2797
11798TIP3    H256886   1.386   1.950  11.303  1.3905  2.7650  0.8973
11799TIP3   OH256887   3.479   0.756  14.553  0.7099 -0.3083  0.0265
11799TIP3    H156888   3.414   0.816  14.590  2.5767  0.2514  2.4481
11799TIP3    H256889   3.487   0.686  14.617  4.0097  0.6926  0.8116
11800TIP3   OH256890   6.550   2.449  14.201 -0.1661  0.5115  0.1813
11800TIP3    H156891   6.512   2.503  14.132  1.1123 -0.4867 -1.3590
11800TIP3    H256892   6.643   2.472  14.202 -0.3743  1.3870  2.4274
11801TIP3   OH256893   5.405   3.572  10.900  0.4010  0.5301  0.2687
11801TIP3    H156894   5.484   3.547  10.852  0.8957  0.0262  1.3249
11801TIP3    H256895   5.436   3.629  10.970 -0.3809  1.7024 -0.3333
11802TIP3   OH256896   4.357   1.501  14.607 -0.2060 -0.1623 -0.3079
11802TIP3    H156897   4.452   1.512  14.606 -0.2238 -0.0001 -0.2668
11802TIP3    H256898   4.338   1.464  14.693 -0.3372  1.2570  0.2917
11803TIP3   OH256899   0.824   4.560  13.410  0.6485 -0.7889 -0.3702
11803TIP3    H156900   0.824   4.606  13.494  0.0649  0.1433 -0.8683
11803TIP3    H256901   0.805   4.628  13.346 -1.3227 -1.9243 -1.0126
11804TIP3   OH256902   5.885   4.350  13.942  0.3896 -0.2038 -0.2254
11804TIP3    H156903   5.878   4.279  13.878  0.1511 -0.6520  0.2964
11804TIP3    H256904   5.945   4.316  14.008 -1.0036 -0.5535  0.8736
11805TIP3   OH256905   0.299   2.234   0.367  0.4670  0.1162  0.3651
11805TIP3    H156906   0.294   2.197   0.455 -2.1294  0.4686  0.4087
11805TIP3    H256907   0.281   2.328   0.379 -2.0504 -0.1833 -0.7297
11806TIP3   OH256908   5.954   5.609  14.366  0.1766  0.3269  0.3859
11806TIP3    H156909   5.916   5.523  14.353  0.1123  0.4147 -0.0077
11806TIP3    H256910   6.047   5.598  14.347 -0.0486  0.6289 -0.9269
11807TIP3   OH256911   5.125   1.622   3.515  0.0823 -0.1431 -0.1479
11807TIP3    H156912   5.092   1.534   3.498 -0.2817  0.1809 -1.1832
11807TIP3    H256913   5.063   1.659   3.578  1.4735 -1.3876  1.9736
11808TIP3   OH256914   5.541   1.698   0.013  0.4080 -0.5345 -0.0415
11808TIP3    H156915   5.550   1.648  -0.068  1.3337  0.0562 -0.3127
11808TIP3    H256916   5.616   1.758   0.013 -0.6175  0.7772  0.3310
11809TIP3   OH256917   6.064   2.949   5.755 -0.2231 -0.8036 -0.6258
11809TIP3    H156918   5.986   2.931   5.807 -0.9299 -0.5262 -1.5749
11809TIP3    H256919   6.137   2.918   5.809 -0.8654  0.3176  0.9104
11810TIP3   OH256920   0.100   1.205   2.510  0.1440 -0.0244 -0.4201
11810TIP3    H156921   0.060   1.197   2.424 -1.0595 -2.2544  0.3163
11810TIP3    H256922   0.192   1.181   2.496 -0.0806 -0.5166 -1.0408
11811TIP3   OH256923   6.281   4.600  12.599 -0.5528  0.4458  0.2248
11811TIP3    H156924   6.192   4.625  12.622  0.1118  2.1984  0.9595
11811TIP3    H256925   6.308   4.540  12.668 -0.2377  1.9783  1.4415
11812TIP3   OH256926   6.396   0.346  14.439  0.5623 -0.2990 -0.1530
11812TIP3    H156927   6.421   0.436  14.461 -0.0378  0.0297 -0.7839
11812TIP3    H256928   6.450   0.324  14.364 -0.4151  0.1148 -0.9976
11813TIP3   OH256929   5.452   4.860  14.765  0.3824  0.2127  0.2471
11813TIP3    H156930   5.542   4.828  14.770  0.2100 -0.8187 -2.5837
11813TIP3    H256931   5.399   4.783  14.745 -1.2383  0.7107  2.3998
11814TIP3   OH256932   6.428   6.423   4.166  0.2578  0.9875 -0.4686
11814TIP3    H156933   6.336   6.448   4.165 -0.1863 -0.5776 -0.2379
11814TIP3    H256934   6.440   6.377   4.249  0.0993 -2.8410 -2.4657
11815TIP3   OH256935   0.955   2.424   1.762  0.6105  0.1623  0.2186
11815TIP3    H156936   0.969   2.490   1.829 -0.8484 -0.1052  0.8084
11815TIP3    H256937   0.946   2.473   1.681  2.2598  0.4944  0.2150
11816TIP3   OH256938   4.833   1.853   4.683 -0.3887  0.6353 -0.3509
11816TIP3    H156939   4.816   1.782   4.744 -2.8578  1.1143 -0.4373
11816TIP3    H256940   4.873   1.810   4.607 -1.6984 -0.6617 -0.3316
11817TIP3   OH256941   0.693   1.079   2.876 -0.3812  0.0448 -0.3984
11817TIP3    H156942   0.711   1.094   2.969  0.8545 -0.9486 -0.4682
11817TIP3    H256943   0.775   1.099   2.832 -0.6587 -0.4762 -1.1624
11818TIP3   OH256944   6.676   6.784   6.247 -0.0656 -0.0944  0.5503
11818TIP3    H156945   6.619   6.731   6.302 -0.4291 -0.5766 -0.2818
11818TIP3    H256946   6.744   6.816   6.307 -0.3554 -0.7549  1.2427
11819TIP3   OH256947   0.777   1.743  13.647 -0.2498 -0.2321 -0.5528
11819TIP3    H156948   0.801   1.752  13.740 -0.7508 -0.9019 -0.3615
11819TIP3    H256949   0.720   1.667  13.644 -1.5787  0.7682 -1.1688
11820TIP3   OH256950   3.795   1.203  14.200 -0.2169  0.2269  0.2555
11820TIP3    H156951   3.813   1.111  14.180  2.6217  0.4014  1.7665
11820TIP3    H256952   3.738   1.200  14.277 -1.1836 -0.2388 -0.4579
11821TIP3   OH256953   1.620   3.573  12.318 -0.0839 -0.2924 -0.3469
11821TIP3    H156954   1.630   3.495  12.373 -0.0247  0.0260  0.0980
11821TIP3    H256955   1.539   3.557  12.269 -1.5960  0.5963  1.7911
11822TIP3   OH256956   2.703   4.869  14.981 -0.5949  0.1229 -0.3389
11822TIP3    H156957   2.698   4.844  15.073 -0.2930  0.7069 -0.1584
11822TIP3    H256958   2.741   4.957  14.982 -1.6963  0.6321 -0.9356
11823TIP3   OH256959   6.634   4.915   0.088 -0.2493 -0.2804  0.7150
11823TIP3    H156960   6.681   4.852   0.033 -1.1533 -1.5742  1.3859
11823TIP3    H256961   6.687   4.995   0.084  0.0284 -0.5473 -1.5045
11824TIP3   OH256962   1.233   0.457  11.699  0.4258 -0.2004  0.7407
11824TIP3    H156963   1.152   0.488  11.738  0.2348  0.0808  0.1258
11824TIP3    H256964   1.223   0.362  11.694 -0.3504 -0.0670 -0.4116
11825TIP3   OH256965   3.903   3.351   0.076  0.5122 -0.3898 -0.4689
11825TIP3    H156966   3.903   3.361  -0.019  2.1261  0.3984 -0.4084
11825TIP3    H256967   3.982   3.398   0.105  0.7788 -1.7868  1.1276
11826TIP3   OH256968   1.187   3.489   1.777  0.1623  0.5310 -0.4720
11826TIP3    H156969   1.142   3.548   1.837  1.1225 -1.1514  1.9621
11826TIP3    H256970   1.125   3.418   1.762  1.4006 -1.0886  1.7896
11827TIP3   OH256971   0.985   5.959   5.135 -0.2159  0.2671  0.0195
11827TIP3    H156972   0.960   5.869   5.116  0.5524  0.5552 -2.5884
11827TIP3    H256973   0.902   6.008   5.134 -0.8036 -0.5831  2.8255
11828TIP3   OH256974   1.771   3.020   1.671 -0.6411 -0.1779  0.1045
11828TIP3    H156975   1.710   3.076   1.719 -0.0149 -0.1860  0.9246
11828TIP3    H256976   1.812   3.077   1.607 -1.1547 -0.0626 -0.1218
11829TIP3   OH256977   2.319   6.033  13.296  0.4577 -0.0244  0.0294
11829TIP3    H156978   2.235   5.997  13.267  1.0708 -0.3431 -1.4257
11829TIP3    H256979   2.382   5.997  13.234  1.8557 -0.8712  1.9350
11830TIP3   OH256980   5.929   6.561   2.243  0.2623 -0.3557 -0.3964
11830TIP3    H156981   5.979   6.597   2.169  0.7105  0.1540  0.1546
11830TIP3    H256982   5.879   6.635   2.277 -1.0543 -0.9096 -1.0811
11831TIP3   OH256983   6.360   5.347   3.721 -0.3671  0.2149 -0.2874
11831TIP3    H156984   6.428   5.284   3.699  0.4221  1.4012 -1.2844
11831TIP3    H256985   6.377   5.368   3.813 -1.5922 -2.1721  0.5208
11832TIP3   OH256986   5.762   0.610  14.570 -0.5266 -0.1690  0.5577
11832TIP3    H156987   5.674   0.604  14.533 -0.7710  0.1913  1.0762
11832TIP3    H256988   5.797   0.521  14.562  0.0674  0.2525 -2.0835
11833TIP3   OH256989   3.055   5.319  16.406  0.0563  0.4444  0.1021
11833TIP3    H156990   3.134   5.360  16.372  0.2435 -0.6084 -0.7434
11833TIP3    H256991   3.059   5.228  16.374 -1.4726  0.3776  0.0758
11834TIP3   OH256992   3.750   4.681  12.851  0.0390 -0.1099 -0.3974
11834TIP3    H156993   3.762   4.756  12.793  3.0856 -0.0333  0.2408
11834TIP3    H256994   3.733   4.720  12.937  2.2181 -0.0530  0.0589
11835TIP3   OH256995   6.034   0.371  15.875 -0.1304 -0.1776 -0.1802
11835TIP3    H156996   6.128   0.380  15.893  0.1412 -2.9038  0.0699
11835TIP3    H256997   6.011   0.450  15.827  2.4075  0.3305 -0.6601
11836TIP3   OH256998   6.525   3.232   4.318  0.0845  0.0166  0.0306
11836TIP3    H156999   6.448   3.181   4.343 -0.8264  1.3213 -0.0681
11836TIP3    H257000   6.493   3.322   4.311  1.5024  0.4880 -0.5463
11837TIP3   OH257001   1.495   6.243   0.092  0.4741 -0.4488 -0.5922
11837TIP3    H157002   1.539   6.165   0.124  0.9448  0.6363  1.5270
11837TIP3    H257003   1.411   6.243   0.139 -0.0886 -0.3875 -1.5913
11838TIP3   OH257004   4.543   4.842  12.033  0.0990  0.0766 -0.0299
11838TIP3    H157005   4.581   4.755  12.045  3.5852  1.5473  0.2925
11838TIP3    H257006   4.541   4.854  11.938 -2.5951 -1.2305 -0.1694
11839TIP3   OH257007   6.405   6.014  11.568 -0.1018  0.1956  0.1983
11839TIP3    H157008   6.351   5.942  11.600  0.5512 -0.2323  0.3635
11839TIP3    H257009   6.483   6.012  11.624  0.4501  0.2904 -0.5595
11840TIP3   OH257010   4.078   2.592   4.737 -0.2255  0.0507 -0.4096
11840TIP3    H157011   4.132   2.667   4.714 -0.1705  0.1391  0.0108
11840TIP3    H257012   4.122   2.553   4.813 -0.6230 -0.0110 -0.2117
11841TIP3   OH257013   4.070   3.346   2.396  1.0526  0.4997  0.0047
11841TIP3    H157014   4.075   3.437   2.424  1.3641  0.1033  1.2711
11841TIP3    H257015   4.145   3.303   2.438  0.1107 -0.6323  0.5763
11842TIP3   OH257016   3.672   5.827   2.989  0.2337  0.3191  0.2106
11842TIP3    H157017   3.586   5.809   2.952 -0.9592  0.3663  2.8347
11842TIP3    H257018   3.710   5.740   3.003 -0.3796  0.1984  1.2149
11843TIP3   OH257019   3.814   5.085  13.157  0.3652  0.0775  0.6840
11843TIP3    H157020   3.846   5.019  13.094 -0.0155 -1.3972  2.0026
11843TIP3    H257021   3.890   5.102  13.213 -0.5087 -1.8791  2.5250
11844TIP3   OH257022   3.435   5.565  12.910  0.4007  0.5838 -0.4646
11844TIP3    H157023   3.512   5.555  12.966  0.3013  1.1688 -0.2240
11844TIP3    H257024   3.460   5.525  12.827  1.4384  1.9595 -0.8310
11845TIP3   OH257025   6.312   5.889  12.746 -0.6609 -0.0128 -0.4944
11845TIP3    H157026   6.289   5.898  12.654 -0.0098  1.6675 -0.5183
11845TIP3    H257027   6.403   5.858  12.746 -0.9670 -0.9305 -0.4069
11846TIP3   OH257028   3.959   4.997   5.139  0.0288 -0.0052 -0.3228
11846TIP3    H157029   3.940   5.087   5.165 -1.1144 -0.0137 -1.0776
11846TIP3    H257030   3.988   4.954   5.219  0.1596  0.9265  0.1336
11847TIP3   OH257031   2.559   0.608   1.667 -0.8885  0.1039  0.3211
11847TIP3    H157032   2.620   0.627   1.738 -2.0159 -0.1860  1.3817
11847TIP3    H257033   2.595   0.654   1.591 -0.8459  2.2696  1.6030
11848TIP3   OH257034   4.553   4.178  14.594 -0.6611 -0.1308 -0.1913
11848TIP3    H157035   4.518   4.250  14.647  0.0037  0.6230 -0.7607
11848TIP3    H257036   4.514   4.192  14.508 -2.9904 -2.2534  0.4430
11849TIP3   OH257037   1.371   3.156  14.471 -0.4356  0.5624  0.5726
11849TIP3    H157038   1.310   3.223  14.502 -1.5175  0.3216 -0.9559
11849TIP3    H257039   1.324   3.073  14.486 -0.2463  0.3381 -0.0566
11850TIP3   OH257040   1.802   6.469  13.184 -0.3818 -0.3970 -0.1373
11850TIP3    H157041   1.818   6.427  13.099 -0.7452  1.0836 -0.9614
11850TIP3    H257042   1.772   6.398  13.241 -3.4404 -0.8413 -2.1834
11851TIP3   OH257043   4.542   2.136  15.575  0.0631 -0.1088 -0.1424
11851TIP3    H157044   4.475   2.093  15.628  0.5304 -0.9706 -0.2494
11851TIP3    H257045   4.613   2.073  15.570  1.6532  1.5059  1.4636
11852TIP3   OH257046   2.772   2.540  15.837 -0.0270  0.2479 -0.8714
11852TIP3    H157047   2.806   2.473  15.897  0.5429  0.3405 -1.0907
11852TIP3    H257048   2.727   2.602  15.894 -0.3441 -0.1933 -0.6415
11853TIP3   OH257049   4.775   3.543   0.503  0.2392 -0.0794  0.5122
11853TIP3    H157050   4.857   3.591   0.487  0.1643 -0.8440 -2.5338
11853TIP3    H257051   4.794   3.454   0.474 -1.3951 -0.4751  0.6214
11854TIP3   OH257052   4.894   4.732  17.096  0.5135 -0.1373  0.4138
11854TIP3    H157053   4.972   4.741  17.151  0.1881  2.2278  0.5759
11854TIP3    H257054   4.919   4.773  17.013  0.1737 -1.3800 -0.3033
11855TIP3   OH257055   6.104   6.404   5.799 -0.3882 -0.4044  0.0739
11855TIP3    H157056   6.057   6.328   5.833  3.0769 -1.8092  2.0668
11855TIP3    H257057   6.159   6.369   5.729 -0.0535  0.5745 -0.1541
11856TIP3   OH257058   2.728   2.037   2.772 -0.1076  0.0416  0.2913
11856TIP3    H157059   2.772   1.971   2.718  1.0527  2.1018 -1.3455
11856TIP3    H257060   2.635   2.015   2.765  0.4299 -3.2615  2.3092
11857TIP3   OH257061   4.645   3.650  14.270 -0.1355  0.3596 -0.0032
11857TIP3    H157062   4.693   3.677  14.348  0.0614 -1.3862  0.4999
11857TIP3    H257063   4.711   3.609  14.214 -0.6292 -0.1216 -0.2412
11858TIP3   OH257064   3.375   5.694   5.606 -0.1943  0.0286  0.2575
11858TIP3    H157065   3.299   5.726   5.653 -1.8876 -2.1584 -0.8967
11858TIP3    H257066   3.377   5.746   5.526 -0.0054  0.6183  0.6424
11859TIP3   OH257067   1.192   5.195  14.212  0.4950  0.1997 -0.6287
11859TIP3    H157068   1.181   5.119  14.268 -0.4128 -0.7351 -2.0555
11859TIP3    H257069   1.245   5.256  14.264  2.3397 -1.9083  0.0307
11860TIP3   OH257070   3.996   5.567   0.742  0.6859 -0.2155  0.2913
11860TIP3    H157071   4.030   5.649   0.707 -0.2587 -0.2237 -0.6564
11860TIP3    H257072   3.974   5.586   0.833  1.4215  0.3063  0.3594
11861TIP3   OH257073   1.318   6.339  15.293 -0.3605 -0.3200  0.3950
11861TIP3    H157074   1.291   6.336  15.385 -0.3563 -1.5545  0.3598
11861TIP3    H257075   1.242   6.377  15.248 -1.7634 -3.0096  0.4207
11862TIP3   OH257076   0.452   2.129   2.466  0.1254 -0.1959  0.0659
11862TIP3    H157077   0.412   2.202   2.420  0.3349  0.3626  0.7671
11862TIP3    H257078   0.414   2.051   2.424 -0.1714  0.3044 -0.6128
11863TIP3   OH257079   2.566   2.459   5.484 -0.3097  0.1606 -0.2080
11863TIP3    H157080   2.661   2.452   5.495 -0.3365 -1.3856 -0.8371
11863TIP3    H257081   2.550   2.430   5.395 -1.5194 -1.0283  0.3856
11864TIP3   OH257082   1.365   2.825   3.114 -0.2192 -0.1114 -0.2975
11864TIP3    H157083   1.313   2.865   3.185  1.5872  0.7727  0.5682
11864TIP3    H257084   1.372   2.894   3.048 -0.4706 -0.3586 -0.5825
11865TIP3   OH257085   4.146   5.258  14.086 -0.8462  0.0390  0.2966
11865TIP3    H157086   4.240   5.267  14.072 -0.7509  1.0441  1.5046
11865TIP3    H257087   4.112   5.224  14.002  0.6168 -0.6340 -0.0370
11866TIP3   OH257088   1.077   1.031  11.196 -0.3544 -0.0062 -0.0289
11866TIP3    H157089   1.160   0.993  11.224  0.0418  0.1785 -0.9298
11866TIP3    H257090   1.059   1.099  11.261  0.1532 -0.1095  0.2198
11867TIP3   OH257091   1.729   0.000   4.908  0.0443  0.3584  0.0951
11867TIP3    H157092   1.721   0.096   4.905 -0.2700  0.3380 -4.6172
11867TIP3    H257093   1.822  -0.017   4.890  0.0021 -0.2463  0.4249
11868TIP3   OH257094   3.542   2.553   3.516  0.1314 -0.2230  0.6224
11868TIP3    H157095   3.634   2.548   3.493 -0.0115 -2.1089  0.4015
11868TIP3    H257096   3.501   2.481   3.468 -1.9184  2.2326 -1.4356
11869TIP3   OH257097   1.844   2.972  13.372  0.0704  0.2985 -1.0027
11869TIP3    H157098   1.925   3.021  13.362 -0.3870  1.3211  0.1220
11869TIP3    H257099   1.775   3.039  13.368 -0.5634 -0.2447  0.4759
11870TIP3   OH257100   1.607   5.234   3.227  0.3625  0.0916  0.1663
11870TIP3    H157101   1.521   5.204   3.201  1.0361 -1.2009 -0.5959
11870TIP3    H257102   1.592   5.280   3.310 -0.9146 -0.9308  0.5221
11871TIP3   OH257103   4.019   6.438  12.767  0.3325 -0.7898  0.5315
11871TIP3    H157104   4.069   6.422  12.687 -0.6817 -2.0881  0.1433
11871TIP3    H257105   3.960   6.510  12.743  1.2544  0.0140  0.6582
11872TIP3   OH257106   0.816   4.379   1.563 -0.0240  0.2722 -0.7663
11872TIP3    H157107   0.866   4.309   1.521  0.1828  0.1339 -0.2968
11872TIP3    H257108   0.725   4.362   1.539 -0.0683 -0.6578  0.0542
11873TIP3   OH257109   4.794   4.676   2.089 -0.5914  0.0243 -0.0095
11873TIP3    H157110   4.712   4.710   2.123 -0.8392 -1.0938  0.5062
11873TIP3    H257111   4.815   4.601   2.144 -1.1332 -1.9697 -2.4321
11874TIP3   OH257112   4.881   3.259  13.860 -0.3848 -0.2697 -0.0673
11874TIP3    H157113   4.798   3.267  13.812  0.4046 -1.7130 -1.7490
11874TIP3    H257114   4.935   3.202  13.804  1.4851  0.0861  1.3420
11875TIP3   OH257115   3.380   4.651   6.731 -0.1384  0.2970 -0.2325
11875TIP3    H157116   3.425   4.608   6.805  0.3061  1.0955 -0.0311
11875TIP3    H257117   3.430   4.732   6.717  0.2913 -0.2489 -1.9670
11876TIP3   OH257118   1.015   1.532  13.476 -0.1927  0.8481 -0.4766
11876TIP3    H157119   1.046   1.467  13.539 -1.1065  0.1951 -0.6909
11876TIP3    H257120   1.018   1.485  13.392 -2.2630  0.5913 -0.4303
11877TIP3   OH257121   4.568   3.180   1.434 -0.0907  0.8370 -0.0025
11877TIP3    H157122   4.628   3.188   1.360  0.8825  0.5631  0.7533
11877TIP3    H257123   4.615   3.128   1.499 -2.3549 -2.1977 -0.6694
11878TIP3   OH257124   5.675   1.250  16.638 -0.3194  0.9543 -0.6840
11878TIP3    H157125   5.666   1.219  16.548 -0.4564 -0.7343 -0.1164
11878TIP3    H257126   5.698   1.171  16.688 -0.9930  1.7106  0.8721
11879TIP3   OH257127   4.016   1.920  12.071  0.4890 -0.3285 -0.3942
11879TIP3    H157128   3.931   1.964  12.071  2.0200  2.8812  2.1480
11879TIP3    H257129   4.008   1.850  12.136 -0.9774 -1.8186 -2.1253
11880TIP3   OH257130   6.417   3.115  13.773 -0.1428  0.7289  0.1216
11880TIP3    H157131   6.508   3.137  13.753 -0.0450  0.4297  0.2298
11880TIP3    H257132   6.379   3.197  13.807  0.6706  0.3084  2.0838
11881TIP3   OH257133   1.763   3.534   0.764  0.1654 -0.2636 -0.6505
11881TIP3    H157134   1.754   3.531   0.668 -0.2890 -0.2122 -0.6104
11881TIP3    H257135   1.674   3.541   0.796  0.1932 -1.9279 -0.1624
11882TIP3   OH257136   6.719   3.079  14.377 -0.0395 -0.0052  0.4424
11882TIP3    H157137   6.667   3.003  14.350 -1.1409  0.3890  1.4476
11882TIP3    H257138   6.741   3.123  14.296  0.7761 -1.5081 -0.1749
11883TIP3   OH257139   3.244   3.363   2.322 -0.0549 -0.9661  0.3731
11883TIP3    H157140   3.318   3.303   2.329  0.1814 -0.5756  1.3215
11883TIP3    H257141   3.276   3.433   2.264  0.3720 -0.7178  0.9087
11884TIP3   OH257142   4.326   1.830  13.430 -0.3678 -0.1527  0.0398
11884TIP3    H157143   4.360   1.838  13.341 -1.6419 -1.2022 -0.5670
11884TIP3    H257144   4.256   1.896  13.435  1.1236  1.3922  0.9880
11885TIP3   OH257145   1.472   6.065   4.270  0.0838  0.3089  0.3414
11885TIP3    H157146   1.481   6.040   4.362 -0.0063  0.0990  0.2937
11885TIP3    H257147   1.516   6.150   4.264  1.3554 -0.3436  0.2737
11886TIP3   OH257148   0.019   4.474   2.925  0.4701  0.2774 -0.6270
11886TIP3    H157149  -0.056   4.483   2.984 -0.2591  1.3291 -1.6763
11886TIP3    H257150  -0.004   4.400   2.869  0.9206 -0.3783  0.0415
11887TIP3   OH257151   5.415   6.797   0.769 -0.1441 -0.2520  0.0471
11887TIP3    H157152   5.465   6.717   0.754 -0.6260 -0.1981 -2.0148
11887TIP3    H257153   5.407   6.837   0.683 -3.3711 -0.0693  0.3493
11888TIP3   OH257154   5.095   4.991   1.941  0.2960  0.2271  0.4123
11888TIP3    H157155   5.142   5.056   1.890 -0.3006 -0.0049 -0.4324
11888TIP3    H257156   5.163   4.931   1.973  0.5241 -0.3794 -1.1918
11889TIP3   OH257157   6.287   6.766  15.525  0.2185 -0.4309  0.3002
11889TIP3    H157158   6.318   6.810  15.446  0.3173  0.2799  0.7337
11889TIP3    H257159   6.206   6.723  15.499  0.6065 -0.7664 -0.3625
11890TIP3   OH257160   4.683   1.895  12.603  0.1213 -0.0066  0.0627
11890TIP3    H157161   4.627   1.889  12.525  1.9740  0.4898 -1.3523
11890TIP3    H257162   4.639   1.959  12.659 -2.2269 -1.7517  0.2975
11891TIP3   OH257163   5.253   6.105  15.559 -0.5956 -0.7741  0.3725
11891TIP3    H157164   5.242   6.145  15.472  0.5821 -0.3673  0.3936
11891TIP3    H257165   5.315   6.034  15.544  1.4280  0.7559  1.2779
11892TIP3   OH257166   2.199   0.976   3.172  0.0679  0.2460  0.1009
11892TIP3    H157167   2.146   0.923   3.232 -2.6985  1.3685 -1.2589
11892TIP3    H257168   2.217   0.918   3.098 -0.7036  0.3643 -0.1862
11893TIP3   OH257169   3.813   4.919   1.499  0.1772 -0.1278  0.1125
11893TIP3    H157170   3.748   4.850   1.509  0.7349 -0.5059  1.1503
11893TIP3    H257171   3.845   4.910   1.409  0.8710 -1.7693  0.5160
11894TIP3   OH257172   2.362   0.787   1.320 -0.5497 -0.3267 -0.2892
11894TIP3    H157173   2.325   0.854   1.377  0.5794 -0.1697  0.2811
11894TIP3    H257174   2.326   0.805   1.233 -0.3210  0.9625 -0.1147
11895TIP3   OH257175   0.244   2.899  13.620 -0.3030  0.5484  0.2397
11895TIP3    H157176   0.263   2.933  13.533 -0.8323  2.1682  0.7211
11895TIP3    H257177   0.215   2.976  13.670 -1.1603 -0.5586  1.5063
11896TIP3   OH257178   3.200   1.189  12.501  0.5705 -0.1194 -1.0759
11896TIP3    H157179   3.145   1.128  12.451  0.9954 -0.4503 -1.1425
11896TIP3    H257180   3.184   1.166  12.592  0.6419 -0.2525 -1.0967
11897TIP3   OH257181   5.567   2.303   5.532 -0.6646 -0.0758 -0.0264
11897TIP3    H157182   5.535   2.219   5.564  0.0363 -0.1214  0.5737
11897TIP3    H257183   5.530   2.367   5.593  1.4308 -0.2421  1.4922
11898TIP3   OH257184   4.064   1.469   4.308 -0.3470 -0.1202 -0.2836
11898TIP3    H157185   4.156   1.465   4.279 -0.8358  0.5136 -1.9882
11898TIP3    H257186   4.063   1.537   4.376  0.1235  1.2215 -1.5875
11899TIP3   OH257187   3.476   0.395  16.402  0.0939 -0.1812 -0.2965
11899TIP3    H157188   3.445   0.305  16.410  0.9558 -0.2830  2.2848
11899TIP3    H257189   3.555   0.399  16.456  0.0876  2.1030 -0.3989
11900TIP3   OH257190   5.469   6.718  12.899  0.4628  0.2041  0.2063
11900TIP3    H157191   5.421   6.785  12.851  0.7169 -0.9338 -1.6903
11900TIP3    H257192   5.410   6.643  12.903  0.8883 -0.1125  0.6808
11901TIP3   OH257193   4.928   3.164   2.710  0.3535 -0.1410  0.7329
11901TIP3    H157194   4.940   3.070   2.705 -1.7503 -0.2679 -3.7666
11901TIP3    H257195   4.834   3.176   2.723  0.4929  1.3580  0.4732
11902TIP3   OH257196   6.530   5.437  16.065 -0.2070 -0.4287 -0.2854
11902TIP3    H157197   6.505   5.420  16.156  0.8784  1.8131  0.4690
11902TIP3    H257198   6.611   5.388  16.053  1.5260  2.0096  1.0684
11903TIP3   OH257199   5.371   3.255  13.389 -0.2063 -0.0635  0.0060
11903TIP3    H157200   5.301   3.232  13.450  0.5296 -0.3655  0.7325
11903TIP3    H257201   5.417   3.328  13.431 -1.2055  1.3653 -1.3013
11904TIP3   OH257202   4.181   2.253  13.559 -0.7919  0.0483 -0.4783
11904TIP3    H157203   4.217   2.339  13.579  0.7437 -0.6704 -0.0622
11904TIP3    H257204   4.152   2.219  13.644 -2.8212  0.7669 -0.8610
11905TIP3   OH257205   0.092   6.430  13.664  0.7649  0.1272  0.2140
11905TIP3    H157206   0.005   6.470  13.665  1.2301  1.1625  1.2321
11905TIP3    H257207   0.086   6.358  13.601 -0.7807  0.2894  0.1727
11906TIP3   OH257208   0.998   3.925  16.757  0.0183  0.0020 -0.9885
11906TIP3    H157209   1.040   3.850  16.799  0.5091  0.6623 -0.2845
11906TIP3    H257210   0.906   3.900  16.748 -0.0173 -0.2764  0.1625
11907TIP3   OH257211   6.220   3.857  15.398 -0.1840  0.0683  0.4922
11907TIP3    H157212   6.241   3.766  15.380  0.3686 -0.0295  1.5974
11907TIP3    H257213   6.213   3.862  15.494 -2.3034  0.7300  0.3360
11908TIP3   OH257214   1.759   5.691  11.642  0.0687 -0.1553 -0.0116
11908TIP3    H157215   1.749   5.626  11.711 -0.3598  1.1858  1.2232
11908TIP3    H257216   1.766   5.775  11.689 -0.4126  0.7994 -1.5920
11909TIP3   OH257217   3.289   4.297  14.264  0.3603  0.3032 -0.3360
11909TIP3    H157218   3.370   4.324  14.309  0.3599  2.1091 -1.3514
11909TIP3    H257219   3.288   4.350  14.184 -1.3977 -0.3391 -0.7475
11910TIP3   OH257220   1.004   4.475  16.599  0.3079  0.3232  0.1900
11910TIP3    H157221   1.051   4.443  16.522 -0.3118  0.7126 -0.3596
11910TIP3    H257222   1.053   4.551  16.629 -0.1404  0.9050 -0.5536
11911TIP3   OH257223   2.779   3.349  12.477  0.6495 -0.4917 -0.1288
11911TIP3    H157224   2.763   3.397  12.396 -0.8088 -1.5206 -0.4604
11911TIP3    H257225   2.708   3.287  12.483  1.2767 -1.0909  1.4664
11912TIP3   OH257226   3.009   3.137  10.099 -0.3585  0.1637  0.2910
11912TIP3    H157227   3.044   3.169  10.016  1.8303 -0.5024  0.9122
11912TIP3    H257228   3.084   3.137  10.158 -1.2867 -1.8751  1.5465
11913TIP3   OH257229   6.325   6.089  15.658  0.1741  0.5996 -0.1593
11913TIP3    H157230   6.290   6.172  15.690 -2.2966 -0.4244 -0.1237
11913TIP3    H257231   6.262   6.060  15.593  0.1263 -2.0622  1.0267
11914TIP3   OH257232   1.356   5.833   1.976  0.7273 -0.1309 -0.2056
11914TIP3    H157233   1.360   5.866   1.886  1.2962  0.3649 -0.0061
11914TIP3    H257234   1.281   5.878   2.015  0.3843 -0.4633 -0.4731
11915TIP3   OH257235   0.594   6.242  13.068  0.1525  0.9388 -0.0198
11915TIP3    H157236   0.586   6.158  13.115  0.8382  0.4274 -0.8022
11915TIP3    H257237   0.575   6.308  13.134 -0.0262  0.1777  0.7032
11916TIP3   OH257238   2.464   5.463  14.700 -0.2499  0.8454  0.9179
11916TIP3    H157239   2.530   5.430  14.761 -0.0607  2.5352  1.6461
11916TIP3    H257240   2.382   5.422  14.730  0.7556 -3.1791 -1.4434
11917TIP3   OH257241   2.514   1.862   0.803  0.3488 -0.3490 -0.1470
11917TIP3    H157242   2.599   1.895   0.831  0.7273 -1.1864 -0.2917
11917TIP3    H257243   2.499   1.784   0.856 -0.0993 -0.4891 -0.4743
11918TIP3   OH257244   5.227   5.603   3.682  0.0674 -0.4638 -0.2245
11918TIP3    H157245   5.152   5.604   3.741  1.1637 -0.2643  1.2068
11918TIP3    H257246   5.218   5.521   3.633 -0.7356 -0.7560  0.4028
11919TIP3   OH257247   5.125   0.170  14.650 -0.6950  0.2855  0.4341
11919TIP3    H157248   5.170   0.119  14.719 -0.9436  2.2556  2.1121
11919TIP3    H257249   5.193   0.229  14.617 -0.3978 -1.1269 -1.5319
11920TIP3   OH257250   5.446   6.712  11.591 -0.2693 -0.4908  0.3708
11920TIP3    H157251   5.460   6.650  11.663  1.7848  0.5528  0.9037
11920TIP3    H257252   5.360   6.749  11.609 -0.2580 -1.0502  1.6793
11921TIP3   OH257253   2.650   0.286   1.300  0.2509  0.2297  0.5432
11921TIP3    H157254   2.601   0.368   1.292  2.6205  2.1605  4.1158
11921TIP3    H257255   2.602   0.236   1.366 -0.1050 -0.4324 -0.2086
11922TIP3   OH257256   4.885   2.393  11.661  0.0991 -0.1868 -0.3729
11922TIP3    H157257   4.971   2.410  11.623  0.5233 -0.2308  0.5435
11922TIP3    H257258   4.849   2.479  11.682 -0.1087 -0.1652 -0.8201
11923TIP3   OH257259   2.596   6.284   1.067  0.6422  0.5532  0.4202
11923TIP3    H157260   2.629   6.374   1.062 -0.8550  1.2770  2.7846
11923TIP3    H257261   2.672   6.233   1.095  1.2046  1.2496  0.2054
11924TIP3   OH257262   3.717   2.688   4.073 -0.3282  0.2849 -0.0682
11924TIP3    H157263   3.741   2.757   4.011  0.4412  0.7483  0.7464
11924TIP3    H257264   3.800   2.657   4.109 -0.6152 -1.4694 -0.8271
11925TIP3   OH257265   2.452   2.204   0.994  0.6763  0.0929 -0.0435
11925TIP3    H157266   2.468   2.298   0.996 -2.0033  0.5839  0.8894
11925TIP3    H257267   2.389   2.193   0.923 -1.4152 -0.5393  1.8472
11926TIP3   OH257268   5.884   1.363   3.670  0.4093 -0.0256  0.1700
11926TIP3    H157269   5.934   1.367   3.751 -0.4007 -0.1346  0.6869
11926TIP3    H257270   5.913   1.282   3.628  0.1947 -0.4378  0.7916
11927TIP3   OH257271   1.956   2.671   4.492  0.7163 -0.6206  0.2719
11927TIP3    H157272   2.005   2.600   4.450 -0.1672 -1.4638  0.6549
11927TIP3    H257273   1.986   2.669   4.583  1.0560 -0.1797  0.1693
11928TIP3   OH257274   6.703   3.235  12.630 -0.2321 -0.2135  0.5345
11928TIP3    H157275   6.769   3.304  12.628  1.3868 -1.7483 -0.1493
11928TIP3    H257276   6.626   3.274  12.589  1.4041  0.4457 -1.9559
11929TIP3   OH257277   1.026   1.091   4.995  0.3307  0.9617 -0.6640
11929TIP3    H157278   1.013   1.184   4.979  1.1841  1.5344  1.7562
11929TIP3    H257279   1.118   1.084   5.021  0.4879 -0.6687 -1.6169
11930TIP3   OH257280   3.383   1.485   2.157 -0.0072  0.2654 -0.0096
11930TIP3    H157281   3.349   1.423   2.093  0.0297 -0.0774  0.3019
11930TIP3    H257282   3.343   1.458   2.240  0.2874  0.4387  0.1889
11931TIP3   OH257283   3.984   2.175   0.329 -0.0633  0.3966 -0.4878
11931TIP3    H157284   4.020   2.101   0.281  0.2175 -0.5975  1.2224
11931TIP3    H257285   3.928   2.221   0.265  2.3678  0.6342 -2.4958
11932TIP3   OH257286   5.757   6.572  17.226 -0.2037 -0.4316  0.2355
11932TIP3    H157287   5.829   6.568  17.289 -0.2941  1.2282  0.4631
11932TIP3    H257288   5.693   6.509  17.259  1.8460 -3.2340 -0.9078
11933TIP3   OH257289   4.225   1.583   1.239  0.4511  0.4875  0.1020
11933TIP3    H157290   4.302   1.540   1.276  1.5269  2.2463 -0.0563
11933TIP3    H257291   4.187   1.631   1.312 -0.5614 -0.4482  0.1994
11934TIP3   OH257292   0.172   6.731   1.204 -0.0715  0.3022  0.3902
11934TIP3    H157293   0.077   6.735   1.197 -0.1475  1.5957  1.8807
11934TIP3    H257294   0.188   6.666   1.273  0.1650 -0.7380 -0.6384
11935TIP3   OH257295   5.272   5.522  15.977 -0.7304  0.1790  0.0006
11935TIP3    H157296   5.289   5.614  15.957  1.8069 -0.2884 -0.1343
11935TIP3    H257297   5.325   5.473  15.914 -0.9016 -1.3671  1.0197
11936TIP3   OH257298   1.982   0.368  15.772 -0.0349 -0.1527 -0.6151
11936TIP3    H157299   1.988   0.375  15.867 -1.4673 -0.7849 -0.4549
11936TIP3    H257300   2.050   0.305  15.748 -0.7049 -1.1906  0.1699
11937TIP3   OH257301   2.875   3.493  13.223 -0.2248  0.1022 -0.2383
11937TIP3    H157302   2.821   3.521  13.296 -0.9721  1.0698 -1.1377
11937TIP3    H257303   2.823   3.514  13.145  1.2896  0.7158 -1.1091
11938TIP3   OH257304   6.229   5.107  11.625  0.6921 -0.6533 -0.1341
11938TIP3    H157305   6.256   5.093  11.716  1.1254  1.2414  0.0487
11938TIP3    H257306   6.257   5.197  11.605 -2.6446  0.2609 -0.9481
11939TIP3   OH257307   3.728   3.151  13.002  0.0352  0.0968 -0.1486
11939TIP3    H157308   3.726   3.235  12.956  3.1187  1.0309  1.3668
11939TIP3    H257309   3.681   3.167  13.084 -1.3938 -0.3274 -0.8594
11940TIP3   OH257310   6.240   5.912   0.522 -0.8711 -0.2061 -0.0895
11940TIP3    H157311   6.282   5.909   0.436 -0.6944  1.3299 -0.0735
11940TIP3    H257312   6.303   5.869   0.580 -0.0808  0.5404 -0.3798
11941TIP3   OH257313   5.297   2.033  14.835  0.1660 -0.1854  1.0325
11941TIP3    H157314   5.286   1.938  14.832  0.4553 -0.1677 -1.2693
11941TIP3    H257315   5.211   2.066  14.862 -0.4953 -0.9877 -0.0836
11942TIP3   OH257316   2.917   6.619   3.075 -0.2645  0.0158 -0.5921
11942TIP3    H157317   2.926   6.586   2.985 -0.7742  0.9442 -0.9899
11942TIP3    H257318   2.935   6.543   3.130 -1.1651 -0.8527 -1.4850
11943TIP3   OH257319   4.830   0.822   3.400  0.3255 -0.2643  0.9121
11943TIP3    H157320   4.884   0.779   3.466 -0.2190  0.6353  1.9511
11943TIP3    H257321   4.743   0.830   3.440 -0.2409 -0.4786 -0.2328
11944TIP3   OH257322   0.924   5.144   1.863  0.0603 -0.1643  0.0853
11944TIP3    H157323   0.870   5.082   1.814  0.4524  0.4369 -1.1119
11944TIP3    H257324   0.866   5.219   1.877  0.0169 -0.2489  0.3558
11945TIP3   OH257325   3.258   6.745  16.475 -0.4101 -0.4403 -0.2782
11945TIP3    H157326   3.175   6.786  16.496  1.3423  2.8645  0.5763
11945TIP3    H257327   3.241   6.651  16.481 -4.6105  0.0874 -2.4676
11946TIP3   OH257328   1.746   3.292   3.407  0.1506 -0.7233 -0.0115
11946TIP3    H157329   1.721   3.343   3.484  0.4625 -0.5885  0.0037
11946TIP3    H257330   1.670   3.294   3.350  0.4112  0.3654 -0.3322
11947TIP3   OH257331   2.978   2.934  12.768  0.4693  0.0552  0.1078
11947TIP3    H157332   2.898   2.922  12.820  0.8845 -0.1519  0.6973
11947TIP3    H257333   3.047   2.946  12.833  0.9174  0.2461 -0.4055
11948TIP3   OH257334   1.048   1.696  17.041 -0.3223  0.3448 -0.2026
11948TIP3    H157335   0.977   1.655  17.090  0.9960 -1.3239  0.3603
11948TIP3    H257336   1.044   1.789  17.064  0.4271 -0.4279  3.2875
11949TIP3   OH257337   0.683   4.925   4.343  0.5610 -0.2355 -0.0048
11949TIP3    H157338   0.672   5.020   4.348 -1.1705 -0.5034  2.1609
11949TIP3    H257339   0.777   4.912   4.340  0.8433  1.5337  0.3960
11950TIP3   OH257340   6.582   2.858  14.610 -0.5759 -0.2591  0.0293
11950TIP3    H157341   6.519   2.786  14.605 -1.4780  0.5887 -0.9419
11950TIP3    H257342   6.564   2.900  14.695 -1.4066  0.0506 -0.2931
11951TIP3   OH257343   5.077   3.768  12.305  1.1203 -0.1653  0.4339
11951TIP3    H157344   5.165   3.739  12.282  0.7217 -0.0151 -1.4005
11951TIP3    H257345   5.065   3.742  12.396  3.2504  0.2847  0.8636
11952TIP3   OH257346   1.514   1.868   4.436  0.4921 -0.0237  0.2540
11952TIP3    H157347   1.573   1.800   4.404 -1.6292 -1.1825 -1.3412
11952TIP3    H257348   1.493   1.920   4.358  0.0095  0.8528  0.9539
11953TIP3   OH257349   3.901   6.680  13.898  0.5017 -0.2443  0.4197
11953TIP3    H157350   3.842   6.657  13.826 -0.5962 -0.9909  1.5394
11953TIP3    H257351   3.977   6.623  13.887 -0.3478 -1.4512  0.7349
11954TIP3   OH257352   1.516   3.931   0.044  0.2303 -0.3937 -0.2470
11954TIP3    H157353   1.590   3.878   0.075  0.2628  1.1725  2.5094
11954TIP3    H257354   1.442   3.900   0.095 -0.0135  1.3199  0.4582
11955TIP3   OH257355   6.203   6.481   2.636  0.1557 -0.7652  0.4084
11955TIP3    H157356   6.215   6.551   2.701  2.6226 -1.3540  0.6200
11955TIP3    H257357   6.147   6.417   2.681 -1.1453  0.4897  0.6348
11956TIP3   OH257358   3.205   2.353  16.503 -0.6080  0.3761 -0.2660
11956TIP3    H157359   3.258   2.290  16.553 -0.9748  0.6073  0.4313
11956TIP3    H257360   3.254   2.368  16.423 -0.6232 -0.9689 -0.5323
11957TIP3   OH257361   1.234   2.403  11.767 -0.1496  0.9239 -0.7632
11957TIP3    H157362   1.181   2.472  11.727 -0.4367  1.6092  0.7841
11957TIP3    H257363   1.298   2.450  11.821 -0.4027 -0.0321  0.3813
11958TIP3   OH257364   0.149   0.898  14.417  0.0404  0.0588 -0.6332
11958TIP3    H157365   0.075   0.957  14.403  0.1928 -0.1405 -2.4039
11958TIP3    H257366   0.220   0.956  14.444 -0.6850  0.2755  0.8884
11959TIP3   OH257367   5.424   1.805  13.282 -0.2623 -0.0235 -0.1478
11959TIP3    H157368   5.348   1.812  13.340 -0.1446 -1.7818  0.2285
11959TIP3    H257369   5.461   1.893  13.280 -1.7800  0.6385  0.3861
11960TIP3   OH257370   6.414   6.659   4.433 -0.3596 -0.6698  0.2294
11960TIP3    H157371   6.385   6.568   4.424 -0.5041 -0.6519  0.5101
11960TIP3    H257372   6.354   6.708   4.376 -1.2404 -0.5671  1.2200
11961TIP3   OH257373   5.909   5.103  14.946 -0.7705 -0.1462 -0.4527
11961TIP3    H157374   5.943   5.109  15.035  0.8562  0.1486 -1.0881
11961TIP3    H257375   5.856   5.183  14.936 -1.1527 -0.3003  0.3265
11962TIP3   OH257376   5.245   3.324  14.916  0.2663  0.0179  0.2477
11962TIP3    H157377   5.309   3.392  14.894 -0.4542  0.3377 -0.8943
11962TIP3    H257378   5.223   3.283  14.832 -0.6315 -0.4521  0.7028
11963TIP3   OH257379   1.268   2.448  15.652 -0.4838 -0.1090  0.0162
11963TIP3    H157380   1.238   2.516  15.592  1.3214  0.1275 -0.6751
11963TIP3    H257381   1.228   2.469  15.736 -1.9080  0.3707 -0.7781
11964TIP3   OH257382   3.569   5.457  14.228  0.1237  0.0884  0.1547
11964TIP3    H157383   3.558   5.434  14.320  1.3496  0.8520  0.4964
11964TIP3    H257384   3.479   5.463  14.194 -0.3951  1.5152  1.7325
11965TIP3   OH257385   3.803   3.705  16.464 -0.3405  0.2626 -0.0216
11965TIP3    H157386   3.767   3.630  16.417 -2.9613  1.0552  0.6120
11965TIP3    H257387   3.816   3.772  16.397  0.0410 -0.0527 -0.2639
11966TIP3   OH257388   6.560   5.446   1.297 -0.1701  0.1074  0.2462
11966TIP3    H157389   6.524   5.472   1.212 -1.4651 -1.3071  0.3539
11966TIP3    H257390   6.597   5.359   1.282  1.3199  0.6575  0.6733
11967TIP3   OH257391   5.576   5.545  14.770  0.4628  0.1155  0.2664
11967TIP3    H157392   5.647   5.583  14.821  0.6748  1.6947 -1.1754
11967TIP3    H257393   5.560   5.608  14.700 -1.3753 -0.9154 -0.2796
11968TIP3   OH257394   1.209   0.049   2.181  0.2727  0.2813  0.2079
11968TIP3    H157395   1.263  -0.024   2.210  0.9427  1.6677  2.5730
11968TIP3    H257396   1.237   0.065   2.091  0.8372 -1.6829  0.0104
11969TIP3   OH257397   0.485   4.750  17.102  0.4214 -0.2392  0.1228
11969TIP3    H157398   0.420   4.808  17.063  2.5651  1.1346 -1.5454
11969TIP3    H257399   0.457   4.662  17.077 -0.3610  0.3933 -1.2636
11970TIP3   OH257400   0.724   5.572  11.464  0.0420 -0.1104  0.3189
11970TIP3    H157401   0.687   5.632  11.528 -0.8353 -0.9674  0.6304
11970TIP3    H257402   0.657   5.566  11.396 -0.5737 -1.9693  1.0640
11971TIP3   OH257403   2.271   1.254  14.492  0.0459 -0.2077 -0.0444
11971TIP3    H157404   2.241   1.345  14.497 -0.2167 -0.3044  0.1688
11971TIP3    H257405   2.232   1.212  14.568 -0.1239 -0.5815 -0.3324
11972TIP3   OH257406   5.384   6.722  15.354  0.2531  0.0214 -0.3148
11972TIP3    H157407   5.415   6.699  15.266 -0.9289  1.0038 -1.0044
11972TIP3    H257408   5.348   6.640  15.388 -1.1177  0.0847 -1.5536
11973TIP3   OH257409   2.094   4.437   5.570 -0.0199  0.2289  0.2927
11973TIP3    H157410   2.055   4.355   5.598 -0.8871 -0.2354 -2.1818
11973TIP3    H257411   2.188   4.421   5.570 -0.1467 -0.5060  0.5722
11974TIP3   OH257412   2.903   0.716  11.754  0.2322  0.1481  0.6666
11974TIP3    H157413   2.948   0.763  11.684 -0.9849  0.6861  0.2328
11974TIP3    H257414   2.901   0.778  11.827 -1.4619  0.8395  0.0614
11975TIP3   OH257415   0.748   4.888  15.969  0.0191 -0.0491  0.3871
11975TIP3    H157416   0.774   4.977  15.946 -2.2364  0.5137 -0.1624
11975TIP3    H257417   0.719   4.850  15.887  2.3930 -1.8248  0.3458
11976TIP3   OH257418   4.276   2.774  15.746 -0.2270 -0.1186 -0.3987
11976TIP3    H157419   4.292   2.731  15.830 -2.0746 -0.3837 -0.1547
11976TIP3    H257420   4.208   2.721  15.705 -0.2964  0.7805 -1.4621
11977TIP3   OH257421   1.709   5.959  16.712 -0.1329 -0.5649  0.0781
11977TIP3    H157422   1.798   5.980  16.685 -0.4786 -3.1566 -3.4375
11977TIP3    H257423   1.719   5.913  16.796  1.9511 -1.6376 -0.7172
11978TIP3   OH257424   3.121   0.330  15.752  0.6281  0.2558 -0.5423
11978TIP3    H157425   3.028   0.351  15.759 -0.1600 -1.7634 -3.8406
11978TIP3    H257426   3.159   0.405  15.707  0.0755 -0.0300 -1.5123
11979TIP3   OH257427   1.540   4.913   3.724 -0.2825  0.1163  0.3532
11979TIP3    H157428   1.518   4.944   3.812  2.1928  1.4522  0.5324
11979TIP3    H257429   1.507   4.823   3.722 -4.1446  1.4213  1.1536
11980TIP3   OH257430   1.150   6.812  10.711  0.1755  0.3121 -0.5519
11980TIP3    H157431   1.075   6.870  10.704  0.1273  0.1095 -1.7192
11980TIP3    H257432   1.212   6.860  10.767 -0.7802  0.4972  0.3767
11981TIP3   OH257433   5.787   6.481  12.210 -0.3885 -0.1624  0.3546
11981TIP3    H157434   5.775   6.414  12.277 -0.8849 -0.1340  0.3014
11981TIP3    H257435   5.715   6.543  12.226  0.0191  0.3110  0.3536
11982TIP3   OH257436   0.749   6.804  14.366 -0.4845 -0.0453 -0.1934
11982TIP3    H157437   0.811   6.751  14.418  0.5002  1.3963  0.1324
11982TIP3    H257438   0.796   6.822  14.285 -0.9529  0.0459 -0.4421
11983TIP3   OH257439   1.311   3.603  12.547  0.3084 -0.2015 -0.2140
11983TIP3    H157440   1.326   3.543  12.474  0.7891 -0.4457  0.0821
11983TIP3    H257441   1.384   3.586  12.607  0.4208  0.6516 -0.1106
11984TIP3   OH257442   3.984   0.862  12.750 -0.5451  0.6603  0.6482
11984TIP3    H157443   3.950   0.869  12.840  1.1428  0.5511  1.3163
11984TIP3    H257444   3.941   0.932  12.702 -1.8874  0.3762  1.4115
11985TIP3   OH257445   2.934   6.573   2.291 -0.1093  0.1854  0.4241
11985TIP3    H157446   3.011   6.523   2.266 -0.8228 -1.2647  1.0455
11985TIP3    H257447   2.968   6.655   2.327  1.1181 -0.2919  0.3624
11986TIP3   OH257448   2.972   2.709  15.420 -0.6276  0.0113 -0.9410
11986TIP3    H157449   2.943   2.789  15.463 -0.9287 -0.7539  0.3114
11986TIP3    H257450   2.968   2.729  15.326  0.0022  1.6839 -0.6230
11987TIP3   OH257451   2.133   0.288  12.117  0.3392  0.2388 -0.4749
11987TIP3    H157452   2.072   0.226  12.079 -0.4324  0.8643 -0.2735
11987TIP3    H257453   2.140   0.358  12.052  0.8584  0.1662 -0.5056
11988TIP3   OH257454   4.515   2.919   4.024 -0.4191  0.4265  0.1723
11988TIP3    H157455   4.531   2.998   3.972  0.3524 -0.4229 -0.9004
11988TIP3    H257456   4.423   2.897   4.008 -0.8878  1.6069  1.1794
11989TIP3   OH257457   2.032   0.567   0.462  0.3971  0.1249  0.5176
11989TIP3    H157458   2.061   0.496   0.404  0.0610 -0.1546  0.6890
11989TIP3    H257459   2.048   0.647   0.411  0.3335 -0.1009  0.1358
11990TIP3   OH257460   3.194   1.157  15.943  0.1106 -0.6600  0.1305
11990TIP3    H157461   3.287   1.139  15.931  0.1137  0.0979 -1.0674
11990TIP3    H257462   3.161   1.171  15.854 -1.3533 -1.8899  0.4542
11991TIP3   OH257463   0.955   3.355   2.012 -0.4761 -0.3831  0.1301
11991TIP3    H157464   1.016   3.294   2.053  3.3705  0.6149 -3.8062
11991TIP3    H257465   0.977   3.440   2.050 -1.1642 -0.3842  0.5452
11992TIP3   OH257466   5.192   6.610  14.279  0.1511 -0.5291  0.2217
11992TIP3    H157467   5.257   6.554  14.236  0.0739 -1.1952  0.9656
11992TIP3    H257468   5.188   6.578  14.369 -1.6053 -0.8753  0.0560
11993TIP3   OH257469   5.088   1.163   2.656  0.0486  0.1247  0.7238
11993TIP3    H157470   5.100   1.143   2.749 -0.9137  0.8213  1.0011
11993TIP3    H257471   5.066   1.256   2.654 -0.0130  0.0956 -0.2006
11994TIP3   OH257472   3.976   2.450  13.922 -0.6018  0.1354 -0.2014
11994TIP3    H157473   4.014   2.368  13.890  0.0662 -0.3763  1.8377
11994TIP3    H257474   4.017   2.464  14.007 -1.4269  2.0956 -0.1013
11995TIP3   OH257475   6.389   0.786  16.086 -0.3257 -0.3172 -0.8259
11995TIP3    H157476   6.348   0.703  16.113  0.9830  0.1268  2.7681
11995TIP3    H257477   6.339   0.853  16.133 -0.6906  0.9053 -2.8875
11996TIP3   OH257478   0.457   3.988  13.026 -0.8390  0.2200  0.1868
11996TIP3    H157479   0.445   3.916  12.964 -1.7447  1.6035 -1.2645
11996TIP3    H257480   0.496   4.059  12.975  0.8059  0.5260  1.7887
11997TIP3   OH257481   6.376   4.646   0.447 -0.0412  0.5341 -0.1685
11997TIP3    H157482   6.424   4.583   0.394 -0.7576 -0.5947  0.4922
11997TIP3    H257483   6.385   4.729   0.401 -1.1427 -0.5358 -2.3808
11998TIP3   OH257484   6.329   0.868  16.462 -0.0332  0.0386  0.9835
11998TIP3    H157485   6.424   0.875  16.451 -0.1031 -0.5087 -0.0658
11998TIP3    H257486   6.307   0.783  16.425 -1.3642  1.5863 -2.0190
11999TIP3   OH257487   4.216   3.239   1.615  0.6444 -0.3469 -0.2134
11999TIP3    H157488   4.295   3.251   1.668  1.2089  0.7253 -1.2881
11999TIP3    H257489   4.148   3.221   1.679  1.8300 -1.6880  0.7087
12000TIP3   OH257490   2.405   0.961   1.833 -0.0109 -0.1107  0.3662
12000TIP3    H157491   2.483   1.009   1.803 -0.6352  1.1263  0.6796
12000TIP3    H257492   2.333   0.998   1.781 -0.7128  0.2770  1.5877
12001TIP3   OH257493   4.314   1.191  16.631  0.0150  0.8150 -0.0166
12001TIP3    H157494   4.298   1.161  16.720  0.6162 -1.5588 -0.6870
12001TIP3    H257495   4.230   1.228  16.602 -0.4618  0.6390  1.1502
12002TIP3   OH257496   4.860   4.371  11.406  0.0155 -0.6507 -0.2644
12002TIP3    H157497   4.835   4.448  11.457  0.4364 -0.6360 -0.0826
12002TIP3    H257498   4.797   4.369  11.334 -0.9778 -1.0523  0.6123
12003TIP3   OH257499   4.145   2.784   2.370 -0.1258 -0.4432 -0.4301
12003TIP3    H157500   4.180   2.771   2.281  0.0311  2.2675 -0.7991
12003TIP3    H257501   4.055   2.814   2.356 -0.0538  0.1354  0.3085
12004TIP3   OH257502   2.576   6.239  10.684  0.8666  0.4065  0.0158
12004TIP3    H157503   2.572   6.150  10.651 -1.2742  0.3993  0.2364
12004TIP3    H257504   2.510   6.242  10.753  0.5860  2.2824 -0.3053
12005TIP3   OH257505   4.351   1.962  11.819 -0.3855  0.6874  0.0809
12005TIP3    H157506   4.352   2.055  11.798 -0.8890  1.0358  1.5770
12005TIP3    H257507   4.279   1.951  11.881  0.0857 -0.5742  0.4337
12006TIP3   OH257508   2.108   6.278   6.038  0.1479 -0.1596  0.4512
12006TIP3    H157509   2.117   6.361   5.993  1.0950 -0.5719 -0.1372
12006TIP3    H257510   2.099   6.302   6.131  0.1486  0.5981  0.2581
12007TIP3   OH257511   6.642   1.502   4.326  0.3360 -0.0827 -0.4245
12007TIP3    H157512   6.717   1.559   4.309  0.2155  0.0204 -0.6195
12007TIP3    H257513   6.592   1.503   4.244  0.8108 -1.1776 -0.7415
12008TIP3   OH257514   3.531   5.945  13.698 -0.0772 -0.5258  0.3837
12008TIP3    H157515   3.605   5.909  13.747 -0.9715 -1.8446  0.7940
12008TIP3    H257516   3.563   6.028  13.663  0.9753 -0.1645  2.1613
12009TIP3   OH257517   5.925   1.642  12.185  0.4233 -0.3560  0.1962
12009TIP3    H157518   5.885   1.570  12.137  1.8796 -1.7266  1.0050
12009TIP3    H257519   5.852   1.687  12.227 -0.8316  0.6241 -2.9171
12010TIP3   OH257520   2.614   4.594  14.461  0.0734 -0.0673  0.6547
12010TIP3    H157521   2.709   4.605  14.466  0.0968 -0.0720  0.2281
12010TIP3    H257522   2.579   4.670  14.509  0.2833  0.3283  0.1845
12011TIP3   OH257523   5.104   4.785   3.500  0.1299  0.1813 -0.5199
12011TIP3    H157524   5.148   4.752   3.578 -0.0398  1.2350  0.0325
12011TIP3    H257525   5.013   4.797   3.528 -0.4115 -1.4805 -1.4971
12012TIP3   OH257526   1.470   0.091  17.183 -0.2469 -0.3150  0.8446
12012TIP3    H157527   1.458   0.110  17.090 -0.9040  1.0539  1.1901
12012TIP3    H257528   1.537   0.023  17.185 -2.8948 -3.0988 -0.8088
12013TIP3   OH257529   1.291   1.595   3.486  0.1489  0.4768 -0.6967
12013TIP3    H157530   1.284   1.504   3.515 -0.9325  0.6055 -0.5153
12013TIP3    H257531   1.381   1.620   3.506  0.3198 -0.4145 -0.3263
12014TIP3   OH257532   1.002   3.404   3.374 -0.1719  0.3936  0.0034
12014TIP3    H157533   0.950   3.379   3.297 -0.2627  0.5692  0.0088
12014TIP3    H257534   0.973   3.343   3.442  0.7008 -0.4967 -0.3983
12015TIP3   OH257535   6.261   4.634   1.470 -0.4931  0.0852  0.0901
12015TIP3    H157536   6.321   4.602   1.403 -0.4767  0.2948  0.0032
12015TIP3    H257537   6.289   4.591   1.551  0.2517  0.7643  0.2018
12016TIP3   OH257538   4.667   3.171  15.613  0.5941  0.2494 -0.1411
12016TIP3    H157539   4.742   3.121  15.580  0.0047 -0.4727 -0.4035
12016TIP3    H257540   4.613   3.106  15.658  0.0905  0.7567 -0.0089
12017TIP3   OH257541   0.797   0.990  13.289  0.1668  0.2758 -0.2340
12017TIP3    H157542   0.831   1.019  13.204 -0.2438  0.1198 -0.4524
12017TIP3    H257543   0.871   1.001  13.349  0.1998  1.2129 -0.4324
12018TIP3   OH257544   3.797   5.432   1.012 -0.0656  0.5091 -0.1723
12018TIP3    H157545   3.843   5.390   0.939  0.7020  1.4712 -0.2431
12018TIP3    H257546   3.749   5.360   1.054  0.2265 -0.2153 -1.0602
12019TIP3   OH257547   6.741   5.903   6.327  0.4473 -0.3660  0.8502
12019TIP3    H157548   6.802   5.925   6.398 -0.3507  1.1045  1.0998
12019TIP3    H257549   6.693   5.985   6.311 -0.7857 -1.2471 -0.0016
12020TIP3   OH257550   0.812   5.663   0.834 -0.1162 -0.0620 -0.0788
12020TIP3    H157551   0.808   5.656   0.929 -0.0185  1.9695  0.0905
12020TIP3    H257552   0.723   5.685   0.807 -0.1878 -0.8135 -0.5009
12021TIP3   OH257553   5.298   1.781  12.728  0.0137  0.1608 -0.3414
12021TIP3    H157554   5.348   1.708  12.692  0.1723  0.8255 -1.4868
12021TIP3    H257555   5.347   1.859  12.702 -0.4190  0.7059  0.4501
12022TIP3   OH257556   0.763   0.118  16.758  0.2699 -0.0960  0.6861
12022TIP3    H157557   0.689   0.091  16.703  0.5317  0.1610  0.2086
12022TIP3    H257558   0.806   0.036  16.782  0.3936 -0.1840  0.1728
12023TIP3   OH257559   3.306   5.331   6.696 -0.6102 -0.1864  0.1468
12023TIP3    H157560   3.253   5.351   6.773 -0.9765 -0.7511  0.0425
12023TIP3    H257561   3.270   5.249   6.662 -0.0307 -0.2806 -0.2496
12024TIP3   OH257562   6.167   2.510   3.682 -0.2853 -0.1384 -0.0262
12024TIP3    H157563   6.139   2.443   3.745 -1.3852  0.8620  0.5751
12024TIP3    H257564   6.259   2.526   3.703 -0.6973  0.3433  1.5027
12025TIP3   OH257565   4.509   3.721   5.890  0.2187  0.7194 -0.3954
12025TIP3    H157566   4.448   3.773   5.942  1.1106  2.2532 -0.8536
12025TIP3    H257567   4.525   3.774   5.812  1.3006 -0.1535 -0.7781
12026TIP3   OH257568   6.724   3.758  12.963 -0.1727  0.0330  0.7368
12026TIP3    H157569   6.792   3.786  12.900  0.7131  0.8037  2.0099
12026TIP3    H257570   6.725   3.663  12.958  1.2554  0.0192  0.9808
12027TIP3   OH257571   0.542   5.889  16.686  0.0840  0.0272  0.0229
12027TIP3    H157572   0.565   5.827  16.756 -0.3084  0.5024  0.5779
12027TIP3    H257573   0.469   5.846  16.640  0.5065 -0.3998 -0.2561
12028TIP3   OH257574   5.224   1.681  16.067 -0.4849  0.0252  0.3405
12028TIP3    H157575   5.168   1.608  16.091  0.7711 -0.4302  1.9435
12028TIP3    H257576   5.163   1.749  16.038 -1.8658 -0.3839  2.2223
12029TIP3   OH257577   6.290   2.516   5.899  0.1423  0.3338 -0.0775
12029TIP3    H157578   6.265   2.497   5.809  0.9185 -0.8186 -0.0582
12029TIP3    H257579   6.212   2.555   5.938 -0.9892 -1.3936 -0.5788
12030TIP3   OH257580   2.116   3.786  17.070 -0.1923  0.0825 -0.5199
12030TIP3    H157581   2.175   3.833  17.128  1.1589 -2.3852  0.1499
12030TIP3    H257582   2.128   3.828  16.984  2.9146 -0.6821 -0.5194
12031TIP3   OH257583   5.489   4.432  14.512 -0.2468  0.3222 -0.4484
12031TIP3    H157584   5.501   4.339  14.493  0.5831  0.1314  0.9082
12031TIP3    H257585   5.540   4.447  14.592 -0.8499  1.8148 -0.3206
12032TIP3   OH257586   3.722   2.297   4.575  0.0299  0.5028 -0.8670
12032TIP3    H157587   3.742   2.378   4.623 -1.5907 -0.0421  0.8353
12032TIP3    H257588   3.656   2.324   4.511 -0.4284  0.5646 -0.3758
12033TIP3   OH257589   3.866   0.920  16.586 -0.1785  0.4994 -0.1000
12033TIP3    H157590   3.935   0.972  16.544 -0.5092  0.3363 -0.8542
12033TIP3    H257591   3.854   0.960  16.672 -0.0270  1.3158 -0.4558
12034TIP3   OH257592   4.925   2.413   3.799 -0.5941 -0.1723  0.1117
12034TIP3    H157593   5.004   2.414   3.745 -0.1636 -0.1041  0.7348
12034TIP3    H257594   4.867   2.351   3.756 -0.2040 -0.2150 -0.3564
12035TIP3   OH257595   5.983   2.302  16.758 -0.3927 -0.3758  0.3119
12035TIP3    H157596   6.043   2.376  16.773 -0.4808 -0.4674  1.1323
12035TIP3    H257597   5.916   2.338  16.700  0.4084 -0.2486 -0.5390
12036TIP3   OH257598   6.673   2.493  16.084 -0.1080  0.0077 -0.0388
12036TIP3    H157599   6.653   2.536  16.000 -1.0633  2.4819  1.4170
12036TIP3    H257600   6.601   2.430  16.095  1.3862 -2.2022 -2.2606
12037TIP3   OH257601   4.444   2.929  16.549 -0.5810  0.0832  0.4667
12037TIP3    H157602   4.444   2.901  16.457 -0.6148 -1.8878  1.0373
12037TIP3    H257603   4.520   2.885  16.586  0.3754  2.1565  1.0328
12038TIP3   OH257604   2.018   0.510   5.264  0.5991  0.3400  0.3898
12038TIP3    H157605   1.971   0.550   5.191  1.1701  1.0520  0.4019
12038TIP3    H257606   1.962   0.525   5.340 -0.9687 -2.1778 -0.2087
12039TIP3   OH257607   0.546   5.700   4.677 -0.1600 -0.0015  0.2260
12039TIP3    H157608   0.452   5.715   4.669 -0.1074  0.1143 -0.1788
12039TIP3    H257609   0.558   5.607   4.657 -0.4469 -0.5351  2.4189
12040TIP3   OH257610   1.525   5.775  14.412 -0.5345  0.4482 -0.8096
12040TIP3    H157611   1.572   5.702  14.453  0.1917  0.5109 -1.4975
12040TIP3    H257612   1.510   5.838  14.482 -0.7348 -0.1547 -0.3126
12041TIP3   OH257613   0.680   0.753   2.475  0.7289  0.6893 -0.2225
12041TIP3    H157614   0.655   0.768   2.566  0.0939  1.7239 -0.5641
12041TIP3    H257615   0.609   0.700   2.439 -0.0870  2.1132 -0.7057
12042TIP3   OH257616   1.065   0.958   3.939  0.0391  0.9204  0.4005
12042TIP3    H157617   0.986   0.930   3.984  0.5896  0.3017  0.9866
12042TIP3    H257618   1.089   0.884   3.884 -0.2147  1.3961 -0.3599
12043TIP3   OH257619   1.060   0.165  12.988  0.0890  0.0312  1.1229
12043TIP3    H157620   1.044   0.125  13.073  0.4660 -2.1423  0.2226
12043TIP3    H257621   1.154   0.153  12.974 -0.3213 -1.5902 -0.5068
12044TIP3   OH257622   0.067   2.369   1.937 -0.0994  0.0723 -0.1303
12044TIP3    H157623   0.006   2.425   1.984  0.3330  0.3549  0.0956
12044TIP3    H257624   0.089   2.299   1.999 -0.1199  0.0207 -0.1801
12045TIP3   OH257625   5.613   2.297  13.635 -0.3382 -0.0670  0.0585
12045TIP3    H157626   5.545   2.350  13.594  0.3821  2.2969  1.8229
12045TIP3    H257627   5.689   2.307  13.579 -0.5538 -0.1998 -0.2558
12046TIP3   OH257628   0.964   2.869   1.780 -0.3293 -0.1425 -0.2347
12046TIP3    H157629   0.973   2.909   1.694 -0.3166  0.1039 -0.1198
12046TIP3    H257630   1.041   2.899   1.829  0.3658 -1.3714 -0.5636
12047TIP3   OH257631   4.739   3.743  11.386 -0.4812 -0.4457  0.1892
12047TIP3    H157632   4.797   3.706  11.452  1.5248 -0.8745 -1.7533
12047TIP3    H257633   4.728   3.674  11.321 -0.8612  0.5884 -0.8778
12048TIP3   OH257634   1.506   2.662   2.737 -0.4322 -0.2359  0.6200
12048TIP3    H157635   1.503   2.602   2.812  0.5948  0.6185  1.3533
12048TIP3    H257636   1.598   2.686   2.729 -0.3856 -0.9771 -1.4547
12049TIP3   OH257637   4.948   0.696   2.315  0.2184  0.0375  0.1349
12049TIP3    H157638   4.869   0.654   2.347  0.2718  0.3559  0.6777
12049TIP3    H257639   4.936   0.699   2.220 -0.5026  0.2603  0.2310
12050TIP3   OH257640   4.456   0.856  10.660 -0.3988  0.1561 -0.0247
12050TIP3    H157641   4.507   0.937  10.661 -0.5590  0.2675 -0.7381
12050TIP3    H257642   4.518   0.789  10.689 -0.3934  0.6040  1.0172
12051TIP3   OH257643   5.451   2.995   0.926 -0.2066  0.3574  0.0431
12051TIP3    H157644   5.432   3.040   1.008  1.4957  0.3046  0.4679
12051TIP3    H257645   5.364   2.973   0.890 -0.9506  0.0641  1.9881
12052TIP3   OH257646   6.054   3.872   3.622  0.4555 -0.5239 -0.5088
12052TIP3    H157647   5.986   3.921   3.576  1.1271 -1.9425 -3.0879
12052TIP3    H257648   6.134   3.921   3.606  0.6287 -0.8152 -0.5467
12053TIP3   OH257649   4.993   6.116  10.568  0.1326 -0.0511  0.0892
12053TIP3    H157650   5.050   6.183  10.606 -1.1794  1.3036 -0.2972
12053TIP3    H257651   4.923   6.103  10.632 -1.9433  2.0554 -1.6584
12054TIP3   OH257652   1.827   6.350  11.172  0.1054  0.0601 -0.7964
12054TIP3    H157653   1.819   6.419  11.106 -0.2012 -0.0858 -0.9149
12054TIP3    H257654   1.844   6.271  11.121 -0.0857 -0.0447 -0.6954
12055TIP3   OH257655   4.070   5.976  15.794  0.2544 -0.5700 -0.0474
12055TIP3    H157656   3.993   6.012  15.751 -0.6545 -0.8307  1.3205
12055TIP3    H257657   4.144   6.009  15.744 -0.7529 -0.2987 -1.3620
12056TIP3   OH257658   3.884   1.719  12.463 -0.6193 -0.4475 -0.1248
12056TIP3    H157659   3.845   1.761  12.540 -0.4622  0.4164 -0.5140
12056TIP3    H257660   3.929   1.642  12.498  0.3386  0.5154  0.7903
12057TIP3   OH257661   1.111   4.981  13.259 -0.2372  0.3820 -0.1956
12057TIP3    H157662   1.112   4.945  13.170  1.8429  1.0720 -0.4805
12057TIP3    H257663   1.034   4.942  13.300 -0.4753 -0.9748 -1.8851
12058TIP3   OH257664   5.140   5.423   4.032  0.7305 -0.2091  0.4408
12058TIP3    H157665   5.097   5.407   4.116 -0.2018  1.3807  0.2864
12058TIP3    H257666   5.142   5.338   3.989 -0.1280 -0.7481  1.4564
12059TIP3   OH257667   4.796   5.146  15.395  0.7089 -0.0788  0.6811
12059TIP3    H157668   4.788   5.190  15.311 -1.3086 -0.5944  0.5688
12059TIP3    H257669   4.784   5.216  15.460  0.7140  0.0616  0.5305
12060TIP3   OH257670   1.945   4.786  14.169  0.1484 -0.1459  0.0118
12060TIP3    H157671   2.011   4.723  14.142 -0.3961 -1.1697  1.0649
12060TIP3    H257672   1.903   4.813  14.087  1.4717  0.0754 -0.5965
12061TIP3   OH257673   5.510   1.007   0.146 -0.8703 -0.0352 -0.2050
12061TIP3    H157674   5.438   0.945   0.160 -1.3863  0.7631  0.7608
12061TIP3    H257675   5.513   1.058   0.227 -0.5680  1.3174 -1.0545
12062TIP3   OH257676   2.893   5.500   1.270 -0.7583  0.0053 -0.0001
12062TIP3    H157677   2.857   5.488   1.182 -0.9513  0.8748 -0.0389
12062TIP3    H257678   2.948   5.422   1.283 -0.2218  0.1689 -1.1412
12063TIP3   OH257679   2.504   6.515  15.845  0.2868  0.4579 -0.2191
12063TIP3    H157680   2.542   6.470  15.921  0.2770 -0.3603 -0.6945
12063TIP3    H257681   2.483   6.603  15.878 -0.3931 -0.1160  0.9352
12064TIP3   OH257682   2.823   0.816  14.294  0.1358 -0.2790 -0.1787
12064TIP3    H157683   2.875   0.885  14.334 -0.0594  1.0365 -2.1074
12064TIP3    H257684   2.739   0.819  14.340  0.5398 -0.0076  0.5378
12065TIP3   OH257685   4.129   3.394  12.841  0.2445  0.5329  0.3691
12065TIP3    H157686   4.146   3.315  12.790  1.6857 -0.1481  1.8416
12065TIP3    H257687   4.056   3.437  12.797  0.5772 -0.7351 -1.4446
12066TIP3   OH257688   3.312   3.805   5.207  0.6613 -0.3059 -0.1445
12066TIP3    H157689   3.346   3.803   5.118  1.3225  1.2112  0.0499
12066TIP3    H257690   3.390   3.791   5.262  0.3099 -0.9083  0.2084
12067TIP3   OH257691   4.103   2.310  15.111 -0.3251 -0.3420 -0.0002
12067TIP3    H157692   4.192   2.340  15.092  0.0962 -1.3571  0.2948
12067TIP3    H257693   4.114   2.249  15.184 -1.3980  0.3607  0.7668
12068TIP3   OH257694   3.829   2.389   3.475  0.3603 -0.4260  0.0312
12068TIP3    H157695   3.851   2.479   3.452  0.0793 -0.1121  0.9809
12068TIP3    H257696   3.905   2.338   3.446  0.6758  0.1618 -0.1842
12069TIP3   OH257697   5.146   3.525   3.201 -0.2130  0.1049  0.1880
12069TIP3    H157698   5.056   3.549   3.179 -0.5020 -0.9412  0.1766
12069TIP3    H257699   5.136   3.461   3.271  0.4350 -1.5735 -1.2233
12070TIP3   OH257700   1.341   0.055   3.460 -0.7173  0.0213 -0.0199
12070TIP3    H157701   1.317   0.013   3.543  0.4321 -0.6807 -0.0301
12070TIP3    H257702   1.376  -0.016   3.407  0.4675  0.8443 -0.3564
12071TIP3   OH257703   6.809   6.164   2.377  0.5556 -0.0813 -0.0505
12071TIP3    H157704   6.816   6.183   2.284  1.0330 -2.2169 -0.4947
12071TIP3    H257705   6.864   6.086   2.389 -0.7637 -0.7587  1.7094
12072TIP3   OH257706   5.138   0.832  16.812  0.3173  0.0702 -0.1846
12072TIP3    H157707   5.184   0.891  16.752 -0.2817  0.5604 -0.1699
12072TIP3    H257708   5.192   0.753  16.814  1.5555  0.9240  0.4274
12073TIP3   OH257709   5.080   1.476  14.552 -0.1812 -0.0522  0.1437
12073TIP3    H157710   5.063   1.534  14.626  1.0872 -1.5231  1.6176
12073TIP3    H257711   5.123   1.531  14.487  0.1425  0.8724  1.1377
12074TIP3   OH257712   4.442   0.599  11.187 -0.4110  0.4180 -0.0244
12074TIP3    H157713   4.444   0.503  11.178 -0.9525  0.4648 -0.6765
12074TIP3    H257714   4.514   0.629  11.131 -0.9256  0.4494 -0.6776
12075TIP3   OH257715   0.265   4.872  12.065  0.6723  0.2033 -0.0567
12075TIP3    H157716   0.274   4.791  12.015  0.5211  0.3230 -0.2845
12075TIP3    H257717   0.252   4.844  12.155 -2.4787 -0.1590 -0.5383
12076TIP3   OH257718   1.888   6.456   5.324 -0.1029  0.2839 -0.3078
12076TIP3    H157719   1.823   6.469   5.255  0.3060  0.9866 -0.5642
12076TIP3    H257720   1.929   6.542   5.335 -0.8639  0.4583  1.5216
12077TIP3   OH257721   0.329   5.358  16.207 -0.1296  0.3710 -0.4416
12077TIP3    H157722   0.351   5.267  16.227  1.5287  0.9661  0.5433
12077TIP3    H257723   0.413   5.404  16.205 -1.0119  2.0700  0.0580
12078TIP3   OH257724   5.792   3.983  11.297 -0.2795 -0.1673  0.1832
12078TIP3    H157725   5.839   3.969  11.379  1.6393 -0.4825 -0.9217
12078TIP3    H257726   5.819   4.070  11.268 -0.5216 -0.2701 -0.3664
12079TIP3   OH257727   6.650   3.127   3.145 -0.8151  0.0515 -0.7469
12079TIP3    H157728   6.585   3.197   3.137 -0.6060  0.0407 -2.7759
12079TIP3    H257729   6.598   3.047   3.157 -1.1621  0.1780 -1.3707
12080TIP3   OH257730   4.187   6.652  13.160 -0.5844 -0.1907 -0.1978
12080TIP3    H157731   4.138   6.634  13.240 -2.9130  2.6191 -0.9085
12080TIP3    H257732   4.131   6.712  13.111  1.5095 -0.6021 -3.2226
12081TIP3   OH257733   6.533   3.837   1.254  0.2553 -0.0009 -0.2323
12081TIP3    H157734   6.572   3.814   1.339  4.0055  1.5430 -1.4406
12081TIP3    H257735   6.595   3.804   1.189 -0.7550  1.9476 -2.2707
12082TIP3   OH257736   2.362   3.674   0.069 -0.3254 -0.5053 -0.6865
12082TIP3    H157737   2.354   3.604   0.134  3.3448  0.3181  0.7665
12082TIP3    H257738   2.450   3.663   0.034 -0.2201  2.5413 -1.4737
12083TIP3   OH257739   3.305   0.146  15.072 -0.2550  0.4031 -0.4375
12083TIP3    H157740   3.368   0.129  15.142 -1.4885 -0.8587  0.3986
12083TIP3    H257741   3.254   0.221  15.103  1.2594  1.8579 -1.4180
12084TIP3   OH257742   6.335   5.870  16.162 -0.0778  0.8216  0.3315
12084TIP3    H157743   6.331   5.918  16.080  0.3680 -0.6852 -0.5785
12084TIP3    H257744   6.302   5.783  16.141  0.5973  0.2466  1.6158
12085TIP3   OH257745   4.088   0.861  11.421  0.3560 -0.2100 -0.6955
12085TIP3    H157746   4.133   0.827  11.344  0.0881  1.2148 -1.4951
12085TIP3    H257747   4.002   0.819  11.420 -0.2774  1.0641 -2.1297
12086TIP3   OH257748   0.150   4.939   1.140  0.7329 -0.4473 -0.3043
12086TIP3    H157749   0.108   4.941   1.225  0.0791 -1.5183 -0.5956
12086TIP3    H257750   0.241   4.965   1.157 -0.0930  2.3014  0.2634
12087TIP3   OH257751   2.545   0.273   4.498 -0.0536  0.1285  0.2626
12087TIP3    H157752   2.599   0.306   4.570 -0.3766 -2.6274  1.8527
12087TIP3    H257753   2.457   0.271   4.534 -0.3273 -0.6330 -0.4452
12088TIP3   OH257754   6.754   0.932   3.741 -0.0514  0.3742  0.1896
12088TIP3    H157755   6.828   0.876   3.717 -0.2654  0.6546 -1.1837
12088TIP3    H257756   6.793   1.002   3.793  0.7635  0.8928 -1.1032
12089TIP3   OH257757   0.744   1.703   4.173 -0.8806 -0.3349 -0.1663
12089TIP3    H157758   0.762   1.609   4.168  0.7507 -0.0572  0.0969
12089TIP3    H257759   0.800   1.734   4.245 -2.2430  0.6478  0.4967
12090TIP3   OH257760   3.651   6.177  16.670  0.0244  0.1087 -0.0210
12090TIP3    H157761   3.598   6.097  16.680 -0.4564  0.4177 -0.0720
12090TIP3    H257762   3.730   6.148  16.626 -0.5765 -0.1803 -0.9316
12091TIP3   OH257763   3.446   0.605  12.650  0.0248  0.2813  0.0920
12091TIP3    H157764   3.494   0.685  12.631  0.4876  0.5248  2.1843
12091TIP3    H257765   3.354   0.631  12.646  0.1894  1.0773  1.4335
12092TIP3   OH257766   0.902   0.635   1.284 -0.1156 -0.1243 -0.2179
12092TIP3    H157767   0.825   0.622   1.229 -0.2510 -0.3127  0.0128
12092TIP3    H257768   0.867   0.664   1.368  0.1517  1.0393 -0.5095
12093TIP3   OH257769   0.449   4.222  15.284 -0.1402 -0.3700 -0.2664
12093TIP3    H157770   0.519   4.168  15.246  0.4882 -0.3369  0.8367
12093TIP3    H257771   0.445   4.195  15.375 -0.3478  0.8992  0.1066
12094TIP3   OH257772   2.926   4.222   2.454  0.4306  0.6506  0.0612
12094TIP3    H157773   2.855   4.284   2.435  1.2313  1.5768  0.0263
12094TIP3    H257774   2.917   4.204   2.547  0.2573  0.9095  0.0964
12095TIP3   OH257775   4.853   4.482   2.306 -0.1409 -0.2469 -0.0545
12095TIP3    H157776   4.917   4.523   2.365 -2.0034 -0.5418  2.2542
12095TIP3    H257777   4.778   4.463   2.362 -2.4297  0.4322 -2.7892
12096TIP3   OH257778   0.381   1.801  16.912 -0.3333  0.3933 -0.5756
12096TIP3    H157779   0.327   1.738  16.960 -1.9847  1.0270 -1.5614
12096TIP3    H257780   0.397   1.872  16.973 -0.9037  0.3653 -0.3978
12097TIP3   OH257781   4.864   2.262   4.536  0.0732  0.5515  0.2259
12097TIP3    H157782   4.819   2.188   4.495  0.0075  0.3804  0.6092
12097TIP3    H257783   4.874   2.237   4.628 -0.7623  1.3956  0.5616
12098TIP3   OH257784   3.378   0.565   3.801 -0.1760  0.0446  0.0730
12098TIP3    H157785   3.353   0.527   3.885 -2.1279 -0.5389 -0.7448
12098TIP3    H257786   3.425   0.495   3.756 -0.8536 -0.2882 -0.1110
12099TIP3   OH257787   0.225   6.050   1.300  1.1475  0.4499  0.3618
12099TIP3    H157788   0.248   6.067   1.209 -0.1428 -1.8076 -0.4138
12099TIP3    H257789   0.256   5.961   1.316  1.1439  0.7386  2.0685
12100TIP3   OH257790   4.588   6.127  12.568 -0.2123 -0.3415  0.2597
12100TIP3    H157791   4.510   6.094  12.613  0.5143 -1.3512  0.8021
12100TIP3    H257792   4.661   6.092  12.619  0.5953  2.4181  1.0704
12101TIP3   OH257793   3.657   4.044  12.336  0.0210 -0.3244  0.3271
12101TIP3    H157794   3.629   4.055  12.426  1.6345 -1.3348  0.9733
12101TIP3    H257795   3.694   3.956  12.332  1.4348  0.2909 -0.9094
12102TIP3   OH257796   1.639   6.427   4.746 -0.7121 -0.1786  0.7239
12102TIP3    H157797   1.597   6.433   4.660  0.5007  0.1526  0.1438
12102TIP3    H257798   1.630   6.335   4.770 -2.7987  0.1200  1.1433
12103TIP3   OH257799   1.167   4.628  12.535 -0.1211  0.6072  0.2560
12103TIP3    H157800   1.169   4.566  12.462  1.4025  0.1257  0.6928
12103TIP3    H257801   1.217   4.585  12.604 -1.2320  1.2243  1.4645
12104TIP3   OH257802   3.678   3.782  13.857 -0.2351  0.2007  0.4274
12104TIP3    H157803   3.663   3.833  13.937  1.0105  1.4581 -0.1218
12104TIP3    H257804   3.595   3.788  13.809  0.5713  3.6138 -0.6667
12105TIP3   OH257805   3.784   1.098   5.205 -0.4020 -0.1215 -0.0865
12105TIP3    H157806   3.766   1.191   5.193 -2.5037 -0.2874  1.4665
12105TIP3    H257807   3.759   1.057   5.122  0.9581  0.7395 -0.9308
12106TIP3   OH257808   2.805   0.806  17.073  0.5630  0.0467  0.5445
12106TIP3    H157809   2.754   0.877  17.113 -0.4073  0.9393 -2.1542
12106TIP3    H257810   2.760   0.727  17.101 -1.4053  0.7558 -0.4905
12107TIP3   OH257811   4.355   0.581   0.523 -0.5713  0.7374 -0.2810
12107TIP3    H157812   4.282   0.631   0.561  0.8781  3.2536 -0.7034
12107TIP3    H257813   4.389   0.638   0.454  1.0935 -0.9068 -0.8473
12108TIP3   OH257814   0.150   5.881   3.571 -0.1454 -0.2974 -0.2205
12108TIP3    H157815   0.183   5.970   3.581 -0.0347 -0.5950  2.3679
12108TIP3    H257816   0.071   5.879   3.625 -0.0961 -1.8059 -0.2026
12109TIP3   OH257817   4.105   4.665  12.990  0.1875 -0.3615  0.7496
12109TIP3    H157818   4.097   4.602  13.061 -0.1779  0.4004  1.3952
12109TIP3    H257819   4.189   4.644  12.948  0.2023 -1.0812  1.1426
12110TIP3   OH257820   4.154   3.304  13.816  0.3444 -0.2329  0.1776
12110TIP3    H157821   4.233   3.253  13.803 -0.9619 -2.3155  0.1561
12110TIP3    H257822   4.120   3.319  13.728 -0.2147 -0.8769  0.2782
12111TIP3   OH257823   4.420   5.806   5.361  0.1643 -0.3801  0.4793
12111TIP3    H157824   4.487   5.768   5.418  0.2303  0.4166  0.9366
12111TIP3    H257825   4.369   5.731   5.332 -0.1275 -0.7577  1.9263
12112TIP3   OH257826   2.522   2.817   3.823 -0.6764 -0.2529  0.0190
12112TIP3    H157827   2.491   2.836   3.912 -0.2794 -0.8726  0.2873
12112TIP3    H257828   2.613   2.848   3.822 -0.4438 -0.9422  0.0555
12113TIP3   OH257829   4.260   2.791   4.584 -0.2574 -0.4085 -0.0062
12113TIP3    H157830   4.324   2.773   4.653  0.5933  0.6756 -0.4900
12113TIP3    H257831   4.277   2.724   4.518  0.8978  0.3186 -0.4665
12114TIP3   OH257832   5.272   4.745   0.335 -0.2429 -0.0915 -0.4342
12114TIP3    H157833   5.281   4.805   0.409  1.6934 -0.8808  0.0136
12114TIP3    H257834   5.242   4.800   0.262  1.9322  1.5469 -0.1525
12115TIP3   OH257835   5.823   6.259  12.015  0.2166  0.1937  0.3546
12115TIP3    H157836   5.814   6.181  12.069  1.5293  0.5075  1.0414
12115TIP3    H257837   5.781   6.329  12.065  0.3511  0.2323  0.4142
12116TIP3   OH257838   1.887   6.764   1.370 -0.6886  0.1970 -0.1155
12116TIP3    H157839   1.791   6.767   1.367 -0.6919 -1.1725 -3.4734
12116TIP3    H257840   1.907   6.713   1.449 -2.6757  1.2434  1.1020
12117TIP3   OH257841   4.055   3.474  11.064  0.2801  0.0801 -0.0149
12117TIP3    H157842   4.009   3.473  10.980  0.5186  3.4602 -0.2580
12117TIP3    H257843   4.147   3.459  11.042  0.3553  1.0642 -0.3731
12118TIP3   OH257844   0.650   4.804  13.321  0.1341  0.2505 -0.7908
12118TIP3    H157845   0.571   4.785  13.271 -0.9883  1.3218  0.5180
12118TIP3    H257846   0.706   4.853  13.261 -0.4225 -0.0550 -1.5612
12119TIP3   OH257847   0.300   4.159   5.831 -0.5234 -0.4878  0.0931
12119TIP3    H157848   0.340   4.163   5.918 -1.3772 -1.5257  0.5408
12119TIP3    H257849   0.207   4.144   5.849 -0.6927 -0.7438 -1.0070
12120TIP3   OH257850   4.121   0.266   3.815 -0.5099 -0.3169  0.6274
12120TIP3    H157851   4.041   0.305   3.848 -0.0323 -0.8355  2.4761
12120TIP3    H257852   4.143   0.317   3.737 -1.4495  1.2228  1.3515
12121TIP3   OH257853   5.054   1.400   0.138 -0.4158  0.0666 -0.1499
12121TIP3    H157854   5.034   1.479   0.087  1.6471  1.1040  0.6022
12121TIP3    H257855   5.023   1.421   0.226  1.9559  0.8601  0.5271
12122TIP3   OH257856   3.994   2.483  11.905  0.1034 -0.5196  0.3052
12122TIP3    H157857   3.966   2.446  11.989  1.6769 -2.2535  0.1021
12122TIP3    H257858   3.955   2.570  11.903 -2.0997 -1.4143  1.6866
12123TIP3   OH257859   4.942   0.071   0.381  0.0290  0.7034 -0.1645
12123TIP3    H157860   5.013   0.021   0.421  0.7769  1.5700 -0.3933
12123TIP3    H257861   4.877   0.080   0.451  0.4710  0.5373  0.2673
12124TIP3   OH257862   4.460   1.780   5.055 -0.2245 -0.9386 -0.8150
12124TIP3    H157863   4.506   1.837   4.994 -2.1883  0.7914 -0.7074
12124TIP3    H257864   4.368   1.805   5.048 -0.3468  0.5519  4.1074
12125TIP3   OH257865   2.026   4.554   1.854  0.2871 -0.2447  0.3514
12125TIP3    H157866   2.119   4.545   1.832  0.2336 -0.1530  0.0837
12125TIP3    H257867   2.018   4.644   1.885  0.0109  0.2230 -1.0276
12126TIP3   OH257868   0.670   4.214  13.444 -0.3922 -0.1288 -0.4974
12126TIP3    H157869   0.741   4.267  13.480 -1.3594  0.4455  0.5830
12126TIP3    H257870   0.606   4.208  13.515 -0.7133 -1.9928 -0.9032
12127TIP3   OH257871   6.703   1.038   4.657 -0.1187 -0.1312  0.3582
12127TIP3    H157872   6.681   0.983   4.732 -3.5251  0.6021 -0.0294
12127TIP3    H257873   6.714   1.126   4.694  1.4102 -0.3366  0.4230
12128TIP3   OH257874   6.661   4.092  16.000  0.0641  0.2920 -0.0743
12128TIP3    H157875   6.604   4.051  15.935  3.0007  0.0191 -2.6021
12128TIP3    H257876   6.629   4.181  16.008 -1.1061 -0.0334 -0.9382
12129TIP3   OH257877   5.314   1.239  16.840  0.4347  0.2221 -0.3352
12129TIP3    H157878   5.374   1.305  16.807 -0.1034  0.8447 -0.0829
12129TIP3    H257879   5.269   1.205  16.763 -0.1474  1.0063 -0.3460
12130TIP3   OH257880   4.372   0.736  14.946  0.2264 -0.4612  0.0903
12130TIP3    H157881   4.310   0.666  14.926  1.5304 -1.8288  0.6920
12130TIP3    H257882   4.337   0.776  15.025  0.3725 -1.5687  0.7333
12131TIP3   OH257883   3.656   6.110  13.029  0.2128  0.1975 -0.4349
12131TIP3    H157884   3.747   6.129  13.053 -0.1836  0.2356  1.0822
12131TIP3    H257885   3.608   6.188  13.056 -0.6080 -0.7432  0.8523
12132TIP3   OH257886   2.085   4.530  13.258 -0.1669 -0.5245  0.1104
12132TIP3    H157887   2.117   4.616  13.285 -0.5256 -0.2332 -0.3872
12132TIP3    H257888   2.006   4.517  13.310 -0.7078 -0.0821 -0.5997
12133TIP3   OH257889   0.135   2.767  13.305 -0.3054  0.3076 -0.0375
12133TIP3    H157890   0.160   2.793  13.216 -2.4952  0.3699 -0.6838
12133TIP3    H257891   0.103   2.677  13.296 -2.2155  0.9138  0.3091
12134TIP3   OH257892   2.046   4.832   4.609  0.1458 -0.0839  0.1226
12134TIP3    H157893   2.080   4.852   4.696  0.9229  0.9696 -0.4053
12134TIP3    H257894   1.982   4.901   4.591 -0.1342 -0.3904 -0.0705
12135TIP3   OH257895   5.480   3.469  17.203 -0.6830  0.2163 -0.2177
12135TIP3    H157896   5.424   3.479  17.280  0.0896  0.3226  0.3392
12135TIP3    H257897   5.534   3.392  17.222 -2.1116 -1.1722 -1.6761
12136TIP3   OH257898   5.603   5.153  16.696 -0.0651  0.8894 -0.3806
12136TIP3    H157899   5.620   5.222  16.631  0.6821  1.0557 -0.0180
12136TIP3    H257900   5.573   5.078  16.644 -0.6535  1.4024 -0.8057
12137TIP3   OH257901   5.352   6.350   1.673 -0.2224 -0.3009  0.0130
12137TIP3    H157902   5.270   6.305   1.693 -0.5722  0.6582  0.7677
12137TIP3    H257903   5.338   6.386   1.585 -1.0376  0.8111  0.5856
12138TIP3   OH257904   0.575   4.323  17.204 -0.4860 -0.5629 -0.1213
12138TIP3    H157905   0.489   4.295  17.238 -1.1030  1.2931 -0.1062
12138TIP3    H257906   0.635   4.255  17.234 -1.7077 -1.1246  1.1561
12139TIP3   OH257907   0.901   6.554  12.565  0.2635  0.1253  0.5544
12139TIP3    H157908   0.897   6.464  12.533  2.1790  0.0160  0.5734
12139TIP3    H257909   0.925   6.546  12.657 -2.8632  0.5460  1.4613
12140TIP3   OH257910   0.035   3.502  11.498 -0.0970  0.5447 -0.5190
12140TIP3    H157911   0.126   3.528  11.488  0.1512 -0.2143 -0.2886
12140TIP3    H257912  -0.014   3.584  11.501  0.3649  0.9163 -2.6796
12141TIP3   OH257913   2.531   1.343  17.271  0.1842 -0.5893 -0.2563
12141TIP3    H157914   2.523   1.293  17.190  1.3136  1.3920 -1.6466
12141TIP3    H257915   2.445   1.339  17.311  0.1178 -3.1735 -0.5996
12142TIP3   OH257916   2.756   4.049  14.747 -0.3322  0.5739 -0.0426
12142TIP3    H157917   2.805   4.123  14.710  0.9285 -0.8692 -1.3398
12142TIP3    H257918   2.795   4.035  14.833  1.2343 -0.2262 -0.8537
12143TIP3   OH257919   4.294   6.659  15.084 -0.0957 -0.2789  0.0798
12143TIP3    H157920   4.276   6.600  15.011 -2.0883  1.4660 -0.8901
12143TIP3    H257921   4.376   6.702  15.062  0.6476 -1.6442  0.1300
12144TIP3   OH257922   4.221   4.758  16.822 -0.4519  0.5512 -0.0962
12144TIP3    H157923   4.298   4.743  16.878 -0.0637  3.0352  0.1067
12144TIP3    H257924   4.160   4.690  16.847  1.5615 -1.2852 -0.0153
12145TIP3   OH257925   5.778   1.069   2.953 -0.1160  0.1828  0.5812
12145TIP3    H157926   5.870   1.095   2.949 -0.0945  0.2513  1.3868
12145TIP3    H257927   5.735   1.120   2.885  0.3624  0.4837  0.5032
12146TIP3   OH257928   2.026   2.487   0.821 -0.7344 -0.5915 -0.2571
12146TIP3    H157929   2.022   2.438   0.903  0.6109  0.2577  0.3352
12146TIP3    H257930   2.104   2.454   0.776 -0.7563 -0.1624 -0.6129
12147TIP3   OH257931   6.183   2.221  10.999 -0.2103 -0.3127 -0.4267
12147TIP3    H157932   6.106   2.192  11.048  0.2678 -0.3691  0.3018
12147TIP3    H257933   6.157   2.214  10.907 -2.0843  2.4203 -0.1706
12148TIP3   OH257934   3.189   0.201   3.358 -0.2070 -0.4808  0.2102
12148TIP3    H157935   3.165   0.109   3.346  1.2567 -0.8296 -0.0957
12148TIP3    H257936   3.248   0.220   3.286 -0.6108  0.7549  0.1896
12149TIP3   OH257937   5.210   5.663   4.591 -0.3699  0.2177 -0.4801
12149TIP3    H157938   5.287   5.647   4.537  0.5281 -2.8857  1.5817
12149TIP3    H257939   5.166   5.578   4.597 -1.9362  1.1112  1.3653
12150TIP3   OH257940   6.506   1.468   5.512  0.3873  0.0291  1.1071
12150TIP3    H157941   6.451   1.443   5.587  0.6647 -1.5566  0.8110
12150TIP3    H257942   6.450   1.451   5.436  0.6528  0.1287  0.8928
12151TIP3   OH257943   6.045   1.262  11.032  0.2936 -0.0367 -0.1099
12151TIP3    H157944   6.033   1.323  10.959  0.7665 -1.3184 -1.2916
12151TIP3    H257945   6.121   1.297  11.079  0.8880  0.0067 -1.0813
12152TIP3   OH257946   3.474   5.326  11.769  0.0271  0.0511 -0.0497
12152TIP3    H157947   3.411   5.311  11.840  0.2693 -0.4883  0.0569
12152TIP3    H257948   3.430   5.292  11.691  0.5349 -1.1466  0.1746
12153TIP3   OH257949   5.094   4.857   0.762 -0.2893 -0.4620  0.6982
12153TIP3    H157950   5.014   4.813   0.792 -1.7078  1.6312  0.1059
12153TIP3    H257951   5.063   4.934   0.714  2.0800  0.0504 -0.0960
12154TIP3   OH257952   3.609   2.264  15.269  0.1195 -0.3861  0.5848
12154TIP3    H157953   3.519   2.277  15.239  0.0631 -1.4314  0.2829
12154TIP3    H257954   3.659   2.333  15.226 -0.2293 -0.9297 -0.7283
12155TIP3   OH257955   5.466   2.669   4.474  0.0139  0.0558 -0.0059
12155TIP3    H157956   5.436   2.665   4.565 -2.7084  1.4993 -0.7798
12155TIP3    H257957   5.477   2.577   4.448 -0.7534 -0.4177  1.3163
12156TIP3   OH257958   6.801   6.514  14.428  0.4600 -0.1713 -0.2469
12156TIP3    H157959   6.786   6.577  14.499 -0.4094  0.0271 -0.5929
12156TIP3    H257960   6.722   6.520  14.374  1.0200 -0.4799 -1.1127
12157TIP3   OH257961   0.298   3.382   0.275  0.1113 -0.0915 -0.6626
12157TIP3    H157962   0.271   3.448   0.211  0.9749  1.7916  0.8385
12157TIP3    H257963   0.392   3.374   0.262  0.0976 -0.5803 -0.4443
12158TIP3   OH257964   2.798   5.404  11.776  0.3427  0.1810  0.0955
12158TIP3    H157965   2.837   5.384  11.861 -0.1700 -1.4232 -0.0227
12158TIP3    H257966   2.856   5.363  11.712  0.8882  1.6337 -0.3512
12159TIP3   OH257967   3.108   4.880  13.346  0.1125 -0.3315 -0.0892
12159TIP3    H157968   3.137   4.953  13.291 -0.0255 -1.5007 -1.7304
12159TIP3    H257969   3.096   4.807  13.285 -1.0776 -1.3504  1.3405
12160TIP3   OH257970   5.140   0.609  16.061  0.5630 -0.2942  0.2953
12160TIP3    H157971   5.174   0.547  15.996 -1.8825 -1.1901 -0.1849
12160TIP3    H257972   5.131   0.691  16.013 -0.3307 -0.7135 -0.2789
12161TIP3   OH257973   2.816   0.157  14.533 -0.2238  0.2512 -0.4404
12161TIP3    H157974   2.807   0.087  14.598 -0.4163 -0.0059 -0.7453
12161TIP3    H257975   2.905   0.191  14.547 -0.1985  0.0753 -0.1655
12162TIP3   OH257976   5.020   0.785   1.054  0.7080  0.0408 -0.3695
12162TIP3    H157977   4.961   0.857   1.076  0.2085  0.3995 -2.7327
12162TIP3    H257978   4.967   0.726   1.000  2.0796 -0.4029 -1.2676
12163TIP3   OH257979   3.650   1.228  10.960 -0.1794 -0.3798  0.3668
12163TIP3    H157980   3.614   1.192  10.879  0.1160  0.8277 -0.3146
12163TIP3    H257981   3.646   1.156  11.022 -1.1982 -1.0761 -0.4833
12164TIP3   OH257982   3.989   3.868  13.393 -0.3243 -0.2651 -0.4706
12164TIP3    H157983   4.067   3.824  13.361  0.0867 -0.1941  0.4370
12164TIP3    H257984   3.918   3.805  13.378 -0.2982  0.1385 -2.3998
12165TIP3   OH257985   3.589   4.427  15.739 -0.1954 -0.0578  0.3886
12165TIP3    H157986   3.675   4.420  15.699 -0.0818 -0.2591  0.6704
12165TIP3    H257987   3.567   4.338  15.766 -0.6919 -0.0875 -0.1020
12166TIP3   OH257988   2.017   0.820   3.661  0.5041 -0.0293  0.1828
12166TIP3    H157989   1.941   0.818   3.603  0.4230 -1.2239  0.3141
12166TIP3    H257990   2.021   0.910   3.693  0.3021  0.5257 -1.3452
12167TIP3   OH257991   4.614   0.435   4.114 -0.1773 -0.1435 -0.0151
12167TIP3    H157992   4.519   0.427   4.121 -0.3387  0.8273 -0.8847
12167TIP3    H257993   4.644   0.452   4.203 -0.8239 -0.3859  0.2493
12168TIP3   OH257994   5.776   3.579   4.618  0.5759 -0.0529 -0.1712
12168TIP3    H157995   5.804   3.517   4.551  2.3975 -0.9431  1.3629
12168TIP3    H257996   5.743   3.655   4.569  1.7869 -0.7141 -2.0640
12169TIP3   OH257997   3.181   5.784   1.036  0.1935 -0.3252  0.8414
12169TIP3    H157998   3.252   5.772   1.098  0.3328  1.3477  1.0215
12169TIP3    H257999   3.221   5.769   0.950  0.6380  0.1541  0.9708
12170TIP3   OH258000   0.087   6.470  16.024  0.3095  0.0147 -0.3800
12170TIP3    H158001   0.098   6.467  15.929  1.0674  0.7336 -0.3255
12170TIP3    H258002   0.119   6.386  16.054 -3.4840 -1.7634 -1.0740
12171TIP3   OH258003   3.995   1.809   0.719 -0.3597 -0.4013 -0.2830
12171TIP3    H158004   3.912   1.803   0.672 -0.0499 -1.5378 -0.7107
12171TIP3    H258005   4.004   1.901   0.743 -0.8340  0.0632 -1.8975
12172TIP3   OH258006   3.643   4.541  11.521  0.0719 -0.1607 -0.2465
12172TIP3    H158007   3.685   4.457  11.542  1.4253  0.5773  0.0907
12172TIP3    H258008   3.642   4.544  11.425  1.2615  0.0282 -0.2606
12173TIP3   OH258009   4.395   4.924  14.038  0.7501  0.4744 -0.7259
12173TIP3    H158010   4.330   4.890  13.976  0.1751  0.6184 -0.1966
12173TIP3    H258011   4.452   4.849  14.055  1.3767  0.6307 -2.0208
12174TIP3   OH258012   6.634   6.392   1.763  0.1207  0.4571  0.2231
12174TIP3    H158013   6.715   6.341   1.766  0.7477  1.4510  0.2053
12174TIP3    H258014   6.578   6.345   1.701  0.6388 -0.2987  0.3281
12175TIP3   OH258015   4.501   2.150   2.836 -0.1687  0.4955  0.2191
12175TIP3    H158016   4.520   2.183   2.924 -3.3629 -0.0066  1.1656
12175TIP3    H258017   4.460   2.065   2.851 -0.5957  0.3290 -1.7708
12176TIP3   OH258018   3.333   2.177  14.429 -0.0703  0.4407 -0.3508
12176TIP3    H158019   3.402   2.142  14.372 -0.9446 -0.3675 -0.9164
12176TIP3    H258020   3.348   2.272  14.430  0.2833  0.3971 -1.4821
12177TIP3   OH258021   4.405   4.388   4.914  0.1832 -0.0318 -0.7269
12177TIP3    H158022   4.390   4.346   4.830  0.2768 -0.0545 -0.7328
12177TIP3    H258023   4.400   4.317   4.978  0.6582 -0.1060 -0.7678
12178TIP3   OH258024   5.992   3.389   0.921 -1.0150 -0.1170  0.7395
12178TIP3    H158025   6.008   3.461   0.981 -1.7680  0.6482  0.0350
12178TIP3    H258026   5.934   3.425   0.855 -1.1039 -1.2683  0.1710
12179TIP3   OH258027   2.380   5.886   1.731 -0.4473 -0.1702 -0.0082
12179TIP3    H158028   2.377   5.946   1.657 -0.6737 -2.6688 -2.0728
12179TIP3    H258029   2.473   5.880   1.753  0.0091 -1.9702 -2.2661
12180TIP3   OH258030   4.525   3.653  13.178  0.5676 -0.4960  0.0931
12180TIP3    H158031   4.443   3.612  13.205 -0.3538 -0.0726 -1.9728
12180TIP3    H258032   4.539   3.723  13.241  0.0987 -1.4812  1.3094
12181TIP3   OH258033   5.980   3.718  11.116  0.2503 -0.5366  0.7784
12181TIP3    H158034   6.048   3.678  11.060 -1.5443 -1.8188 -0.5364
12181TIP3    H258035   6.018   3.802  11.143  1.1465  0.1741 -2.4531
12182TIP3   OH258036   5.737   4.194  17.250  0.2062 -0.0517  0.7737
12182TIP3    H158037   5.671   4.124  17.246  0.7205 -0.6347  2.2084
12182TIP3    H258038   5.687   4.275  17.243 -0.5496 -0.5227  0.6799
12183TIP3   OH258039   5.406   3.676   1.627  0.2955 -0.6341  0.0325
12183TIP3    H158040   5.457   3.690   1.706 -2.4356  2.0399  1.4108
12183TIP3    H258041   5.400   3.581   1.618  1.5589 -0.9641  2.4302
12184TIP3   OH258042   6.098   5.560   3.883  0.4467  0.0591  0.6764
12184TIP3    H158043   6.004   5.568   3.897  0.4989  1.3947  0.3487
12184TIP3    H258044   6.109   5.565   3.788  0.7915 -0.6707  0.6788
12185TIP3   OH258045   5.173   4.207   5.044  0.6787  0.3732  0.0364
12185TIP3    H158046   5.250   4.200   5.101  0.1068  0.4119  0.8100
12185TIP3    H258047   5.198   4.159   4.965  0.6096 -1.6843  1.2214
12186TIP3   OH258048   3.083   3.229  16.197  0.5586  0.0081 -0.3558
12186TIP3    H158049   3.020   3.224  16.126  1.4119 -0.4745 -1.0848
12186TIP3    H258050   3.057   3.161  16.258 -0.7118  1.0080  0.2426
12187TIP3   OH258051   2.003   0.519  14.063  0.1540 -0.0551 -0.2234
12187TIP3    H158052   2.089   0.507  14.022  1.5716 -0.0125  2.5992
12187TIP3    H258053   1.979   0.432  14.095  0.0339  0.2927  0.6508
12188TIP3   OH258054   3.213   1.769  14.891 -0.1172  0.2205  0.3013
12188TIP3    H158055   3.222   1.687  14.843  0.4550  0.8749 -0.7255
12188TIP3    H258056   3.267   1.832  14.842 -0.4371  1.1732  1.1520
12189TIP3   OH258057   6.590   2.083  12.631  0.5905 -0.2098  0.6345
12189TIP3    H158058   6.522   2.016  12.624  2.0430 -1.7964  1.1508
12189TIP3    H258059   6.640   2.074  12.550  0.1975  0.9417  0.2619
12190TIP3   OH258060   3.635   3.254   2.061  0.1252  0.2747 -0.6212
12190TIP3    H158061   3.682   3.173   2.045  0.1712  0.5245 -1.7940
12190TIP3    H258062   3.697   3.310   2.108 -0.2141 -0.6920  1.0030
12191TIP3   OH258063   2.154   1.374   0.626  0.6662  1.1560 -0.5673
12191TIP3    H158064   2.113   1.369   0.539 -0.3134  0.5428 -0.0755
12191TIP3    H258065   2.081   1.381   0.687  1.3197  0.6887  0.2839
12192TIP3   OH258066   5.001   4.261  12.401 -0.1102  0.1349  0.1124
12192TIP3    H158067   5.065   4.320  12.442  0.7660 -1.4144  1.0436
12192TIP3    H258068   4.917   4.303  12.417  0.6357  2.0679 -0.8765
12193TIP3   OH258069   4.262   2.283  14.675 -0.3720  0.0450  0.0394
12193TIP3    H158070   4.298   2.252  14.758 -1.1538 -0.9592  0.0056
12193TIP3    H258071   4.216   2.364  14.697 -2.1615 -1.1942  0.9134
12194TIP3   OH258072   5.980   0.939  14.279 -0.0046 -0.2655  0.2136
12194TIP3    H158073   5.945   0.889  14.352  0.0584 -0.4204  0.1391
12194TIP3    H258074   5.971   0.881  14.203 -0.3490  0.0077  0.0438
12195TIP3   OH258075   3.264   2.225  12.352 -0.1024 -0.3502  0.4122
12195TIP3    H158076   3.187   2.262  12.309 -1.0352 -2.5453  0.1323
12195TIP3    H258077   3.286   2.147  12.301  2.4141  0.3131  0.4060
12196TIP3   OH258078   4.351   2.717   2.182 -0.4493  0.1140 -0.0402
12196TIP3    H158079   4.368   2.655   2.253 -0.8217 -0.4907 -0.4752
12196TIP3    H258080   4.380   2.672   2.103 -1.4100  0.1992 -0.4472
12197TIP3   OH258081   5.621   2.456  15.220 -0.1060 -0.2667  0.0005
12197TIP3    H158082   5.553   2.467  15.287 -0.3413  0.0894 -0.2902
12197TIP3    H258083   5.581   2.397  15.156  0.7999 -2.0802  1.0848
12198TIP3   OH258084   1.297   6.594  16.278  0.2239  0.1492 -0.5574
12198TIP3    H158085   1.206   6.576  16.305 -0.9059  1.5869 -3.2327
12198TIP3    H258086   1.311   6.537  16.202  1.7405 -0.3650  0.0825
12199TIP3   OH258087   4.210   5.255   5.000  0.1456 -0.8276  0.1192
12199TIP3    H158088   4.271   5.267   5.073  0.3977 -0.7840 -0.0984
12199TIP3    H258089   4.265   5.235   4.925 -0.0151  0.4485 -0.3540
12200TIP3   OH258090   4.963   1.320   4.807 -0.1162  0.3152 -0.1111
12200TIP3    H158091   4.874   1.284   4.805 -0.0260  0.1062 -0.3479
12200TIP3    H258092   4.989   1.324   4.715  0.1217  0.3764 -0.0412
12201TIP3   OH258093   4.267   2.444   2.460 -0.6334  0.1192 -0.0559
12201TIP3    H158094   4.196   2.380   2.450 -1.6218  1.3633 -1.2064
12201TIP3    H258095   4.322   2.408   2.530 -1.9056 -1.3146  0.2412
12202TIP3   OH258096   2.993   5.501   5.254 -0.6075  0.0781  0.4101
12202TIP3    H158097   2.967   5.436   5.320  0.4313 -0.5021  0.2654
12202TIP3    H258098   3.085   5.481   5.236 -0.2484  1.6357  0.4069
12203TIP3   OH258099   5.142   4.785   1.237 -0.3635 -0.7475 -0.0201
12203TIP3    H158100   5.174   4.699   1.209 -2.4945 -1.8122  0.6906
12203TIP3    H258101   5.180   4.797   1.324  0.1661 -0.8455 -0.2348
12204TIP3   OH258102   1.988   0.225  15.267  0.3476 -0.1766 -0.3521
12204TIP3    H158103   1.940   0.142  15.273 -0.6194  0.3838 -0.2964
12204TIP3    H258104   2.064   0.204  15.213  0.9477 -1.4919  0.9582
12205TIP3   OH258105   0.033   5.681   3.972 -0.2391  0.3492  0.1268
12205TIP3    H158106   0.043   5.586   3.971 -0.6965  0.2894  0.8725
12205TIP3    H258107   0.071   5.710   3.889 -0.8471 -0.5630 -0.4758
12206TIP3   OH258108   5.828   1.294   0.887  0.0352  0.3230 -0.6065
12206TIP3    H158109   5.870   1.211   0.911  1.7755  2.0232  2.4934
12206TIP3    H258110   5.879   1.326   0.813 -0.2084 -0.9997 -1.3743
12207TIP3   OH258111   3.111   0.753   5.706  0.2491 -0.2818  0.0754
12207TIP3    H158112   3.183   0.747   5.642 -0.1418 -0.0981 -0.3879
12207TIP3    H258113   3.032   0.744   5.653 -0.0588 -0.9312  0.6426
12208TIP3   OH258114   3.378   0.505   1.771 -0.2779  0.0989 -0.1830
12208TIP3    H158115   3.372   0.573   1.704  0.9628 -0.4638 -0.8824
12208TIP3    H258116   3.459   0.459   1.751 -1.5202 -2.1442 -0.2538
12209TIP3   OH258117   3.127   2.526  14.247 -0.4554 -0.4519 -0.2946
12209TIP3    H158118   3.166   2.481  14.172 -2.1149 -1.6931 -0.4547
12209TIP3    H258119   3.047   2.477  14.265 -0.8091  0.6986  1.4011
12210TIP3   OH258120   6.230   4.223  15.368 -0.1272  0.3159  0.1992
12210TIP3    H158121   6.250   4.164  15.440  1.5938 -1.4079 -1.6378
12210TIP3    H258122   6.312   4.232  15.320 -1.4670  0.6015 -2.1319
12211TIP3   OH258123   0.482   2.960  15.934 -0.0794  0.6534 -0.5093
12211TIP3    H158124   0.504   2.891  15.996  0.0008 -0.2860 -1.5534
12211TIP3    H258125   0.559   3.018  15.934  2.5829 -2.6082 -4.1415
12212TIP3   OH258126   4.072   5.305  15.171 -0.3078 -0.2116  0.3437
12212TIP3    H158127   4.060   5.389  15.216  0.5662  0.3600 -0.4591
12212TIP3    H258128   4.050   5.324  15.079  0.8792 -0.5916 -0.0376
12213TIP3   OH258129   2.308   2.774  15.658 -0.0393  0.1780 -0.2461
12213TIP3    H158130   2.304   2.867  15.635  0.1828  0.4726  0.8393
12213TIP3    H258131   2.401   2.757  15.672 -0.1216 -0.0916 -0.0087
12214TIP3   OH258132   5.117   5.987   3.128  0.1492  0.3045 -0.2278
12214TIP3    H158133   5.033   5.955   3.163  0.8520  0.3096  1.5216
12214TIP3    H258134   5.092   6.058   3.069 -1.1593 -0.5353 -0.7081
12215TIP3   OH258135   1.610   2.481   2.945  0.3670 -0.1487 -0.3220
12215TIP3    H158136   1.571   2.443   3.023 -0.6989 -0.8360 -1.1746
12215TIP3    H258137   1.672   2.546   2.978  1.8828 -2.2929  1.1298
12216TIP3   OH258138   2.519   6.540   5.804 -0.0002  0.5561 -0.7805
12216TIP3    H158139   2.611   6.517   5.791 -0.0098  0.8232 -1.3379
12216TIP3    H258140   2.510   6.550   5.899 -0.3551 -3.1994 -0.3397
12217TIP3   OH258141   2.503   0.229  14.160  0.2741 -0.3845 -0.3517
12217TIP3    H158142   2.496   0.302  14.099 -1.0956 -1.5107 -1.5819
12217TIP3    H258143   2.597   0.219  14.176  0.4795  1.5254 -0.2856
12218TIP3   OH258144   3.032   5.012  12.522  0.1657 -0.6969  0.1017
12218TIP3    H158145   2.950   5.000  12.475  0.3602 -2.6560  0.2448
12218TIP3    H258146   3.043   4.932  12.573  0.6542  0.7982  2.4261
12219TIP3   OH258147   4.995   3.109   0.036 -0.2179 -0.1018 -0.4033
12219TIP3    H158148   4.905   3.087   0.012 -0.4457  0.8405 -0.4179
12219TIP3    H258149   5.021   3.177  -0.026 -0.2105  1.0956  0.8799
12220TIP3   OH258150   3.906   1.451   4.678  0.5286 -0.1599  0.1079
12220TIP3    H158151   3.824   1.451   4.728  0.0057  1.2881 -0.7418
12220TIP3    H258152   3.974   1.441   4.745 -0.3289 -1.5961  0.7974
12221TIP3   OH258153   0.025   6.626   0.055 -0.1337 -0.6786  0.0604
12221TIP3    H158154   0.012   6.551  -0.003 -2.3779  1.1372 -1.8867
12221TIP3    H258155  -0.060   6.670   0.056  0.9344  1.4248  1.7866
12222TIP3   OH258156   2.754   5.053   0.463 -0.0386 -0.3705 -0.0006
12222TIP3    H158157   2.810   5.115   0.417 -1.4711  1.3428  0.5099
12222TIP3    H258158   2.697   5.017   0.396  1.2524 -1.6556 -0.4155
12223TIP3   OH258159   5.375   2.327   4.596 -0.0848  0.1701  0.1953
12223TIP3    H158160   5.379   2.245   4.547 -3.1728  0.4203 -0.5718
12223TIP3    H258161   5.390   2.301   4.687  1.9189 -0.8193 -0.4071
12224TIP3   OH258162   1.523   0.316  12.884  0.1113 -0.3379  0.5236
12224TIP3    H158163   1.563   0.317  12.971 -0.4844 -0.3363  0.8005
12224TIP3    H258164   1.596   0.324  12.824  0.6710 -1.7039  0.9872
12225TIP3   OH258165   0.901   6.258   4.753  0.4938 -0.0578  0.0462
12225TIP3    H158166   0.849   6.269   4.674  2.9105 -0.9133 -1.7318
12225TIP3    H258167   0.912   6.164   4.763  1.7534  0.1000  0.3329
12226TIP3   OH258168   3.826   3.442   5.357 -0.2341  0.2504 -0.1920
12226TIP3    H158169   3.787   3.361   5.325 -0.4253  0.5250 -0.6502
12226TIP3    H258170   3.753   3.503   5.364  0.3978  1.3811 -2.9430
12227TIP3   OH258171   5.262   0.504   0.373  0.0760 -0.1004 -0.0925
12227TIP3    H158172   5.170   0.529   0.382  0.1071  0.7355 -1.8452
12227TIP3    H258173   5.294   0.498   0.463 -1.5688  0.0750  0.5195
12228TIP3   OH258174   0.178   5.216  15.356  0.7166  0.3417  0.0015
12228TIP3    H158175   0.099   5.189  15.402 -1.3445  4.2385 -1.0311
12228TIP3    H258176   0.235   5.252  15.425  1.3365 -1.7990  0.6395
12229TIP3   OH258177   2.552   4.824  14.631  0.3924  0.2247  0.1440
12229TIP3    H158178   2.526   4.801  14.720  1.3810  2.1234  0.9630
12229TIP3    H258179   2.530   4.917  14.623 -0.8756 -0.2265 -2.0566
12230TIP3   OH258180   5.316   2.732   0.830  0.3643  0.3812  0.4439
12230TIP3    H158181   5.269   2.815   0.822  1.5392  1.1397  1.3923
12230TIP3    H258182   5.321   2.699   0.740 -1.2508  0.6855  0.2269
12231TIP3   OH258183   2.389   4.990  15.685  0.0432 -0.1070  0.6848
12231TIP3    H158184   2.362   5.075  15.721 -0.9669 -0.2926  0.3903
12231TIP3    H258185   2.425   5.011  15.599 -1.4996 -0.0965  0.0086
12232TIP3   OH258186   2.727   6.492   3.333  0.7665 -0.1396 -0.0446
12232TIP3    H158187   2.678   6.437   3.394  1.0773 -1.7145 -1.1727
12232TIP3    H258188   2.701   6.461   3.246  2.6881 -0.0560 -0.6832
12233TIP3   OH258189   2.744   2.300   1.365 -0.3305  0.6784  0.2349
12233TIP3    H158190   2.801   2.280   1.291 -1.1507 -2.1561  0.2923
12233TIP3    H258191   2.772   2.386   1.396  3.7244 -0.5330  0.1148
12234TIP3   OH258192   5.824   5.691   3.007  0.0690 -0.0705  0.2013
12234TIP3    H158193   5.855   5.740   2.931 -0.8763  2.6219  1.4922
12234TIP3    H258194   5.750   5.639   2.974  0.0624  0.6013 -0.8338
12235TIP3   OH258195   6.601   1.506   3.802 -0.0281 -0.4326 -0.3032
12235TIP3    H158196   6.685   1.485   3.844 -0.5100  0.5940  1.1962
12235TIP3    H258197   6.625   1.528   3.711  1.4969  1.2058  0.4566
12236TIP3   OH258198   1.970   1.596  11.485  0.0549  0.0342 -1.0211
12236TIP3    H158199   1.876   1.617  11.488  0.3861  1.5357 -0.7847
12236TIP3    H258200   2.003   1.643  11.409  0.7076 -0.1403 -0.8480
12237TIP3   OH258201   0.840   4.724  14.622 -0.3474 -0.3371  0.4248
12237TIP3    H158202   0.792   4.751  14.700  1.0539 -0.3578  1.3248
12237TIP3    H258203   0.827   4.629  14.618  0.6395 -0.5306  1.4030
12238TIP3   OH258204   2.162   6.223   0.297  0.1415  0.5450 -0.2313
12238TIP3    H158205   2.211   6.235   0.215  0.0338 -0.3943 -0.4383
12238TIP3    H258206   2.125   6.309   0.315 -0.0987  0.6847 -1.3433
12239TIP3   OH258207   2.371   6.158  13.525 -0.1743  0.1532  0.4283
12239TIP3    H158208   2.442   6.095  13.537 -0.7862 -0.2966  1.7930
12239TIP3    H258209   2.343   6.146  13.434  0.6687 -0.5235  0.2454
12240TIP3   OH258210   2.729   1.355   3.426  0.4446  0.2002 -0.1418
12240TIP3    H158211   2.751   1.261   3.423 -2.6179 -0.6610  1.7419
12240TIP3    H258212   2.780   1.389   3.500 -0.9363 -0.7591  1.2941
12241TIP3   OH258213   5.041   4.649  16.290 -0.3358  0.6062 -0.3341
12241TIP3    H158214   4.972   4.616  16.233  0.0904  1.0608 -1.1225
12241TIP3    H258215   5.057   4.738  16.258  1.0105  0.2989 -0.5022
12242TIP3   OH258216   1.977   4.152   5.609 -0.0165 -0.0584 -0.2635
12242TIP3    H158217   1.901   4.130   5.662  0.5619 -1.0577  0.1700
12242TIP3    H258218   2.052   4.123   5.661  0.8705  3.6331  0.6874
12243TIP3   OH258219   5.232   1.299   0.429 -0.5145  0.5412  0.0239
12243TIP3    H158220   5.158   1.345   0.391  0.8166  3.2108  0.5156
12243TIP3    H258221   5.285   1.368   0.469  1.8865 -1.3627  0.2567
12244TIP3   OH258222   5.060   3.218  16.258 -0.4610  0.0668 -0.0214
12244TIP3    H158223   4.998   3.190  16.191 -0.2052 -0.0900 -0.1934
12244TIP3    H258224   5.043   3.311  16.269  0.4553  0.4141 -1.3374
12245TIP3   OH258225   2.226   3.765  14.659 -0.0916 -0.0691 -0.0663
12245TIP3    H158226   2.251   3.759  14.566  2.2831 -4.7386  0.7445
12245TIP3    H258227   2.148   3.710  14.667  0.5808 -0.8881  0.9456
12246TIP3   OH258228   2.483   6.783   5.146  0.4272  0.7372 -0.4712
12246TIP3    H158229   2.402   6.830   5.124 -0.9075 -0.9939  0.7065
12246TIP3    H258230   2.455   6.707   5.197  2.5571 -1.3454 -2.2712
12247TIP3   OH258231   5.823   0.440  15.620  0.2817  0.1437  0.2503
12247TIP3    H158232   5.766   0.517  15.609  0.4636  0.5056  1.7378
12247TIP3    H258233   5.903   0.476  15.661  0.8817 -0.6404 -0.2224
12248TIP3   OH258234   4.292   2.090  14.268 -0.4191 -0.4329 -0.0867
12248TIP3    H158235   4.309   2.125  14.181  0.4706 -2.8909 -0.9479
12248TIP3    H258236   4.242   2.010  14.253 -0.7577 -0.5853  1.6831
12249TIP3   OH258237   0.457   1.271   0.928  0.0224  0.1959  0.2564
12249TIP3    H158238   0.435   1.298   1.017 -1.6553 -0.4098  0.0535
12249TIP3    H258239   0.374   1.279   0.880  0.7197 -0.2763 -1.0439
12250TIP3   OH258240   5.550   0.278   4.733  0.2376 -0.4590  0.1072
12250TIP3    H158241   5.620   0.280   4.799 -1.3885  1.5386  1.8229
12250TIP3    H258242   5.591   0.238   4.657  3.3262  0.8004  1.0225
12251TIP3   OH258243   0.719   4.957   3.709 -0.0887  0.3844 -0.3701
12251TIP3    H158244   0.756   4.886   3.761 -1.8064  0.0262  0.4048
12251TIP3    H258245   0.769   4.955   3.627 -0.3547 -1.9865 -0.5228
12252TIP3   OH258246   4.434   4.471   6.082 -0.6595  0.0057 -0.5074
12252TIP3    H158247   4.437   4.510   5.995 -1.0695  3.5221  0.9370
12252TIP3    H258248   4.340   4.463   6.102 -0.6128  1.4207  0.4437
12253TIP3   OH258249   4.914   3.026  15.576 -0.1874  0.1799 -1.3833
12253TIP3    H158250   4.889   2.943  15.616  1.3367 -0.1873 -1.1496
12253TIP3    H258251   4.929   3.005  15.484  0.9713  0.0257 -1.1623
12254TIP3   OH258252   3.167   4.412   5.244  0.3011 -0.2536  0.4902
12254TIP3    H158253   3.255   4.404   5.206 -0.0457 -0.7369 -0.2324
12254TIP3    H258254   3.121   4.472   5.184 -0.3908 -1.3670 -0.1228
12255TIP3   OH258255   2.445   0.391   1.565 -0.3120 -0.5704 -0.2672
12255TIP3    H158256   2.384   0.453   1.525 -2.4891 -1.1399  2.1169
12255TIP3    H258257   2.510   0.446   1.608 -0.2745  0.0409 -1.0921
12256TIP3   OH258258   6.721   5.036   4.513 -0.1214 -0.1689  0.1138
12256TIP3    H158259   6.779   5.103   4.550  2.1090 -0.7996 -2.0451
12256TIP3    H258260   6.641   5.084   4.489  0.7669  1.3949  0.1896
12257TIP3   OH258261   0.080   4.915   2.331  0.3804  1.0375 -0.4303
12257TIP3    H158262   0.128   4.839   2.298 -0.4745 -0.4067  1.5856
12257TIP3    H258263   0.149   4.976   2.359  1.0565  0.0447  0.0826
12258TIP3   OH258264   4.021   6.701  16.842 -0.4824  0.2269  0.0811
12258TIP3    H158265   4.026   6.633  16.774  1.0164 -0.3061  0.7145
12258TIP3    H258266   4.001   6.781  16.793 -1.7042 -0.5519 -0.7332
12259TIP3   OH258267   6.247   6.182  14.571 -0.1322 -0.0177  0.3227
12259TIP3    H158268   6.191   6.138  14.507 -0.6251 -0.1347  0.8356
12259TIP3    H258269   6.315   6.224  14.518 -0.9467  0.4925 -0.3330
12260TIP3   OH258270   6.695   2.978  15.179 -0.2792 -0.2270  0.6390
12260TIP3    H158271   6.647   3.032  15.117 -0.1878 -0.8325  0.0323
12260TIP3    H258272   6.633   2.959  15.249 -1.4618 -2.3570 -0.9266
12261TIP3   OH258273   5.053   5.785   0.636  0.1324  0.4455 -0.0161
12261TIP3    H158274   5.133   5.766   0.685 -0.5114  1.8623  1.6028
12261TIP3    H258275   5.043   5.709   0.578  1.0051 -1.1904  1.8915
12262TIP3   OH258276   5.591   3.817  11.187  0.1043 -0.3316 -0.1465
12262TIP3    H158277   5.652   3.872  11.236 -0.7505  1.4411 -1.0407
12262TIP3    H258278   5.647   3.758  11.136  1.0937  1.8157 -1.5776
12263TIP3   OH258279   5.355   0.625  12.401 -0.1154  0.1171 -0.2135
12263TIP3    H158280   5.290   0.695  12.391 -0.2834  0.0624  0.4585
12263TIP3    H258281   5.363   0.587  12.314  0.3622  1.3145 -0.6996
12264TIP3   OH258282   3.425   3.235  10.797 -0.4220 -0.1517 -0.0257
12264TIP3    H158283   3.482   3.164  10.766 -1.3061 -1.2680  0.8882
12264TIP3    H258284   3.428   3.300  10.726 -1.9439 -2.3965 -2.2316
12265TIP3   OH258285   3.034   3.213  16.614  0.3430  0.1647  0.3213
12265TIP3    H158286   3.032   3.298  16.657  1.2352 -0.3404  1.3636
12265TIP3    H258287   3.127   3.189  16.612 -0.0829 -1.7239  1.9071
12266TIP3   OH258288   4.202   2.309  10.469  0.8761  0.4269 -0.1672
12266TIP3    H158289   4.146   2.378  10.507  1.4216  0.4859  0.5477
12266TIP3    H258290   4.154   2.279  10.392  0.0151  0.7135  0.2467
12267TIP3   OH258291   6.064   2.241   5.838  0.4425  0.3046  0.0602
12267TIP3    H158292   6.030   2.153   5.826  2.0834 -0.4525  0.7924
12267TIP3    H258293   5.986   2.297   5.841 -0.5663 -0.9771 -1.4237
12268TIP3   OH258294   4.315   4.659   2.227 -0.2153 -0.1350 -0.6801
12268TIP3    H158295   4.360   4.612   2.157  0.8993 -2.3035  1.3997
12268TIP3    H258296   4.382   4.718   2.263 -0.4084  0.0479 -0.6203
12269TIP3   OH258297   0.763   1.183  14.683 -0.3105 -0.8039  0.3007
12269TIP3    H158298   0.715   1.266  14.687 -1.0627 -1.1667 -1.1766
12269TIP3    H258299   0.848   1.207  14.645  0.5809 -0.2312  2.5604
12270TIP3   OH258300   4.123   4.639   1.171  0.2726  0.2492  0.7292
12270TIP3    H158301   4.085   4.555   1.196 -1.0830  1.2909  2.3557
12270TIP3    H258302   4.206   4.643   1.218  0.2410 -0.1153  0.8191
12271TIP3   OH258303   2.355   0.389  12.291 -0.2142 -0.0672  0.2982
12271TIP3    H158304   2.324   0.445  12.363  0.1951  0.4577  0.0656
12271TIP3    H258305   2.275   0.353  12.253 -0.6216  1.9970 -0.8671
12272TIP3   OH258306   2.004   6.523  10.997 -0.4418 -0.4931 -0.5349
12272TIP3    H158307   2.044   6.535  10.911 -0.6020 -1.4086 -0.7474
12272TIP3    H258308   1.914   6.555  10.986 -0.0215  0.7765 -0.2875
12273TIP3   OH258309   2.303   4.646  15.305 -0.4950  0.2869  0.0877
12273TIP3    H158310   2.277   4.686  15.388 -0.2499 -0.5518  0.5724
12273TIP3    H258311   2.253   4.694  15.239 -1.1011  0.6001  0.7626
12274TIP3   OH258312   4.965   1.060   3.317  0.2496 -0.5453 -0.9013
12274TIP3    H158313   4.929   0.983   3.360  0.5775  1.1898  2.7237
12274TIP3    H258314   5.054   1.067   3.351  0.0943  1.6261 -0.8497
12275TIP3   OH258315   1.638   0.108   2.826  0.1847 -0.1027  0.3724
12275TIP3    H158316   1.716   0.106   2.881  0.4852 -1.8149 -0.0901
12275TIP3    H258317   1.650   0.036   2.764 -2.0363 -0.8034  0.6980
12276TIP3   OH258318   0.737   2.533  17.291  0.3123 -0.1100 -0.2482
12276TIP3    H158319   0.718   2.443  17.320  1.7626 -0.6875 -1.0222
12276TIP3    H258320   0.654   2.564  17.254  0.1123 -1.5674 -1.0674
12277TIP3   OH258321   5.796   5.732   1.152 -0.2509 -0.3451  0.8777
12277TIP3    H158322   5.791   5.656   1.094  1.2002 -0.4894  0.9267
12277TIP3    H258323   5.725   5.789   1.123  0.4104 -0.4478 -1.0182
12278TIP3   OH258324   1.104   4.208  13.020 -0.0290  0.2508 -0.2591
12278TIP3    H158325   1.079   4.258  12.943  0.7002  1.4359  0.2620
12278TIP3    H258326   1.060   4.251  13.093 -0.8856 -0.9912 -0.0123
12279TIP3   OH258327   5.576   3.718  12.255  0.0641  0.1972 -0.2688
12279TIP3    H158328   5.670   3.717  12.236 -0.0244  0.8400 -0.7703
12279TIP3    H258329   5.557   3.629  12.285  0.7626 -0.0377 -0.5031
12280TIP3   OH258330   1.016   0.728   5.720 -0.4853  0.3284 -0.2280
12280TIP3    H158331   1.020   0.788   5.794 -2.1848  0.0713  0.0964
12280TIP3    H258332   1.106   0.696   5.710 -0.2304  0.3466  1.7403
12281TIP3   OH258333   3.067   1.548   5.624 -0.1230 -0.2120 -0.6543
12281TIP3    H158334   3.084   1.520   5.714 -2.8526 -0.4510 -0.1684
12281TIP3    H258335   3.094   1.640   5.622  1.0704 -0.5418  0.0654
12282TIP3   OH258336   6.324   1.568   1.996 -0.2356  0.3194  0.3278
12282TIP3    H158337   6.299   1.534   1.910  1.2575  1.4414 -0.5820
12282TIP3    H258338   6.405   1.617   1.980  1.6475 -1.8117  2.8729
12283TIP3   OH258339   0.348   3.066  14.352  0.2366 -0.1743 -0.2820
12283TIP3    H158340   0.337   3.153  14.314 -1.2426 -0.1933  0.0959
12283TIP3    H258341   0.395   3.081  14.434 -0.0761  0.2791 -0.1831
12284TIP3   OH258342   4.976   5.062  16.374  0.3379 -0.0887  0.4924
12284TIP3    H158343   4.892   5.015  16.381  1.0579 -1.1426  2.3935
12284TIP3    H258344   5.009   5.039  16.288  0.1269 -2.2098  0.9421
12285TIP3   OH258345   1.990   3.326   2.456 -0.4711  0.4342  0.0283
12285TIP3    H158346   1.953   3.296   2.373  1.0971 -0.3983 -0.3933
12285TIP3    H258347   1.920   3.376   2.497 -0.3649  3.2707 -3.0632
12286TIP3   OH258348   3.938   5.906  13.574  0.2712 -0.3281 -0.3053
12286TIP3    H158349   3.978   5.916  13.661  2.1573  0.2015 -1.2045
12286TIP3    H258350   3.921   5.812  13.566  0.8424 -0.4924  0.3128
12287TIP3   OH258351   0.894   1.317  11.119 -0.1608 -0.3314  0.1936
12287TIP3    H158352   0.960   1.354  11.061 -1.1221  1.3700  0.1378
12287TIP3    H258353   0.938   1.308  11.203 -0.3629  2.6562  0.6744
12288TIP3   OH258354   2.972   1.165   3.379  0.0579 -0.0468  0.1169
12288TIP3    H158355   3.022   1.239   3.346 -1.2873  0.5282 -0.7000
12288TIP3    H258356   3.028   1.124   3.445  1.5485  0.6116 -0.7341
12289TIP3   OH258357   5.968   3.602   1.114  0.2527 -0.4190 -0.6306
12289TIP3    H158358   5.928   3.648   1.188 -1.6544 -0.6053 -1.4918
12289TIP3    H258359   5.983   3.670   1.048  1.8051 -0.2773 -0.1330
12290TIP3   OH258360   4.852   1.905   1.968  0.3251 -0.5117  0.8122
12290TIP3    H158361   4.788   1.968   2.000  0.2490  0.2546 -0.8044
12290TIP3    H258362   4.806   1.821   1.969 -0.4230 -0.1086  0.4968
12291TIP3   OH258363   0.219   6.151   3.654 -0.2642  0.5246  0.1651
12291TIP3    H158364   0.197   6.195   3.736 -1.4403  1.6882 -0.7528
12291TIP3    H258365   0.303   6.109   3.671 -0.1738  1.3157  1.7578
12292TIP3   OH258366   4.565   0.583   2.625 -0.0156 -0.2340  0.0042
12292TIP3    H158367   4.579   0.549   2.714  0.2609  1.7581  0.7394
12292TIP3    H258368   4.471   0.572   2.610 -0.6711  2.3015  1.8108
12293TIP3   OH258369   1.668   0.482  14.542 -0.1886 -0.2954  0.0845
12293TIP3    H158370   1.712   0.405  14.508  2.4310  1.1277  0.1209
12293TIP3    H258371   1.689   0.551  14.479 -1.0828  0.7943  0.9505
12294TIP3   OH258372   2.391   1.487   1.469 -0.1201  0.1447 -0.4665
12294TIP3    H158373   2.297   1.507   1.465 -0.2512 -0.7077 -1.9589
12294TIP3    H258374   2.401   1.438   1.551 -0.9983  0.1724 -0.3346
12295TIP3   OH258375   1.657   1.082  15.419 -0.7339 -0.2511 -0.1052
12295TIP3    H158376   1.669   1.177  15.428 -0.4538 -0.3986  1.2389
12295TIP3    H258377   1.632   1.053  15.507  2.7166 -1.9264  0.4282
12296TIP3   OH258378   1.729   3.451  12.714  0.7588  0.3413  0.4031
12296TIP3    H158379   1.810   3.431  12.667 -0.0084 -2.5153  0.2169
12296TIP3    H258380   1.758   3.476  12.802  1.9378  1.0336 -0.1710
12297TIP3   OH258381   6.312   3.250  13.112  0.2333  0.8694 -0.1339
12297TIP3    H158382   6.353   3.329  13.076 -0.8948  1.3820 -0.3287
12297TIP3    H258383   6.295   3.194  13.036  2.5934 -0.3274  0.1860
12298TIP3   OH258384   0.550   2.078  13.447  0.0528 -0.2318 -0.2276
12298TIP3    H158385   0.578   2.160  13.407  0.5098  0.4726  1.4745
12298TIP3    H258386   0.497   2.035  13.381 -1.0227  1.9075 -0.7761
12299TIP3   OH258387   3.660   5.872  13.192 -0.2222  0.4674  0.3690
12299TIP3    H158388   3.571   5.896  13.164 -0.5924 -0.1269  1.0168
12299TIP3    H258389   3.705   5.955  13.203 -0.5461  0.7593 -0.4596
12300TIP3   OH258390   2.546   0.986   2.870  0.7080  0.1568  0.3610
12300TIP3    H158391   2.620   1.010   2.925 -0.0181  1.2666  0.8578
12300TIP3    H258392   2.527   1.065   2.819  0.5037 -0.4338 -0.5054
12301TIP3   OH258393   2.029   3.180   5.040 -0.2406  0.4346  0.2542
12301TIP3    H158394   2.088   3.220   4.977  0.0020 -0.3632 -0.0281
12301TIP3    H258395   1.946   3.169   4.993  0.3862 -1.5728 -0.4232
12302TIP3   OH258396   1.513   0.258   3.037  0.4362  0.0817  0.8768
12302TIP3    H158397   1.579   0.235   3.103  2.1245 -1.5548 -1.2845
12302TIP3    H258398   1.537   0.206   2.960 -4.1020 -1.5282  0.3761
12303TIP3   OH258399   5.669   5.964   1.375  0.3026  0.2894 -0.5681
12303TIP3    H158400   5.639   5.959   1.284 -3.4320  0.8970  0.5478
12303TIP3    H258401   5.637   5.883   1.415  0.9091  0.5758  0.5046
12304TIP3   OH258402   6.223   3.119  14.812 -0.1679  0.4935  0.1860
12304TIP3    H158403   6.225   3.189  14.747  0.2857  1.7887  1.5572
12304TIP3    H258404   6.160   3.056  14.779  0.5373  0.8143 -1.8235
12305TIP3   OH258405   2.421   6.805  14.134  0.5541  0.5416  0.5802
12305TIP3    H158406   2.369   6.820  14.212 -0.6163  0.3098 -0.1410
12305TIP3    H258407   2.451   6.892  14.107 -1.6311  1.0155 -0.4630
12306TIP3   OH258408   0.936   2.543   3.509 -0.4558 -0.0816  0.1251
12306TIP3    H158409   1.003   2.526   3.442  0.5951  0.6130  0.9672
12306TIP3    H258410   0.953   2.476   3.576  0.8518  1.4504  1.3768
12307TIP3   OH258411   1.425   3.739   6.031 -0.4081 -0.3618 -0.0279
12307TIP3    H158412   1.457   3.675   5.968  1.1915 -1.4087  1.7799
12307TIP3    H258413   1.452   3.704   6.116 -0.9302  1.9138  1.1059
12308TIP3   OH258414   2.863   6.452  10.747 -0.1216 -0.0306 -0.1583
12308TIP3    H158415   2.932   6.387  10.761  0.8438  1.3121  1.5657
12308TIP3    H258416   2.871   6.477  10.655  2.3762  0.8431  0.2691
12309TIP3   OH258417   0.996   2.835  16.294 -0.4136 -0.1192  0.4122
12309TIP3    H158418   1.051   2.800  16.364  0.1429 -0.1716 -0.0497
12309TIP3    H258419   0.975   2.924  16.323 -0.8313 -0.4081  1.0098
12310TIP3   OH258420   2.691   0.761  13.868  0.6783  0.0415 -0.2880
12310TIP3    H158421   2.782   0.782  13.848  1.0698  0.2483  1.5846
12310TIP3    H258422   2.657   0.721  13.788  2.2831  0.3438 -1.1419
12311TIP3   OH258423   4.838   0.642   5.379  0.1084  0.2318  0.1279
12311TIP3    H158424   4.932   0.657   5.374 -0.1324  1.8184  0.2157
12311TIP3    H258425   4.826   0.586   5.456  0.9899 -0.1231  0.0082
12312TIP3   OH258426   5.170   6.758  13.895  0.3529  0.0050  0.0125
12312TIP3    H158427   5.076   6.775  13.907  0.6236  0.9705  0.7773
12312TIP3    H258428   5.203   6.837  13.852  0.8842 -0.1943  0.0606
12313TIP3   OH258429   3.728   1.949  15.875 -0.0481  0.0429 -0.3500
12313TIP3    H158430   3.701   1.923  15.963 -1.8436  0.3108 -0.7973
12313TIP3    H258431   3.710   2.042  15.870  0.2716  0.0809 -0.9267
12314TIP3   OH258432   1.245   4.484   6.193  0.3826 -0.1414 -0.9720
12314TIP3    H158433   1.329   4.442   6.173 -0.2256 -0.8478 -2.1045
12314TIP3    H258434   1.245   4.564   6.141  0.2020 -0.3317 -1.2692
12315TIP3   OH258435   6.576   6.246   5.862  0.1165  0.1791  0.2256
12315TIP3    H158436   6.537   6.159   5.865 -0.5737  0.3756 -1.9378
12315TIP3    H258437   6.665   6.232   5.828  0.4305  0.1919  1.0348
12316TIP3   OH258438   2.222   5.366  17.023 -0.0957  0.4707 -0.0609
12316TIP3    H158439   2.178   5.394  17.103 -0.8465 -1.6302  0.2830
12316TIP3    H258440   2.276   5.292  17.048  0.7741  0.6852 -1.2273
12317TIP3   OH258441   5.208   4.739  14.966  0.0189 -0.1434  0.1203
12317TIP3    H158442   5.158   4.754  14.886 -0.7144 -3.1415 -0.0239
12317TIP3    H258443   5.152   4.773  15.036 -0.3811  0.2810 -0.4054
12318TIP3   OH258444   1.659   2.029  14.125  0.2164 -0.1036 -0.2800
12318TIP3    H158445   1.594   2.033  14.054 -0.4726 -1.5490  0.2525
12318TIP3    H258446   1.738   2.067  14.087 -0.3109 -0.3093 -1.6250
12319TIP3   OH258447   3.645   0.161  14.543  0.0276 -0.1286 -0.0175
12319TIP3    H158448   3.564   0.143  14.494 -0.3290  1.7979 -0.1535
12319TIP3    H258449   3.662   0.079  14.590 -1.7576 -0.7191 -0.3406
12320TIP3   OH258450   1.630   6.043   1.839  0.7645  0.1551 -0.3578
12320TIP3    H158451   1.592   5.957   1.819  0.0006  0.2881  0.4747
12320TIP3    H258452   1.723   6.024   1.856  1.0451 -0.1925 -2.2137
12321TIP3   OH258453   4.162   0.182   1.854  0.0033  0.1417 -0.1410
12321TIP3    H158454   4.158   0.245   1.926  0.9199 -1.2360  1.1403
12321TIP3    H258455   4.071   0.151   1.846 -0.2139  0.7171  0.0514
12322TIP3   OH258456   5.835   0.406   2.883  0.1482 -0.0166  0.5951
12322TIP3    H158457   5.837   0.497   2.911 -1.3079 -0.8341  3.5112
12322TIP3    H258458   5.910   0.397   2.825  1.0696  2.6874  1.3046
12323TIP3   OH258459   4.426   4.527   1.618  0.1267 -0.1347  0.2558
12323TIP3    H158460   4.511   4.544   1.659  0.6263 -0.8014 -0.4667
12323TIP3    H258461   4.366   4.588   1.660  1.1540  0.9737  0.1406
12324TIP3   OH258462   3.842   3.475   4.081 -0.7947 -0.1222 -0.3350
12324TIP3    H158463   3.771   3.539   4.082 -0.9940 -0.3509 -0.0335
12324TIP3    H258464   3.799   3.391   4.100 -1.0196 -0.8193 -3.5700
12325TIP3   OH258465   1.822   5.111  13.267 -0.1813 -0.0426  0.0600
12325TIP3    H158466   1.760   5.040  13.249  2.0195 -1.6728 -1.3129
12325TIP3    H258467   1.777   5.190  13.237 -0.7173 -1.4911 -3.0957
12326TIP3   OH258468   1.648   1.364  15.531 -0.1251  0.3029 -0.0928
12326TIP3    H158469   1.581   1.405  15.585  0.9366  0.0729  1.4358
12326TIP3    H258470   1.656   1.420  15.454  0.6256  2.4375  1.5074
12327TIP3   OH258471   5.161   6.300  14.248 -0.2450  0.5564  0.5096
12327TIP3    H158472   5.077   6.310  14.202  0.0558 -0.0558 -0.1972
12327TIP3    H258473   5.219   6.363  14.205  0.3146 -0.7269 -0.6562
12328TIP3   OH258474   3.753   2.682   3.094  0.1437 -0.6354  0.0733
12328TIP3    H158475   3.689   2.615   3.116 -0.2345 -0.6184 -0.9843
12328TIP3    H258476   3.738   2.701   3.002 -0.5616  1.7647  0.6542
12329TIP3   OH258477   0.761   1.414   0.129  0.5804 -0.5615  0.5695
12329TIP3    H158478   0.722   1.369   0.054 -1.3890 -0.5667  1.5662
12329TIP3    H258479   0.688   1.464   0.167  2.2726  1.9768  0.5975
12330TIP3   OH258480   1.237   4.802   2.767  0.2795  0.4467  0.3758
12330TIP3    H158481   1.304   4.764   2.824  1.2744 -1.5123 -1.9963
12330TIP3    H258482   1.157   4.755   2.789  0.1582  1.2447  1.6787
12331TIP3   OH258483   2.724   2.737   3.024  0.1979  0.6927 -0.1090
12331TIP3    H158484   2.663   2.690   2.968  0.7459  0.4916 -0.5309
12331TIP3    H258485   2.720   2.828   2.994  1.5173  0.3393 -1.3775
12332TIP3   OH258486   2.276   0.639   5.714 -0.3313  0.3265  0.5450
12332TIP3    H158487   2.242   0.550   5.719 -0.2443  0.1072 -2.1709
12332TIP3    H258488   2.365   0.633   5.749  0.9733 -1.4202 -2.8925
12333TIP3   OH258489   3.554   0.915  13.249  0.4295  0.1566  0.1323
12333TIP3    H158490   3.467   0.941  13.280  0.9270  0.4790  1.2981
12333TIP3    H258491   3.537   0.859  13.174 -0.8195 -0.4261  0.8352
12334TIP3   OH258492   1.711   1.539   4.759 -0.1480  0.8127 -0.2290
12334TIP3    H158493   1.668   1.624   4.757 -1.5055  0.1890  1.0851
12334TIP3    H258494   1.685   1.496   4.678 -0.8271  1.0114 -0.1188
12335TIP3   OH258495   1.249   1.218  15.022  0.1579  0.0858 -0.5566
12335TIP3    H158496   1.344   1.205  15.014 -0.0257 -2.0556  0.3305
12335TIP3    H258497   1.212   1.137  14.987 -1.3600  0.9428 -0.9426
12336TIP3   OH258498   2.769   3.031  12.565 -0.4202  0.5144  0.1555
12336TIP3    H158499   2.688   3.076  12.540 -1.1042 -0.0703  1.2594
12336TIP3    H258500   2.783   3.058  12.656  0.9212  1.0297 -0.1959
12337TIP3   OH258501   2.422   2.366  16.741  0.3980 -0.4171  0.3301
12337TIP3    H158502   2.413   2.448  16.691 -0.8056  0.3470  1.7609
12337TIP3    H258503   2.509   2.334  16.718  0.9948  1.4102 -0.0878
12338TIP3   OH258504   1.577   1.767  11.743  0.6400  0.0258 -0.0696
12338TIP3    H158505   1.490   1.749  11.776  1.1195  0.1131  1.2671
12338TIP3    H258506   1.576   1.860  11.720  0.9883  0.5408  1.9073
12339TIP3   OH258507   5.401   0.609  16.548 -0.4080 -0.1868 -0.2466
12339TIP3    H158508   5.354   0.582  16.627  0.0272  0.4203  0.2223
12339TIP3    H258509   5.342   0.586  16.476 -1.4307  0.5678  0.3383
12340TIP3   OH258510   3.123   4.212  16.352  0.4786 -0.3045  0.1890
12340TIP3    H158511   3.100   4.298  16.316  1.2184  0.4197  1.4332
12340TIP3    H258512   3.130   4.156  16.274 -1.2769  0.4255 -0.5442
12341TIP3   OH258513   0.832   1.796  11.153  0.2444 -0.0074  0.0705
12341TIP3    H158514   0.915   1.840  11.131  0.7762 -1.9159 -1.8685
12341TIP3    H258515   0.770   1.829  11.088  0.2415 -0.8802 -0.3697
12342TIP3   OH258516   2.710   4.260  13.924  0.1487  0.1146  0.4579
12342TIP3    H158517   2.736   4.307  13.845  0.2940  2.3433  1.7987
12342TIP3    H258518   2.784   4.269  13.984 -0.5205 -0.3293  1.3711
12343TIP3   OH258519   2.773   2.652  16.864 -0.1625 -0.2645  0.0609
12343TIP3    H158520   2.709   2.717  16.892  0.1552  0.2872 -0.4944
12343TIP3    H258521   2.758   2.641  16.771  1.3652  0.8153 -0.3469
12344TIP3   OH258522   1.931   4.955  11.858 -0.8619  0.6322 -0.2081
12344TIP3    H158523   2.000   4.895  11.887 -1.2927 -0.4893 -1.4539
12344TIP3    H258524   1.930   4.947  11.763 -0.6244  2.9836 -0.4454
12345TIP3   OH258525   6.320   3.238  12.399  0.3423  0.4791 -0.1744
12345TIP3    H158526   6.247   3.186  12.366 -0.0445  1.7959 -1.4704
12345TIP3    H258527   6.330   3.211  12.490 -0.7485 -0.8381 -0.4340
12346TIP3   OH258528   1.815   6.596   6.894 -0.1338 -0.0988 -0.4765
12346TIP3    H158529   1.892   6.545   6.920 -0.9489 -1.1235 -0.0266
12346TIP3    H258530   1.838   6.631   6.808  0.4344 -1.2611 -0.8171
12347TIP3   OH258531   3.259   6.612  13.191 -0.0054 -0.2245  0.0503
12347TIP3    H158532   3.200   6.634  13.119 -0.0658 -1.2547 -0.2191
12347TIP3    H258533   3.213   6.644  13.269  0.8579  2.4879 -0.5037
12348TIP3   OH258534   6.454   2.053   1.720  0.4062 -0.0474 -0.3252
12348TIP3    H158535   6.418   2.142   1.724  0.9144  0.0882  1.4290
12348TIP3    H258536   6.549   2.065   1.725  0.5177 -0.6599 -0.8541
12349TIP3   OH258537   0.275   2.762   4.743 -0.6185 -0.4774  0.2049
12349TIP3    H158538   0.211   2.783   4.675  0.2698  0.0040 -0.4835
12349TIP3    H258539   0.354   2.737   4.696 -0.0192 -0.2161  1.0557
12350TIP3   OH258540   1.843   4.565   3.354  0.0087  0.0134  0.7265
12350TIP3    H158541   1.888   4.548   3.271 -1.7127  1.6537 -0.6161
12350TIP3    H258542   1.768   4.505   3.354  0.8881 -1.0994  1.8606
12351TIP3   OH258543   4.058   3.756  15.437  0.1628 -0.1319 -0.4247
12351TIP3    H158544   4.086   3.820  15.502  2.2059 -2.1100  0.7197
12351TIP3    H258545   4.125   3.759  15.369 -0.1097 -0.5505 -0.7189
12352TIP3   OH258546   3.840   6.222  16.877  0.0052  0.0936  0.9820
12352TIP3    H158547   3.769   6.194  16.820  1.4334  0.1291 -0.8363
12352TIP3    H258548   3.899   6.147  16.881 -0.3839 -0.1423  2.9575
12353TIP3   OH258549   1.570   4.347   2.595  0.3688  0.1810  0.3555
12353TIP3    H158550   1.517   4.280   2.638  0.0612  0.0734 -0.1842
12353TIP3    H258551   1.636   4.297   2.546  0.4561  0.2875  0.3652
12354TIP3   OH258552   5.590   3.766  15.402  0.0389 -0.3856  0.3525
12354TIP3    H158553   5.496   3.761  15.419 -0.1602 -0.3617 -0.7131
12354TIP3    H258554   5.601   3.724  15.316  1.2824 -2.3910  1.4463
12355TIP3   OH258555   6.628   0.545  14.052 -0.0932 -0.2956  0.5431
12355TIP3    H158556   6.666   0.489  13.984  2.3420  1.7396  0.1595
12355TIP3    H258557   6.614   0.486  14.126  2.1389 -1.5310  0.0483
12356TIP3   OH258558   0.204   0.670   2.631  0.7490 -0.0425 -0.3287
12356TIP3    H158559   0.216   0.720   2.551  1.0309  0.7182  0.1852
12356TIP3    H258560   0.161   0.590   2.602  0.0546  0.6012 -1.1312
12357TIP3   OH258561   3.330   5.960   5.908  0.4468  0.4410  0.3011
12357TIP3    H158562   3.305   5.873   5.938  2.5203  0.3989  2.0530
12357TIP3    H258563   3.247   6.004   5.890 -0.7192 -0.9843  2.0136
12358TIP3   OH258564   6.031   1.797   6.257  0.3982  0.6632 -0.1553
12358TIP3    H158565   6.111   1.746   6.272 -0.8853 -0.8431  1.9298
12358TIP3    H258566   6.043   1.876   6.311 -0.7847 -1.0100  2.6648
12359TIP3   OH258567   1.225   3.863   1.970  0.0026 -0.1580 -0.6920
12359TIP3    H158568   1.169   3.786   1.964  0.1708 -0.1697 -2.3673
12359TIP3    H258569   1.232   3.895   1.880  2.5470 -0.0769 -0.5069
12360TIP3   OH258570   2.325   6.338  13.851 -1.1120 -0.4007 -0.0842
12360TIP3    H158571   2.273   6.352  13.930 -1.5076  2.8918 -0.8675
12360TIP3    H258572   2.264   6.351  13.779 -0.4670 -2.1558 -0.9899
12361TIP3   OH258573   5.820   1.576   1.408 -0.2077  0.4971  0.3777
12361TIP3    H158574   5.737   1.535   1.384 -0.3742  1.7531 -1.2865
12361TIP3    H258575   5.806   1.669   1.390  2.3124  0.4380 -2.1512
12362TIP3   OH258576   5.720   0.861   1.612  0.3853  0.2771  0.4391
12362TIP3    H158577   5.802   0.812   1.613  0.8064  0.9765  2.8024
12362TIP3    H258578   5.743   0.948   1.646 -0.8420  1.3243 -1.3232
12363TIP3   OH258579   6.556   1.963   4.013  0.2075  0.0010  0.4163
12363TIP3    H158580   6.539   1.884   4.064  2.0085  0.0562  1.1419
12363TIP3    H258581   6.573   1.931   3.925 -0.7466 -0.2787  0.3305
12364TIP3   OH258582   3.836   3.127   3.348 -0.2774 -0.1729  0.6486
12364TIP3    H158583   3.744   3.154   3.350  0.1655  1.3128  2.4256
12364TIP3    H258584   3.867   3.155   3.262 -1.5499 -0.9602 -0.0897
12365TIP3   OH258585   6.454   0.415   3.371 -0.0953 -0.2906 -0.3456
12365TIP3    H158586   6.432   0.477   3.302 -1.8005  0.3538  0.7376
12365TIP3    H258587   6.437   0.463   3.452  0.2846 -1.5911  0.5260
12366TIP3   OH258588   1.490   2.581   1.381 -0.4296 -0.4073  0.4348
12366TIP3    H158589   1.564   2.618   1.428 -0.9556 -0.9711  1.7224
12366TIP3    H258590   1.438   2.657   1.354 -0.1162 -0.0853  0.7347
12367TIP3   OH258591   6.663   1.731   6.670  0.1344 -0.2330 -0.0178
12367TIP3    H158592   6.660   1.795   6.598  2.6532 -0.5650 -0.4599
12367TIP3    H258593   6.729   1.766   6.730 -0.4074 -1.0791  1.0768
12368TIP3   OH258594   0.261   1.720   4.415  0.0963 -0.3551  0.2654
12368TIP3    H158595   0.177   1.745   4.375  0.8677  0.9985 -0.5518
12368TIP3    H258596   0.327   1.745   4.350  1.0440 -3.1247  0.0813
12369TIP3   OH258597   1.589   0.876   4.392 -0.6878  0.2478 -0.4921
12369TIP3    H158598   1.605   0.857   4.484 -3.0036 -1.2367 -0.3683
12369TIP3    H258599   1.642   0.812   4.344  0.7163  1.1850 -0.2299
12370TIP3   OH258600   3.095   3.672   2.272 -0.3414 -0.0079  0.3157
12370TIP3    H158601   3.031   3.638   2.209 -0.1212  0.6669 -0.2800
12370TIP3    H258602   3.179   3.635   2.243 -0.1605  0.7136 -0.1001
12371TIP3   OH258603   0.788   4.178  14.722  0.2808  0.3488 -0.3224
12371TIP3    H158604   0.832   4.105  14.767 -1.2984 -1.2322 -1.2767
12371TIP3    H258605   0.710   4.196  14.775 -1.6572 -1.6057 -2.3962
12372TIP3   OH258606   3.356   6.483  12.136  0.1614 -0.1226 -0.1732
12372TIP3    H158607   3.393   6.401  12.103 -3.2829 -2.7945  2.2217
12372TIP3    H258608   3.392   6.491  12.224  0.2650  0.7962 -0.2988
12373TIP3   OH258609   1.138   3.829  16.529  0.1870 -0.0597  0.3777
12373TIP3    H158610   1.089   3.876  16.462 -3.3590 -3.6570  0.1956
12373TIP3    H258611   1.075   3.818  16.601  1.9553 -1.4765  1.7622
12374TIP3   OH258612   2.013   6.566  14.265 -0.6767  0.4687 -0.2829
12374TIP3    H158613   2.067   6.517  14.203 -1.5248  1.3062 -1.6872
12374TIP3    H258614   2.041   6.534  14.351  0.9217 -0.2686 -1.0591
12375TIP3   OH258615   4.347   0.572   2.469  0.4856 -0.2976  0.6154
12375TIP3    H158616   4.375   0.629   2.398  0.9673  0.0679  1.1038
12375TIP3    H258617   4.292   0.628   2.524 -0.0062 -0.6195  0.4600
12376TIP3   OH258618   0.419   1.097  10.407 -0.2751 -0.2320  0.4555
12376TIP3    H158619   0.431   1.175  10.353  1.8500 -1.3576 -0.7750
12376TIP3    H258620   0.493   1.097  10.467  1.0650 -2.4857 -1.1021
12377TIP3   OH258621   4.879   3.309   1.754 -0.6145  0.2049  0.3668
12377TIP3    H158622   4.835   3.393   1.742 -2.1764 -0.8551 -1.7439
12377TIP3    H258623   4.906   3.308   1.846 -1.2297  2.6788  0.5961
12378TIP3   OH258624   5.073   4.937   4.116  0.4380 -0.4634  0.3095
12378TIP3    H158625   5.076   4.846   4.085  1.4964 -0.3058 -0.1100
12378TIP3    H258626   4.995   4.974   4.075 -0.3663 -1.3588  1.0093
12379TIP3   OH258627   2.305   5.716  11.942 -0.7293  0.4634  0.7804
12379TIP3    H158628   2.368   5.698  12.012 -1.0526 -3.2954  0.2445
12379TIP3    H258629   2.252   5.636  11.938 -2.0954  1.4610 -2.3191
12380TIP3   OH258630   6.232   3.492  13.980 -0.1331 -0.2312 -0.1629
12380TIP3    H158631   6.144   3.529  13.978 -0.4923 -1.0527  0.2314
12380TIP3    H258632   6.290   3.568  13.989 -0.8243  0.2841 -0.0181
12381TIP3   OH258633   2.513   0.391   5.076 -0.0167  0.5521  0.3828
12381TIP3    H158634   2.465   0.448   5.016 -0.8114  1.2643  1.6934
12381TIP3    H258635   2.604   0.400   5.050 -0.4433  0.1210 -1.3428
12382TIP3   OH258636   2.901   2.493   4.185  0.2229 -0.1097  0.3345
12382TIP3    H158637   2.867   2.523   4.101  2.6149 -1.4995 -1.1950
12382TIP3    H258638   2.919   2.399   4.171 -0.3544 -0.5943  2.7200
12383TIP3   OH258639   5.821   6.062  12.209 -0.0631  0.3681 -0.1157
12383TIP3    H158640   5.762   6.005  12.259 -0.3547  0.9692  0.2371
12383TIP3    H258641   5.888   6.087  12.273  1.0636 -0.9914 -0.7312
12384TIP3   OH258642   5.250   3.316   1.777  0.4320  0.6711 -0.2125
12384TIP3    H158643   5.213   3.386   1.723  0.4312  0.1623 -0.8833
12384TIP3    H258644   5.344   3.323   1.764  0.4288  0.5167 -0.3165
12385TIP3   OH258645   4.336   6.037  14.515 -0.3007 -0.2579  0.2786
12385TIP3    H158646   4.330   6.127  14.484  0.4215 -0.0989  0.5909
12385TIP3    H258647   4.288   6.037  14.598  2.2757  0.5705  1.8237
12386TIP3   OH258648   1.324   1.788  15.648 -0.5232 -0.4136  0.0424
12386TIP3    H158649   1.314   1.883  15.645 -1.2053 -0.4677  0.3585
12386TIP3    H258650   1.236   1.756  15.667 -0.2630 -1.1016  0.0995
12387TIP3   OH258651   6.086   3.990  13.635 -0.3098  0.1723 -0.3243
12387TIP3    H158652   6.136   3.908  13.641  0.0544  0.2963 -1.5538
12387TIP3    H258653   6.027   3.977  13.561 -1.5328  0.3462  0.6028
12388TIP3   OH258654   3.114   6.477   1.625  0.1088 -0.1651 -0.1077
12388TIP3    H158655   3.138   6.567   1.602 -0.1013 -0.3675 -1.1360
12388TIP3    H258656   3.179   6.451   1.690 -0.0091  0.8371  0.4188
12389TIP3   OH258657   4.749   1.519   3.499  0.6183  0.5191  0.1244
12389TIP3    H158658   4.728   1.454   3.432 -0.9217 -0.8412  1.8629
12389TIP3    H258659   4.713   1.601   3.466 -1.8807 -0.5307  0.1563
12390TIP3   OH258660   4.725   6.083  12.963 -0.2382  0.2356  0.4694
12390TIP3    H158661   4.678   6.166  12.959  1.2495  1.1612  1.5518
12390TIP3    H258662   4.667   6.025  13.012 -0.7259  1.0190  0.8329
12391TIP3   OH258663   2.149   1.913  16.521  0.2215  0.0190  0.3127
12391TIP3    H158664   2.141   2.002  16.555 -0.8002 -0.5983  1.7251
12391TIP3    H258665   2.225   1.878  16.567 -1.6894 -1.1141  2.6961
12392TIP3   OH258666   6.572   6.291  14.659  0.2727 -0.1665  0.2144
12392TIP3    H158667   6.597   6.199  14.660 -1.9096 -0.7926  0.4114
12392TIP3    H258668   6.530   6.304  14.574  1.9196  1.0607 -0.4472
12393TIP3   OH258669   6.584   0.668  11.025  0.0053 -0.7033  0.3256
12393TIP3    H158670   6.621   0.585  10.994  0.0084 -0.2767 -0.8377
12393TIP3    H258671   6.501   0.676  10.978 -0.0683 -0.1258  0.5520
12394TIP3   OH258672   5.500   1.581  10.964 -0.1796 -0.0243  0.0470
12394TIP3    H158673   5.581   1.532  10.979 -0.6426 -0.7960  0.0271
12394TIP3    H258674   5.493   1.586  10.868  0.0113  0.3183  0.0511
12395TIP3   OH258675   0.017   4.683   3.941 -0.3727 -0.2425  0.3721
12395TIP3    H158676  -0.007   4.679   3.849 -1.3209 -2.1491  0.6750
12395TIP3    H258677  -0.058   4.646   3.987  0.3718  0.0379  1.8517
12396TIP3   OH258678   6.713   1.750   2.209 -0.0535  0.2592 -0.0996
12396TIP3    H158679   6.757   1.675   2.248  0.2255  1.0317  1.0811
12396TIP3    H258680   6.688   1.805   2.283 -1.7856  0.5058 -0.8251
12397TIP3   OH258681   0.811   2.173  14.962  0.7327  0.7287  0.0730
12397TIP3    H158682   0.743   2.117  15.000  0.9340  0.1219 -0.4502
12397TIP3    H258683   0.763   2.243  14.918  0.3682 -0.6532 -1.7965
12398TIP3   OH258684   4.406   4.755   1.829  0.1218  0.5440  0.0651
12398TIP3    H158685   4.390   4.825   1.892  2.0835  0.0243  1.1699
12398TIP3    H258686   4.339   4.768   1.761 -0.2757  2.7606  0.8523
12399TIP3   OH258687   2.168   2.006  14.233 -0.4389 -0.3295  0.1808
12399TIP3    H158688   2.160   1.920  14.192  0.4398  0.2548 -1.2650
12399TIP3    H258689   2.138   1.993  14.323 -0.3478 -2.1321 -0.0320
12400TIP3   OH258690   0.988   3.261  12.006  0.3685 -0.1242 -0.3739
12400TIP3    H158691   1.042   3.228  11.935  1.0354 -0.4726  0.2990
12400TIP3    H258692   0.910   3.205  12.006  1.2353 -1.3357  0.3963
12401TIP3   OH258693   1.787   0.037  15.002 -0.3251  0.1475 -0.1596
12401TIP3    H158694   1.736   0.001  14.930  0.1529 -1.5334  0.3066
12401TIP3    H258695   1.733   0.021  15.080  0.2227 -0.2407  0.1442
12402TIP3   OH258696   4.497   4.985  12.517  0.4070  0.2620 -0.0769
12402TIP3    H158697   4.461   5.047  12.454 -1.5793 -1.6616 -0.8873
12402TIP3    H258698   4.424   4.964  12.575  1.9906  1.3733  2.4363
12403TIP3   OH258699   1.914   4.747   5.888 -0.5972 -0.2467 -0.3087
12403TIP3    H158700   1.840   4.798   5.921 -1.3395 -1.2848 -0.3531
12403TIP3    H258701   1.912   4.666   5.940  0.2397 -0.4668 -0.6183
12404TIP3   OH258702   3.273   4.441  14.037  0.2992 -0.0117  0.0342
12404TIP3    H158703   3.206   4.472  13.976  0.1409  3.8694  2.0384
12404TIP3    H258704   3.349   4.497  14.020  1.3674 -1.0993  1.1654
12405TIP3   OH258705   1.079   5.449  15.458 -0.3104  0.3468 -0.2472
12405TIP3    H158706   1.082   5.490  15.545  1.9899 -1.2705  0.4992
12405TIP3    H258707   1.141   5.499  15.406  1.8334 -1.5313  0.4143
12406TIP3   OH258708   2.595   5.307   2.944  0.4511  0.0979 -0.3363
12406TIP3    H158709   2.670   5.247   2.941 -0.1953 -0.7828  0.5833
12406TIP3    H258710   2.592   5.336   3.036 -0.5226 -0.1162 -0.2989
12407TIP3   OH258711   6.302   3.484   0.354  0.4676 -0.2094 -0.5430
12407TIP3    H158712   6.222   3.496   0.407 -0.1075  0.0383 -1.4534
12407TIP3    H258713   6.316   3.390   0.353 -1.6213 -0.5724 -2.9503
12408TIP3   OH258714   3.396   5.433  14.729  0.0611 -0.0886 -0.0721
12408TIP3    H158715   3.456   5.488  14.777 -0.0549 -0.5106  0.5588
12408TIP3    H258716   3.328   5.493  14.698 -0.7702 -0.0708  1.7244
12409TIP3   OH258717   1.797   5.137  15.137  0.1473 -0.7399 -0.7206
12409TIP3    H158718   1.813   5.181  15.220  1.3087  0.0480 -1.3397
12409TIP3    H258719   1.859   5.063  15.136 -0.2206 -1.0481 -0.6581
12410TIP3   OH258720   2.417   1.758   3.559 -0.4515  0.0850  0.2899
12410TIP3    H158721   2.374   1.691   3.506 -0.7001  1.7364 -1.6714
12410TIP3    H258722   2.377   1.841   3.531  0.5718  1.1673  1.9108
12411TIP3   OH258723   5.103   2.739   1.355  1.0149 -0.3407  0.0397
12411TIP3    H158724   5.055   2.819   1.336 -1.0603 -1.5325  0.1199
12411TIP3    H258725   5.038   2.679   1.391  2.9364 -1.4029  1.8717
12412TIP3   OH258726   0.289   4.350  14.563 -0.0326 -0.1086  0.3908
12412TIP3    H158727   0.245   4.403  14.498  0.1068 -0.7135 -0.2027
12412TIP3    H258728   0.220   4.323  14.623  0.2431  2.5022  1.9305
12413TIP3   OH258729   2.584   3.360   0.363 -0.0510  0.2020  0.2504
12413TIP3    H158730   2.593   3.265   0.364 -0.7865  0.1199  0.0166
12413TIP3    H258731   2.673   3.394   0.367  0.2648 -0.5092 -0.6277
12414TIP3   OH258732   2.141   4.615   0.383  0.3241 -0.5093 -0.2477
12414TIP3    H158733   2.223   4.615   0.433 -0.6384 -1.2487  1.3868
12414TIP3    H258734   2.164   4.573   0.300  2.0676  1.1896 -0.6425
12415TIP3   OH258735   0.864   1.461  14.024  0.3510 -0.0887 -0.5429
12415TIP3    H158736   0.954   1.486  14.003 -0.2739  0.0306 -3.2788
12415TIP3    H258737   0.867   1.365  14.026  0.7608 -0.0600  0.4783
12416TIP3   OH258738   4.508   1.045  14.197 -0.4328  0.2624  0.4750
12416TIP3    H158739   4.509   0.971  14.257  0.7908 -0.2778 -0.1942
12416TIP3    H258740   4.480   1.119  14.251 -0.7226 -0.4882  1.3718
12417TIP3   OH258741   2.718   3.668  14.673  0.4993  0.2321  0.1277
12417TIP3    H158742   2.664   3.589  14.670  1.9367 -0.8037  1.2552
12417TIP3    H258743   2.792   3.648  14.616 -0.6922  1.9811 -2.1139
12418TIP3   OH258744   2.109   1.525   1.487  0.1702  0.1831  0.4969
12418TIP3    H158745   2.087   1.434   1.466  1.2881 -0.0202  0.1844
12418TIP3    H258746   2.078   1.537   1.577 -0.3683 -0.3743  0.3935
12419TIP3   OH258747   3.423   3.287   5.078  0.2798  0.1954  0.4900
12419TIP3    H158748   3.394   3.257   4.991  0.6419 -3.2442  1.4986
12419TIP3    H258749   3.504   3.335   5.061  1.2477 -1.8659 -0.9689
12420TIP3   OH258750   1.698   0.621  14.990  0.3811 -0.4612  0.3413
12420TIP3    H158751   1.765   0.689  14.997  1.9089 -1.8638 -0.3274
12420TIP3    H258752   1.662   0.613  15.078  1.6014 -0.1808  0.8722
12421TIP3   OH258753   1.185   3.951  14.008  0.1590  0.6548 -0.6660
12421TIP3    H158754   1.250   4.001  14.058  0.9624 -1.6548  0.6949
12421TIP3    H258755   1.109   3.945  14.067  0.8120 -1.3908  0.0176
12422TIP3   OH258756   1.542   1.518  13.072 -0.3708 -0.4848 -0.0929
12422TIP3    H158757   1.530   1.608  13.040  0.2182  0.0762  1.2245
12422TIP3    H258758   1.595   1.475  13.005 -0.9906  0.0296 -0.9247
12423TIP3   OH258759   1.425   0.504  11.524  0.8241  0.5773 -0.3480
12423TIP3    H158760   1.387   0.528  11.440 -0.0550 -1.0454 -0.4444
12423TIP3    H258761   1.350   0.503  11.584  1.7368  3.5877  0.8904
12424TIP3   OH258762   0.943   0.197  15.496  0.1194 -0.5344 -0.0686
12424TIP3    H158763   0.997   0.276  15.492 -0.4623  0.1869  4.2494
12424TIP3    H258764   1.005   0.128  15.521 -0.0592 -0.7283 -0.1593
12425TIP3   OH258765   5.153   5.856  15.144  0.0785  0.1778  0.4203
12425TIP3    H158766   5.222   5.883  15.083 -1.5678  0.0332 -1.5311
12425TIP3    H258767   5.166   5.913  15.220  4.0126 -1.6397  1.2550
12426TIP3   OH258768   0.839   4.400   3.567 -0.0867  0.3007  0.0452
12426TIP3    H158769   0.757   4.396   3.616  0.5029  2.8131  1.3639
12426TIP3    H258770   0.904   4.361   3.626 -0.2788 -1.5805 -0.9508
12427TIP3   OH258771   4.982   1.095  14.161  0.5012  0.2586 -0.1373
12427TIP3    H158772   4.900   1.140  14.141  0.4150 -0.1403 -0.7062
12427TIP3    H258773   5.034   1.159  14.210  0.1439  0.7614 -0.4171
12428TIP3   OH258774   6.175   2.753   3.927 -0.2009  0.0979  0.1458
12428TIP3    H158775   6.186   2.684   3.992  1.2616 -0.2762 -0.4711
12428TIP3    H258776   6.150   2.706   3.847  1.3430  0.2028 -0.4168
12429TIP3   OH258777   5.528   6.131   1.953  0.2279  0.3621  0.6936
12429TIP3    H158778   5.499   6.070   2.020  1.7887  0.9121  1.8962
12429TIP3    H258779   5.589   6.080   1.900 -1.8602 -0.4170 -1.0672
12430TIP3   OH258780   1.189   3.194   1.601  0.4026  0.2364  0.0104
12430TIP3    H158781   1.153   3.107   1.580  1.3257 -0.2127  0.2389
12430TIP3    H258782   1.121   3.236   1.653 -0.7248  0.2794 -1.4815
12431TIP3   OH258783   5.818   3.051  12.658  0.2656 -0.3091 -0.4973
12431TIP3    H158784   5.754   3.000  12.708  1.8951 -0.3995  1.5518
12431TIP3    H258785   5.834   2.998  12.580 -2.9150  0.2257 -1.6086
12432TIP3   OH258786   1.542   1.573  13.970 -0.0870 -0.1313 -0.5595
12432TIP3    H158787   1.472   1.585  13.906 -0.5052 -0.2187 -0.1177
12432TIP3    H258788   1.610   1.634  13.943  0.1454 -0.8737 -1.6679
12433TIP3   OH258789   3.915   1.257   4.475  0.2034  0.5108  0.3985
12433TIP3    H158790   3.977   1.231   4.408 -0.2058  0.6165 -0.0220
12433TIP3    H258791   3.952   1.337   4.512  2.3122 -1.5230  2.8342
12434TIP3   OH258792   0.079   6.648  16.836 -0.2435  0.1582 -0.4295
12434TIP3    H158793   0.098   6.707  16.909 -1.5116  1.6204 -1.2393
12434TIP3    H258794  -0.008   6.675  16.806 -0.6513 -1.8455 -1.1095
12435TIP3   OH258795   3.334   5.660   4.588 -0.6679  0.2160  0.2938
12435TIP3    H158796   3.379   5.668   4.673 -1.0179  1.8799  0.3441
12435TIP3    H258797   3.402   5.629   4.528  0.0276  0.7142  0.8143
12436TIP3   OH258798   2.133   0.247   6.890 -0.0020 -0.0266  0.4247
12436TIP3    H158799   2.114   0.338   6.868  0.5072 -0.2743 -1.0711
12436TIP3    H258800   2.228   0.240   6.886 -0.0941 -0.8670 -0.4233
12437TIP3   OH258801   1.006   1.777  13.343  0.5724  0.3625 -0.2923
12437TIP3    H158802   1.019   1.693  13.386  0.8699 -0.5788 -2.1787
12437TIP3    H258803   0.924   1.767  13.295 -1.1373  2.2960  2.1099
12438TIP3   OH258804   1.308   3.946   0.542 -0.5901  0.0300 -0.9493
12438TIP3    H158805   1.238   4.010   0.526 -0.4930  0.1392 -0.9371
12438TIP3    H258806   1.371   3.992   0.597 -1.0226 -0.4136 -0.0717
12439TIP3   OH258807   3.825   4.089  15.745 -0.2560 -0.0440 -0.5574
12439TIP3    H158808   3.871   4.171  15.763 -1.0789  0.6111 -1.4117
12439TIP3    H258809   3.733   4.108  15.763 -0.1217 -1.6105  2.0619
12440TIP3   OH258810   0.331   4.520  15.114 -0.3919  0.3095 -0.3363
12440TIP3    H158811   0.337   4.575  15.192  1.4072 -1.2590  0.6659
12440TIP3    H258812   0.244   4.481  15.119  0.3625 -1.1641  1.8741
12441TIP3   OH258813   6.584   5.870   4.398 -0.1983 -0.0225 -0.4035
12441TIP3    H158814   6.635   5.794   4.371  0.4307  0.2957 -0.1187
12441TIP3    H258815   6.498   5.855   4.359  0.2505 -0.3143 -1.3252
12442TIP3   OH258816   1.883   0.431  13.477  0.3633  0.1918  0.0594
12442TIP3    H158817   1.874   0.415  13.383 -0.8150 -4.1609  0.7744
12442TIP3    H258818   1.808   0.486  13.500  0.0204  0.3395 -1.3644
12443TIP3   OH258819   0.639   4.285   4.338  0.6901 -0.8110 -0.2996
12443TIP3    H158820   0.558   4.279   4.388 -0.2225 -2.0310 -1.8806
12443TIP3    H258821   0.696   4.219   4.377  0.9792  0.1166  0.8781
12444TIP3   OH258822   2.414   5.731   0.775 -0.0447  0.0207 -0.3310
12444TIP3    H158823   2.429   5.823   0.752 -0.5641 -0.4771 -2.7738
12444TIP3    H258824   2.320   5.727   0.795  0.1385  0.1703  0.5931
12445TIP3   OH258825   5.094   2.050  16.601  0.0427  0.0029  0.1561
12445TIP3    H158826   5.090   2.043  16.696  0.6944  0.2925  0.2061
12445TIP3    H258827   5.144   1.973  16.574  1.5822  0.9621  0.2071
12446TIP3   OH258828   4.271   3.993  12.500 -0.5607  0.4694  0.1010
12446TIP3    H158829   4.344   3.969  12.443 -0.5066 -0.3107  0.4953
12446TIP3    H258830   4.203   4.023  12.441  0.0057  1.0255 -0.2842
12447TIP3   OH258831   3.426   0.269  13.282  0.3658  0.6113 -0.1059
12447TIP3    H158832   3.355   0.320  13.244 -1.4086 -1.9411 -0.3195
12447TIP3    H258833   3.438   0.305  13.370 -2.5900 -0.2244  0.6810
12448TIP3   OH258834   2.624   4.678   1.082 -0.5927 -0.0410 -0.4557
12448TIP3    H158835   2.616   4.657   0.988 -1.5793 -1.7123 -0.0231
12448TIP3    H258836   2.557   4.743   1.098 -2.3336 -1.8033 -0.3560
12449TIP3   OH258837   5.450   6.483   3.172  0.2551 -0.2550 -0.3666
12449TIP3    H158838   5.454   6.393   3.207  3.3584 -1.1764 -2.8735
12449TIP3    H258839   5.528   6.526   3.208 -0.8777  1.2699  0.3046
12450TIP3   OH258840   3.746   0.965  14.117  0.0317  0.1971  0.3431
12450TIP3    H158841   3.652   0.954  14.101  0.0277  0.8188 -0.0897
12450TIP3    H258842   3.786   0.886  14.083  0.0427  1.5426 -2.9348
12451TIP3   OH258843   3.827   6.057   5.530 -0.0296  0.2112  0.5711
12451TIP3    H158844   3.768   6.097   5.593 -3.0418 -1.5820 -1.0258
12451TIP3    H258845   3.833   6.120   5.458  0.0351  0.4001  0.7418
12452TIP3   OH258846   5.305   3.667  12.191 -0.1975  0.8570  0.1711
12452TIP3    H158847   5.400   3.681  12.191 -0.1789  0.7212 -0.4371
12452TIP3    H258848   5.295   3.574  12.173 -0.4717  1.0014 -0.4113
12453TIP3   OH258849   1.751   5.068  12.610 -0.4001  0.3854 -0.6435
12453TIP3    H158850   1.658   5.046  12.610 -0.5902  1.1457 -0.8272
12453TIP3    H258851   1.754   5.156  12.572  0.0619  1.8237  2.5953
12454TIP3   OH258852   5.186   5.669  12.323  0.4282  0.1240  0.5851
12454TIP3    H158853   5.109   5.613  12.309 -0.6904  1.6606  0.5489
12454TIP3    H258854   5.156   5.736  12.384  1.0851  2.0823 -1.2088
12455TIP3   OH258855   1.430   2.212   6.987 -0.5876  0.2204 -0.0032
12455TIP3    H158856   1.435   2.122   7.020 -0.0715  0.5206  0.7559
12455TIP3    H258857   1.506   2.223   6.931  0.5522  0.8618  1.6387
12456TIP3   OH258858   0.561   6.764  13.795 -0.1364  0.2264  0.0599
12456TIP3    H158859   0.528   6.761  13.705  0.4069  0.0152 -0.1378
12456TIP3    H258860   0.483   6.759  13.850 -0.4395 -0.1984 -0.4016
12457TIP3   OH258861   6.516   5.808   2.674 -0.0108  0.1770  0.2752
12457TIP3    H158862   6.536   5.809   2.767 -1.3081 -1.4007  0.6030
12457TIP3    H258863   6.597   5.839   2.631  0.4259  1.3678  1.9193
12458TIP3   OH258864   1.349   4.407   3.630  0.7573 -0.3000 -0.5098
12458TIP3    H158865   1.346   4.317   3.663  0.4155 -0.1180 -0.0346
12458TIP3    H258866   1.261   4.425   3.599 -0.4500  1.3884  3.5373
12459TIP3   OH258867   5.878   6.183  16.822  0.3444  0.2835  0.1416
12459TIP3    H158868   5.953   6.204  16.767  0.9220 -0.5859  0.5831
12459TIP3    H258869   5.894   6.232  16.903  0.5107  0.0047  0.2808
12460TIP3   OH258870   0.695   6.644  12.100 -0.5057  0.0959  0.0340
12460TIP3    H158871   0.741   6.675  12.179  0.4386  1.5169 -1.0461
12460TIP3    H258872   0.634   6.715  12.079  0.7538  0.7036 -1.7178
12461TIP3   OH258873   1.863   2.670  13.370  0.1423 -0.0712  0.3271
12461TIP3    H158874   1.848   2.763  13.388  0.0106 -0.1697  0.7152
12461TIP3    H258875   1.775   2.634  13.357  0.0895 -0.4772  1.7832
12462TIP3   OH258876   5.379   2.278  15.223 -0.4704  0.1765 -0.8080
12462TIP3    H158877   5.375   2.244  15.312 -1.3472  1.0064 -0.5232
12462TIP3    H258878   5.415   2.206  15.171  0.3979 -0.1887  0.2701
12463TIP3   OH258879   6.071   3.506  12.270 -0.1508 -0.0569  0.2925
12463TIP3    H158880   6.088   3.599  12.286  0.3213 -0.4660  2.2674
12463TIP3    H258881   6.093   3.463  12.352 -0.2615 -1.9452 -0.6459
12464TIP3   OH258882   5.497   6.801  16.523  0.9767 -0.0300 -0.1552
12464TIP3    H158883   5.477   6.893  16.503  1.1746 -0.1131 -0.7629
12464TIP3    H258884   5.577   6.783  16.473  1.3474 -0.3247  0.5371
12465TIP3   OH258885   0.495   6.209  15.398 -0.1750 -0.1584  0.1597
12465TIP3    H158886   0.469   6.220  15.306  4.0309 -1.5313 -1.3394
12465TIP3    H258887   0.414   6.185  15.443 -2.3819  0.6711 -3.1669
12466TIP3   OH258888   0.746   5.629  13.248 -0.4701  0.0840  0.6439
12466TIP3    H158889   0.736   5.583  13.165 -0.6180 -0.2974  0.8739
12466TIP3    H258890   0.661   5.673  13.261 -0.9998 -1.1191  1.3547
12467TIP3   OH258891   3.897   1.687  13.745 -0.2293  0.6128  0.1639
12467TIP3    H158892   3.906   1.595  13.723 -1.6090  0.5368 -0.1242
12467TIP3    H258893   3.984   1.724  13.731  0.1844 -0.5177 -0.2780
12468TIP3   OH258894   3.668   6.450   4.116  0.4582 -0.3072  0.0656
12468TIP3    H158895   3.631   6.370   4.155 -0.3359 -0.1562 -0.3646
12468TIP3    H258896   3.715   6.492   4.189  0.3702 -0.8593  0.4456
12469TIP3   OH258897   2.620   3.034   4.910 -0.1893 -0.0282 -0.5792
12469TIP3    H158898   2.710   3.033   4.942 -0.5638 -2.2631  0.5129
12469TIP3    H258899   2.594   3.126   4.914  1.2289  0.3203  1.4848
12470TIP3   OH258900   4.683   0.101   5.189  0.9981  0.0764 -0.0881
12470TIP3    H158901   4.632   0.039   5.138  1.3030  0.9363 -1.4644
12470TIP3    H258902   4.772   0.065   5.190  0.8497 -0.2809  0.4118
12471TIP3   OH258903   2.376   1.016   2.482  0.3584 -0.1097  0.5743
12471TIP3    H158904   2.459   1.035   2.526  1.2406 -1.7763 -0.3287
12471TIP3    H258905   2.346   0.934   2.522  0.3730 -0.7981 -0.8103
12472TIP3   OH258906   2.673   1.089  14.955 -0.2431  0.0810 -0.4624
12472TIP3    H158907   2.656   1.044  15.038  0.4470 -0.1287 -0.4348
12472TIP3    H258908   2.661   1.182  14.975 -0.8728 -0.0264 -0.3269
12473TIP3   OH258909   0.691   2.103  11.841 -0.1334 -0.7518 -0.3122
12473TIP3    H158910   0.743   2.040  11.790 -1.2281  0.2454 -2.7306
12473TIP3    H258911   0.753   2.173  11.861  0.2409 -1.0240 -0.5008
12474TIP3   OH258912   6.617   0.211   0.227 -0.4295 -0.1629  0.2022
12474TIP3    H158913   6.646   0.130   0.270 -0.2553 -0.4002 -0.3645
12474TIP3    H258914   6.554   0.182   0.161  1.1062 -0.0165 -1.3381
12475TIP3   OH258915   1.687   2.991   5.621 -0.5623  0.3056  0.1336
12475TIP3    H158916   1.702   3.016   5.712  0.1395  2.4546 -0.5385
12475TIP3    H258917   1.772   2.959   5.590 -0.1361  2.0016 -0.4876
12476TIP3   OH258918   6.605   5.311  14.450  0.3407 -0.5234  0.3589
12476TIP3    H158919   6.584   5.389  14.501  1.7795 -0.1562  0.4080
12476TIP3    H258920   6.520   5.274  14.426 -0.3457  0.0026  1.9503
12477TIP3   OH258921   0.145   1.208  12.408  0.8469 -0.0997 -0.9788
12477TIP3    H158922   0.179   1.252  12.486 -1.8780 -0.8303  0.7221
12477TIP3    H258923   0.200   1.131  12.398  0.9431 -0.2557  0.5547
12478TIP3   OH258924   1.814   3.834   5.718  0.0252 -0.1202  0.4416
12478TIP3    H158925   1.862   3.804   5.641 -1.0731 -2.1673  0.5452
12478TIP3    H258926   1.722   3.834   5.691 -0.3560 -0.7073  1.6928
12479TIP3   OH258927   1.599   5.860   1.009  0.3021  0.2593 -0.2301
12479TIP3    H158928   1.657   5.846   0.934  0.1133 -0.0556 -0.3154
12479TIP3    H258929   1.624   5.792   1.072  1.0547  1.0567  0.3537
12480TIP3   OH258930   5.693   3.980  11.739  0.1136 -0.0590  0.2566
12480TIP3    H158931   5.656   3.985  11.827 -0.5114  0.6299 -0.0352
12480TIP3    H258932   5.617   3.962  11.683  0.7291 -2.0381  0.0239
12481TIP3   OH258933   1.612   2.837   3.251  0.0654 -0.3553  0.4336
12481TIP3    H158934   1.649   2.764   3.202 -0.9193 -1.7923  1.7902
12481TIP3    H258935   1.518   2.830   3.238  0.0007  1.1042  0.0075
12482TIP3   OH258936   0.225   5.039   1.693  0.6462  0.1609 -0.3486
12482TIP3    H158937   0.135   5.014   1.716  0.7151  0.6777  0.5099
12482TIP3    H258938   0.278   4.962   1.713  0.5831  0.3166  0.4191
12483TIP3   OH258939   3.763   1.472  14.161 -0.1760 -0.1439  0.3242
12483TIP3    H158940   3.800   1.385  14.175 -0.6251 -0.5615 -0.9651
12483TIP3    H258941   3.827   1.517  14.106 -0.6764 -0.2237 -0.3408
12484TIP3   OH258942   0.030   4.079   4.491  0.0734 -0.4247  0.6591
12484TIP3    H158943   0.065   4.151   4.544 -1.2795  0.9577 -0.2694
12484TIP3    H258944   0.001   4.121   4.410 -1.1845 -1.9501  0.2906
12485TIP3   OH258945   0.947   0.377  13.205 -0.3714  0.5002  0.1180
12485TIP3    H158946   0.926   0.422  13.124 -0.3302  1.4624  0.6375
12485TIP3    H258947   1.041   0.359  13.199 -0.3011  0.8680  0.0942
12486TIP3   OH258948   6.481   6.581   0.121  0.4522  0.6769  0.0062
12486TIP3    H158949   6.414   6.609   0.058 -0.0240 -0.9748 -0.2402
12486TIP3    H258950   6.454   6.621   0.204 -1.2734 -0.5997  0.0735
12487TIP3   OH258951   5.708   3.804   3.407  0.0236 -0.3429 -0.0585
12487TIP3    H158952   5.617   3.833   3.419 -0.7831 -3.4239  2.2691
12487TIP3    H258953   5.755   3.841   3.482  0.6801  1.1973 -1.2279
12488TIP3   OH258954   4.054   3.121   4.296  0.6149  0.5403 -0.2679
12488TIP3    H158955   4.107   3.122   4.216  0.1610  1.7869 -0.5640
12488TIP3    H258956   4.078   3.201   4.343 -0.2957  0.6343  0.0580
12489TIP3   OH258957   4.244   3.889   6.399 -0.0297  0.2005 -0.4586
12489TIP3    H158958   4.148   3.884   6.395 -0.0892 -0.2821  1.2408
12489TIP3    H258959   4.263   3.927   6.484  1.2772  1.7407 -1.4010
12490TIP3   OH258960   1.486   4.584  17.020 -0.3848 -0.3557 -0.6672
12490TIP3    H158961   1.395   4.553  17.024 -0.1839 -1.0199 -1.2210
12490TIP3    H258962   1.535   4.524  17.075 -0.4030  0.4686  0.2617
12491TIP3   OH258963   5.523   4.228   4.133  0.0352 -0.2543 -0.4977
12491TIP3    H158964   5.540   4.319   4.109 -1.0691 -0.1012 -0.7051
12491TIP3    H258965   5.446   4.232   4.190  0.8086 -0.9254  0.6076
12492TIP3   OH258966   4.219   6.527   2.762 -0.1531  0.0459 -0.4742
12492TIP3    H158967   4.209   6.554   2.853 -1.5779 -1.5922 -0.1019
12492TIP3    H258968   4.307   6.555   2.737  1.0422 -1.3168  2.0822
12493TIP3   OH258969   4.398   1.174  13.884 -0.0263 -0.3751  0.3300
12493TIP3    H158970   4.352   1.102  13.927  0.5291 -1.1482 -0.3591
12493TIP3    H258971   4.334   1.245  13.881 -1.5793 -1.8041 -1.6785
12494TIP3   OH258972   4.361   2.355  15.652 -0.2331 -0.0115 -0.2451
12494TIP3    H158973   4.397   2.408  15.724 -1.1587  1.7411 -1.0232
12494TIP3    H258974   4.418   2.279  15.647  0.5563  0.4329  1.5715
12495TIP3   OH258975   3.161   0.989   4.364  0.1641 -0.4745  0.2261
12495TIP3    H158976   3.237   1.042   4.341 -0.6573  0.3528 -0.5852
12495TIP3    H258977   3.157   0.992   4.460  1.9463 -1.6361  0.3563
12496TIP3   OH258978   0.105   1.040   5.259 -0.1993  0.6269  0.6229
12496TIP3    H158979   0.064   1.111   5.209 -2.4656 -1.7979 -1.0579
12496TIP3    H258980   0.198   1.063   5.261 -0.7643  3.1978 -0.6323
12497TIP3   OH258981   4.266   1.099  12.824 -0.4143  0.1451 -0.4083
12497TIP3    H158982   4.319   1.143  12.757  0.4229 -2.0518 -1.2486
12497TIP3    H258983   4.311   1.119  12.906  0.2013  0.4940 -0.8166
12498TIP3   OH258984   6.371   1.882   4.713 -0.2049 -0.0654  0.2197
12498TIP3    H158985   6.295   1.843   4.668  1.4064 -0.2364 -2.4798
12498TIP3    H258986   6.447   1.841   4.671  1.4016  0.7318  2.2943
12499TIP3   OH258987   5.396   0.873   5.537 -0.0604  0.0461 -0.6911
12499TIP3    H158988   5.386   0.964   5.509  1.5418  0.9655  1.5890
12499TIP3    H258989   5.311   0.850   5.573 -0.0905  1.0719 -0.0933
12500TIP3   OH258990   4.565   2.954   1.752  0.1105  0.0159  0.0598
12500TIP3    H158991   4.539   2.884   1.812  1.4987 -0.1943  0.4175
12500TIP3    H258992   4.564   2.913   1.665 -0.8097  0.0315  0.0537
12501TIP3   OH258993   1.024   2.092   4.039  0.4999  0.3051  0.0192
12501TIP3    H158994   0.950   2.089   3.979  0.6347  1.6417 -0.2174
12501TIP3    H258995   1.092   2.040   3.996  0.0361 -0.1245 -0.1998
12502TIP3   OH258996   0.044   5.306   4.176  0.0538  0.2810  0.3505
12502TIP3    H158997   0.095   5.325   4.097  0.9254  0.6864  1.0144
12502TIP3    H258998  -0.023   5.244   4.146  0.1793  0.6732 -0.7775
12503TIP3   OH258999   5.935   5.654  16.579  0.5554 -0.0824 -0.1723
12503TIP3    H159000   5.964   5.586  16.518  1.1989  0.5385 -0.5554
12503TIP3    H259001   5.855   5.689  16.539  1.2885  0.7117 -0.9396
12504TIP3   OH259002   3.198   2.065   1.858  0.2880  0.2608  0.2823
12504TIP3    H159003   3.220   2.046   1.767 -1.3105  0.5423 -0.1735
12504TIP3    H259004   3.283   2.072   1.902  1.1040  0.9368 -1.3418
12505TIP3   OH259005   6.261   6.535  12.502  0.4671  0.9458 -0.2339
12505TIP3    H159006   6.242   6.554  12.410 -1.1545  1.2776  0.1563
12505TIP3    H259007   6.314   6.608  12.531  1.9129  0.2908 -1.1968
12506TIP3   OH259008   2.064   4.313   1.061 -0.0244  0.3965 -0.2071
12506TIP3    H159009   2.135   4.309   0.997  1.0717 -0.7662  1.0585
12506TIP3    H259010   2.107   4.301   1.145 -1.1393  4.1095  0.9932
12507TIP3   OH259011   6.407   0.920  10.752 -0.8048  0.1345  0.4298
12507TIP3    H159012   6.428   1.011  10.772 -1.0484  0.0392  1.1429
12507TIP3    H259013   6.402   0.877  10.838 -0.2735 -0.6413  0.0705
12508TIP3   OH259014   5.546   1.484   1.517  0.2165 -0.2171 -0.1264
12508TIP3    H159015   5.540   1.389   1.507 -1.3665 -0.0653 -0.6084
12508TIP3    H259016   5.487   1.505   1.589  0.2553  0.4655 -0.2911
12509TIP3   OH259017   5.649   2.172  15.451 -0.4948 -0.2554 -0.0624
12509TIP3    H159018   5.575   2.226  15.480  0.6243  1.9292 -1.1262
12509TIP3    H259019   5.661   2.108  15.522 -2.4061  0.3353  0.8365
12510TIP3   OH259020   2.304   1.953   4.590 -0.3551  0.3153 -0.4430
12510TIP3    H159021   2.321   1.911   4.675 -0.7534 -1.0501 -1.0289
12510TIP3    H259022   2.391   1.960   4.550 -0.2216  0.5382 -0.1188
12511TIP3   OH259023   1.158   2.933   2.590  0.2688  0.1451  0.2277
12511TIP3    H159024   1.192   2.898   2.507  2.0246 -1.5351  1.6181
12511TIP3    H259025   1.068   2.899   2.594 -0.1533  0.9936 -1.3968
12512TIP3   OH259026   4.283   2.120   0.498  0.2237 -0.5920 -0.2152
12512TIP3    H159027   4.253   2.030   0.515 -0.3137 -0.8087 -2.0955
12512TIP3    H259028   4.237   2.174   0.561 -1.8269 -1.2972 -1.0637
12513TIP3   OH259029   3.288   0.311  14.305 -0.6990  0.0053  0.0814
12513TIP3    H159030   3.343   0.373  14.353 -1.0038  0.8448 -0.6583
12513TIP3    H259031   3.205   0.357  14.293 -0.7995 -0.3973 -0.7972
12514TIP3   OH259032   4.351   3.383  10.851  0.1403 -0.6385  0.6152
12514TIP3    H159033   4.287   3.367  10.782  0.5150 -1.7895  0.5223
12514TIP3    H259034   4.423   3.323  10.832  2.9025  3.0995 -1.3408
12515TIP3   OH259035   0.218   2.332   4.913  0.1182  0.1862  0.4213
12515TIP3    H159036   0.260   2.301   4.993 -0.7980 -0.9398  0.4820
12515TIP3    H259037   0.199   2.253   4.863 -1.1122  0.7255 -0.0017
12516TIP3   OH259038   4.601   2.628   1.098  0.0353  0.5334  0.2810
12516TIP3    H159039   4.568   2.703   1.147 -1.4984  0.8978 -1.2623
12516TIP3    H259040   4.585   2.651   1.006  1.6374 -0.7051 -0.3277
12517TIP3   OH259041   0.853   2.705  16.661  0.2798 -0.3187  0.1467
12517TIP3    H159042   0.806   2.760  16.724 -1.6050  0.0565 -1.5237
12517TIP3    H259043   0.809   2.620  16.667  0.3535 -0.3939 -0.3642
12518TIP3   OH259044   3.674   6.712  14.041 -0.1724  0.6739  0.2149
12518TIP3    H159045   3.761   6.704  14.001 -0.6688  2.0401 -1.1860
12518TIP3    H259046   3.686   6.773  14.114  0.2114  0.1937  0.5542
12519TIP3   OH259047   5.292   1.227  11.815  0.3178 -0.6419 -0.1216
12519TIP3    H159048   5.212   1.176  11.830  0.3839 -0.7305 -0.0679
12519TIP3    H259049   5.340   1.220  11.898 -0.7015  1.3510  0.6682
12520TIP3   OH259050   3.794   1.973  13.695  0.7664 -0.5933  0.3437
12520TIP3    H159051   3.782   2.043  13.759  0.0190  0.0148 -0.4588
12520TIP3    H259052   3.804   1.894  13.749  0.3004 -0.0674  1.2249
12521TIP3   OH259053   5.057   0.850  15.377 -0.6119 -0.0786  0.4495
12521TIP3    H159054   5.066   0.943  15.400  1.0136  0.1912 -1.2257
12521TIP3    H259055   5.142   0.825  15.342 -1.1131 -2.1580  0.6246
12522TIP3   OH259056   2.231   5.507   5.219 -0.1006 -0.6451 -0.0293
12522TIP3    H159057   2.287   5.431   5.204 -0.0337 -0.7446  0.7047
12522TIP3    H259058   2.193   5.492   5.306 -0.8311 -0.3115 -0.2855
12523TIP3   OH259059   3.276   3.812   1.987 -0.1131  0.0734 -0.1401
12523TIP3    H159060   3.192   3.857   1.981 -0.7929 -0.9414  1.3232
12523TIP3    H259061   3.321   3.834   1.906 -1.4801  1.2545 -0.6024
12524TIP3   OH259062   0.927   3.094  17.187 -0.1660 -0.3716 -0.0895
12524TIP3    H159063   0.853   3.151  17.209 -0.2635 -0.6955  0.4320
12524TIP3    H259064   0.947   3.048  17.268 -0.6836 -1.7442 -0.7129
12525TIP3   OH259065   3.558   1.033  14.699 -0.5688 -0.6199  0.2159
12525TIP3    H159066   3.608   1.113  14.716 -1.8073  0.1137  0.4772
12525TIP3    H259067   3.610   0.964  14.740  0.2275  0.1311  0.4986
12526TIP3   OH259068   4.782   2.899   0.201  0.2431 -0.2213  0.2186
12526TIP3    H159069   4.778   2.995   0.192  0.5998 -0.1717  0.6064
12526TIP3    H259070   4.860   2.873   0.153  0.9445 -0.1702  1.2988
12527TIP3   OH259071   1.169   1.936   1.577 -0.4921  0.3860  0.5465
12527TIP3    H159072   1.183   2.005   1.513 -1.1251 -2.3542 -2.6784
12527TIP3    H259073   1.093   1.888   1.544 -0.3192 -1.6032  2.9322
12528TIP3   OH259074   5.939   3.901   2.075 -0.3071 -0.2473  0.3919
12528TIP3    H159075   5.869   3.909   2.140 -0.4629  0.2415  0.1700
12528TIP3    H259076   5.909   3.955   2.001 -1.0082 -2.3014 -0.8572
12529TIP3   OH259077   4.467   4.915   5.493 -0.3398  0.0217  0.1438
12529TIP3    H159078   4.538   4.891   5.553  0.3842  1.3553 -0.1515
12529TIP3    H259079   4.416   4.835   5.483  0.1851 -0.5321  1.6462
12530TIP3   OH259080   0.699   5.848  11.642 -0.2632 -0.1833 -0.4968
12530TIP3    H159081   0.661   5.897  11.714 -2.6595 -0.9717 -1.1982
12530TIP3    H259082   0.683   5.902  11.564  1.7346  0.3561 -0.5839
12531TIP3   OH259083   3.478   6.066   2.669  0.2297 -0.7158 -0.2217
12531TIP3    H159084   3.549   6.099   2.615  0.3281  0.6620  0.7403
12531TIP3    H259085   3.400   6.115   2.640  0.0881 -0.6904  0.2010
12532TIP3   OH259086   0.748   5.647   2.410  0.2645 -0.3126 -0.0232
12532TIP3    H159087   0.744   5.623   2.502  1.6369  0.7142  0.3153
12532TIP3    H259088   0.745   5.743   2.409 -0.1250 -0.3215 -1.0683
12533TIP3   OH259089   1.589   6.464  12.025  0.7569 -0.2630 -0.1150
12533TIP3    H159090   1.668   6.495  12.070  0.1130 -0.2155  0.9889
12533TIP3    H259091   1.528   6.442  12.095  0.2351 -1.5036 -0.9463
12534TIP3   OH259092   1.980   6.032  13.003 -0.1601  0.0670  0.6438
12534TIP3    H159093   2.013   5.977  13.075 -0.6022  1.0820  1.6399
12534TIP3    H259094   1.890   6.051  13.027 -0.2663  0.5243 -0.1192
12535TIP3   OH259095   2.828   2.606   4.903  0.3168 -0.9576 -0.4597
12535TIP3    H159096   2.916   2.571   4.913  0.7772  0.5436  1.0082
12535TIP3    H259097   2.842   2.697   4.875 -0.7915 -1.1124 -1.5426
12536TIP3   OH259098   5.555   4.901  15.500  0.3746  0.4719 -0.0642
12536TIP3    H159099   5.627   4.952  15.539  0.5782 -0.0034  0.1809
12536TIP3    H259100   5.598   4.825  15.461  0.0342  0.3342 -0.1682
12537TIP3   OH259101   2.468   1.074  16.008  0.0129 -0.0341  0.0870
12537TIP3    H159102   2.497   1.008  15.945 -0.3526 -0.3341  0.2373
12537TIP3    H259103   2.506   1.046  16.091 -0.4209 -0.2357  0.2145
12538TIP3   OH259104   3.171   3.246   1.891 -0.2345 -0.2894 -0.3449
12538TIP3    H159105   3.119   3.276   1.965 -1.7376 -1.1884 -1.0193
12538TIP3    H259106   3.116   3.182   1.846  1.3814 -1.1571 -1.1669
12539TIP3   OH259107   5.546   3.598   6.052  0.0727 -0.0883  0.3170
12539TIP3    H159108   5.461   3.634   6.027  0.2785 -0.7399 -1.4211
12539TIP3    H259109   5.528   3.544   6.129 -0.8602  0.7787  0.7073
12540TIP3   OH259110   0.839   6.532  14.110 -0.6379  0.2358  0.1167
12540TIP3    H159111   0.859   6.532  14.204 -0.0246 -0.6180 -0.0067
12540TIP3    H259112   0.795   6.448  14.095  2.2102 -1.1408 -0.9378
12541TIP3   OH259113   5.314   2.429   6.076  0.1461 -0.1432  0.0007
12541TIP3    H159114   5.345   2.510   6.118 -1.2408  0.3486  0.0935
12541TIP3    H259115   5.256   2.459   6.006  0.6414 -1.0317 -0.7918
12542TIP3   OH259116   0.486   5.687   0.965  0.1861 -0.2693  0.2127
12542TIP3    H159117   0.492   5.603   1.011  0.4954 -0.4733 -0.1868
12542TIP3    H259118   0.412   5.732   1.005  1.0915  0.0078  1.6328
12543TIP3   OH259119   0.900   0.141  10.723 -0.3774 -0.2771 -0.2477
12543TIP3    H159120   0.860   0.093  10.796  0.1300 -1.5856 -0.8158
12543TIP3    H259121   0.826   0.176  10.674 -0.7247  1.3793  1.3696
12544TIP3   OH259122   3.907   5.762  12.943 -0.2059 -1.0261 -0.0188
12544TIP3    H159123   3.962   5.700  12.896  0.4982 -1.6859  1.6417
12544TIP3    H259124   3.825   5.764  12.894 -0.0878 -2.9448 -0.3265
12545TIP3   OH259125   5.241   3.916  11.743 -0.4685  0.0699 -0.0743
12545TIP3    H159126   5.260   3.958  11.659 -2.5418  1.3575  0.0637
12545TIP3    H259127   5.147   3.898  11.740 -0.6308  0.4876  2.1375
12546TIP3   OH259128   6.730   1.888   5.727 -0.0589  0.4716 -0.3567
12546TIP3    H159129   6.816   1.899   5.685  0.3599 -0.3357  0.2974
12546TIP3    H259130   6.726   1.796   5.751  0.5902  1.3423  3.3054
12547TIP3   OH259131   6.290   4.307  13.282 -0.0553  0.0895  0.0005
12547TIP3    H159132   6.236   4.276  13.209  0.7047  2.3071 -1.5655
12547TIP3    H259133   6.261   4.256  13.357 -1.4697 -1.6345 -1.6734
12548TIP3   OH259134   4.107   2.523  12.983 -0.5296  0.6657 -0.2236
12548TIP3    H159135   4.140   2.438  13.012  1.1957  1.2419 -0.4278
12548TIP3    H259136   4.028   2.538  13.034 -0.2169 -0.5552  0.6199
12549TIP3   OH259137   1.501   2.705  14.067  0.1477 -0.7218 -0.5297
12549TIP3    H159138   1.493   2.637  14.000  1.2287 -1.4214  0.0330
12549TIP3    H259139   1.593   2.700  14.095 -0.0486  0.2168  0.3080
12550TIP3   OH259140   5.197   3.056  14.269 -0.1321 -0.0537 -0.2409
12550TIP3    H159141   5.286   3.064  14.234  0.7150 -1.7932  1.4101
12550TIP3    H259142   5.154   2.994  14.211 -0.2297  0.7258 -0.9965
12551TIP3   OH259143   5.939   0.338   4.474 -0.3228 -0.4216  0.3273
12551TIP3    H159144   5.846   0.358   4.465 -0.2124 -0.0984 -0.0856
12551TIP3    H259145   5.983   0.422   4.462 -0.0262 -0.4261  1.3332
12552TIP3   OH259146   2.827   3.082  15.348 -0.3394  0.0350 -0.0331
12552TIP3    H159147   2.803   3.150  15.410 -1.4512 -0.1058 -0.2944
12552TIP3    H259148   2.846   3.005  15.402  1.2130  0.6199  0.2814
12553TIP3   OH259149   2.920   4.658  13.496 -0.1498 -0.4548 -0.0183
12553TIP3    H159150   2.991   4.633  13.438 -0.4059  0.8787 -0.9137
12553TIP3    H259151   2.917   4.588  13.562  2.1186 -0.4038  0.1520
12554TIP3   OH259152   4.748   6.205   2.563 -0.2027  0.3770 -0.0323
12554TIP3    H159153   4.681   6.167   2.506  0.7912 -0.9647 -0.3441
12554TIP3    H259154   4.719   6.185   2.652  0.9527 -2.3282 -0.2116
12555TIP3   OH259155   3.730   2.308  13.151 -0.5974  0.6397 -0.5112
12555TIP3    H159156   3.706   2.264  13.070 -2.2784 -0.6898  0.6787
12555TIP3    H259157   3.647   2.335  13.190  0.1455  0.7091  1.0871
12556TIP3   OH259158   3.476   1.501  12.231 -0.3830 -0.3129 -0.1400
12556TIP3    H159159   3.494   1.464  12.318  0.1935  1.1778  0.4020
12556TIP3    H259160   3.384   1.526  12.235 -0.7970 -1.7472 -0.5394
12557TIP3   OH259161   5.393   4.283  10.941  0.2704  0.1082  0.3859
12557TIP3    H159162   5.480   4.256  10.971  1.4986  2.3766 -0.9800
12557TIP3    H259163   5.373   4.225  10.868  1.1183  0.2650  0.0238
12558TIP3   OH259164   1.166   4.064  11.954  0.3277 -0.0148  0.4321
12558TIP3    H159165   1.166   4.103  12.041  0.3168  1.3532 -0.1735
12558TIP3    H259166   1.215   4.126  11.899 -0.8582 -0.1702 -0.8391
12559TIP3   OH259167   1.318   5.341  11.495 -0.5854  0.2125 -0.5829
12559TIP3    H159168   1.275   5.264  11.533  1.3077 -1.0649 -0.9516
12559TIP3    H259169   1.390   5.360  11.555 -1.2908  1.9761 -0.2793
12560TIP3   OH259170   4.647   1.970  16.175  0.0343 -0.1075 -0.2081
12560TIP3    H159171   4.698   2.039  16.132 -0.2279 -1.3389 -2.5666
12560TIP3    H259172   4.621   2.009  16.258  3.3367  1.1904  0.3232
12561TIP3   OH259173   4.663   4.206   2.595  0.8196 -0.3622 -0.4391
12561TIP3    H159174   4.583   4.162   2.565  0.7429  0.0888 -0.8897
12561TIP3    H259175   4.667   4.186   2.689  1.4039 -2.3095 -0.8401
12562TIP3   OH259176   3.787   1.369  12.364  0.1910 -0.1274  0.0462
12562TIP3    H159177   3.763   1.277  12.358  0.2083 -0.0870 -0.6678
12562TIP3    H259178   3.711   1.416  12.330  0.9062  0.0382 -1.3806
12563TIP3   OH259179   0.889   2.367   2.712  0.2604  0.0552  0.3009
12563TIP3    H159180   0.819   2.315   2.750  0.0524  1.1255  1.4026
12563TIP3    H259181   0.848   2.449   2.687  0.5880 -0.2887 -1.4347
12564TIP3   OH259182   1.735   1.511  16.737  0.4202 -0.2339  0.3233
12564TIP3    H159183   1.688   1.452  16.679 -1.1710  0.1892  1.1318
12564TIP3    H259184   1.809   1.543  16.686  0.2592 -1.5204 -0.7189
12565TIP3   OH259185   2.669   3.379   1.161 -0.4539  0.5736  0.3772
12565TIP3    H159186   2.596   3.321   1.184 -1.6793  2.1796  0.6168
12565TIP3    H259187   2.680   3.366   1.067  0.7905 -1.7164  0.7936
12566TIP3   OH259188   5.732   3.690  12.688  0.6063 -0.1840  0.0524
12566TIP3    H159189   5.822   3.700  12.659  0.4774 -2.7032 -1.3680
12566TIP3    H259190   5.684   3.757  12.640  1.8680  2.0524  1.8086
12567TIP3   OH259191   2.658   2.654   4.072  0.1835 -0.3095  0.4410
12567TIP3    H159192   2.672   2.747   4.055 -3.5286  0.6078  1.9996
12567TIP3    H259193   2.653   2.615   3.985  2.1992  0.8280 -0.2263
12568TIP3   OH259194   4.416   0.041   1.941  0.3924  0.1982  0.0009
12568TIP3    H159195   4.425  -0.015   2.018  0.3461 -0.6436 -0.5931
12568TIP3    H259196   4.321   0.053   1.931  0.3425 -0.5069 -0.4816
12569TIP3   OH259197   0.748   4.013   3.834 -0.6800  0.7293 -0.0431
12569TIP3    H159198   0.826   3.958   3.827 -1.2499 -0.2373  1.2256
12569TIP3    H259199   0.720   4.005   3.925 -1.6649  1.8969 -0.2291
12570TIP3   OH259200   4.750   6.380  12.726 -0.0687 -0.4311  0.3212
12570TIP3    H159201   4.658   6.404  12.736 -0.4599 -1.9905  0.6111
12570TIP3    H259202   4.797   6.443  12.779 -0.8801  1.0377 -0.6754
12571TIP3   OH259203   2.259   1.052  12.426 -0.2945  0.7081  0.1772
12571TIP3    H159204   2.284   1.079  12.514 -1.4377  0.6636  0.5250
12571TIP3    H259205   2.224   1.132  12.386 -0.5107  0.5420  0.0325
12572TIP3   OH259206   2.636   4.240   5.379 -0.6614 -0.1441 -0.1852
12572TIP3    H159207   2.674   4.154   5.363  1.1010  0.6334 -0.1970
12572TIP3    H259208   2.651   4.289   5.298 -0.4303  0.6182  0.3092
12573TIP3   OH259209   1.152   2.775   0.178 -0.1094  0.3669  0.1906
12573TIP3    H159210   1.105   2.714   0.122 -0.2929 -0.2433  1.0164
12573TIP3    H259211   1.238   2.735   0.191  0.5148  1.2715 -0.9578
12574TIP3   OH259212   0.872   3.561  16.650 -0.3036 -0.1105  0.1655
12574TIP3    H159213   0.927   3.580  16.574 -2.2891 -2.0840 -1.8102
12574TIP3    H259214   0.929   3.511  16.709  0.9962  0.7014 -0.3930
12575TIP3   OH259215   1.203   6.053   5.582  0.4299  0.1044 -0.3127
12575TIP3    H159216   1.140   6.107   5.629  1.9152  1.4253  0.2230
12575TIP3    H259217   1.153   6.012   5.512 -0.6038  2.7948 -1.2175
12576TIP3   OH259218   3.163   1.197  14.175  0.8648  0.6021  0.6737
12576TIP3    H159219   3.220   1.267  14.207  0.5857  0.7874  0.7717
12576TIP3    H259220   3.152   1.216  14.082  0.1077  1.1794  0.8680
12577TIP3   OH259221   4.045   3.110  14.586  0.1984  0.3321  0.2435
12577TIP3    H159222   4.002   3.128  14.503  0.3506  0.1466  0.1239
12577TIP3    H259223   4.085   3.192  14.612 -1.8558  1.0507  1.3082
12578TIP3   OH259224   2.804   0.460   6.413  0.3198  0.6326  0.1250
12578TIP3    H159225   2.827   0.368   6.426  0.9056  0.7915  0.2555
12578TIP3    H259226   2.708   0.462   6.415  0.3171  0.2441  1.7543
12579TIP3   OH259227   4.632   6.288  17.087 -0.3005  0.1260  0.2769
12579TIP3    H159228   4.596   6.256  17.170 -0.1211 -0.6023  0.0822
12579TIP3    H259229   4.709   6.233  17.071  0.8269  1.5833  0.6148
12580TIP3   OH259230   4.541   0.437   5.931  0.0074 -0.6744  0.2157
12580TIP3    H159231   4.572   0.508   5.876 -2.1937  0.9191  0.9443
12580TIP3    H259232   4.605   0.432   6.003  0.4422  0.2265 -0.1079
12581TIP3   OH259233   4.576   4.712  15.542 -0.6041 -0.1152 -0.6648
12581TIP3    H159234   4.530   4.628  15.538 -0.4249 -0.1901 -1.1596
12581TIP3    H259235   4.659   4.692  15.585 -0.7344 -0.1158 -0.4126
12582TIP3   OH259236   5.066   3.746   4.504  0.3683 -1.1189  0.2145
12582TIP3    H159237   5.148   3.740   4.553  1.1030 -0.4256 -0.8932
12582TIP3    H259238   5.094   3.761   4.413 -0.9878 -0.6001 -0.1277
12583TIP3   OH259239   2.881   6.790   4.462 -0.1314 -0.4241  0.4553
12583TIP3    H159240   2.854   6.826   4.377  1.1975  0.3011  0.3183
12583TIP3    H259241   2.857   6.698   4.458 -2.1991  0.1090  0.2009
12584TIP3   OH259242   2.814   3.387   4.375 -0.5413  0.6352  0.3273
12584TIP3    H159243   2.815   3.442   4.296 -1.0121  0.3169  0.0966
12584TIP3    H259244   2.756   3.432   4.435 -0.9080  0.4080  0.1475
12585TIP3   OH259245   2.342   3.010  16.294 -0.0603  0.6136 -0.0537
12585TIP3    H159246   2.260   2.963  16.308  0.3489  0.1184  0.7307
12585TIP3    H259247   2.318   3.085  16.240 -0.8020 -0.2346 -0.9041
12586TIP3   OH259248   6.036   3.730   5.338  0.3417  0.4081 -0.6246
12586TIP3    H159249   6.052   3.661   5.274  0.0843  1.8108 -2.2203
12586TIP3    H259250   5.997   3.685   5.413  0.9522 -1.2938 -1.3234
12587TIP3   OH259251   2.136   0.391  11.838 -0.1561  0.1635 -0.0164
12587TIP3    H159252   2.043   0.412  11.830 -0.3128  0.4165  2.2071
12587TIP3    H259253   2.181   0.472  11.812 -0.4561 -0.5332 -2.9416
12588TIP3   OH259254   4.528   5.834   2.186  0.3341  0.1783  0.2201
12588TIP3    H159255   4.433   5.825   2.193  0.1795  1.4970  0.0079
12588TIP3    H259256   4.556   5.865   2.272  0.7626 -1.6058  0.7383
12589TIP3   OH259257   4.859   3.886  14.262 -0.0190  0.0783 -0.1362
12589TIP3    H159258   4.774   3.897  14.219  0.4243  0.3239 -0.9758
12589TIP3    H259259   4.914   3.954  14.222  0.3067  0.5672  1.1138
12590TIP3   OH259260   4.982   3.234   5.067 -0.1331 -0.3495  0.9882
12590TIP3    H159261   4.945   3.289   5.136 -1.6941 -0.9798  0.6975
12590TIP3    H259262   5.059   3.193   5.107 -0.2837  0.2823  1.9373
12591TIP3   OH259263   4.023   4.233  15.253  0.7800  0.1375  0.3787
12591TIP3    H159264   3.972   4.186  15.319  3.0339 -0.2404  1.9345
12591TIP3    H259265   4.001   4.325  15.265 -0.1955 -0.1002  0.4181
12592TIP3   OH259266   5.018   5.574  13.654 -0.4489 -0.5476 -0.1050
12592TIP3    H159267   4.953   5.629  13.698 -0.8673 -1.6200  0.6669
12592TIP3    H259268   4.966   5.509  13.606  0.0319 -1.5334  0.6779
12593TIP3   OH259269   0.011   1.813   2.610  0.3778  0.0912  0.6189
12593TIP3    H159270   0.084   1.794   2.550  0.6938 -0.5744  1.2075
12593TIP3    H259271  -0.057   1.849   2.554  0.7338 -0.3735 -0.1228
12594TIP3   OH259272   0.532   0.063   1.980 -0.2618 -0.3187 -0.1535
12594TIP3    H159273   0.484   0.016   2.049 -0.4830  0.5049  0.2638
12594TIP3    H259274   0.605   0.006   1.958  1.2673  0.4807  2.5462
12595TIP3   OH259275   3.982   4.799  10.433 -0.5063 -0.1041  0.1152
12595TIP3    H159276   4.027   4.745  10.368 -2.0169 -0.9046 -0.2827
12595TIP3    H259277   3.889   4.776  10.424 -0.9687  1.2640  1.1581
12596TIP3   OH259278   1.831   5.464  13.898 -0.3921 -0.0708  1.0381
12596TIP3    H159279   1.872   5.466  13.984  2.3519 -0.2068 -0.2058
12596TIP3    H259280   1.748   5.420  13.912 -0.2277  0.3553  3.6968
12597TIP3   OH259281   2.753   6.283  17.029 -0.8198 -0.4416 -0.2638
12597TIP3    H159282   2.721   6.341  17.097 -0.1860 -0.8471  0.3983
12597TIP3    H259283   2.725   6.323  16.947 -2.4487 -0.4722  0.2635
12598TIP3   OH259284   1.118   4.707  16.669 -0.1667  0.0834 -0.2848
12598TIP3    H159285   1.109   4.741  16.758 -0.2818 -0.4508 -0.0912
12598TIP3    H259286   1.069   4.768  16.615 -1.2144 -0.3354  0.1896
12599TIP3   OH259287   0.954   2.961   0.160  0.3391  0.5245 -0.1175
12599TIP3    H159288   1.020   2.913   0.210 -0.1568 -1.7420 -1.5807
12599TIP3    H259289   0.870   2.936   0.198  0.1969  2.2972  0.8067
12600TIP3   OH259290   5.798   5.193   4.041  0.0459 -0.3402  0.3744
12600TIP3    H159291   5.774   5.129   3.975 -1.6337 -0.0813  0.7083
12600TIP3    H259292   5.758   5.275   4.011 -0.4292 -0.1424  1.5322
12601TIP3   OH259293   0.685   2.253   1.624  0.1312  0.3059  0.1426
12601TIP3    H159294   0.636   2.328   1.657  0.5729  0.3476  0.7039
12601TIP3    H259295   0.740   2.226   1.697 -0.8572 -1.2804  0.3137
12602TIP3   OH259296   5.167   3.380   0.087 -0.6016 -0.4971  0.6233
12602TIP3    H159297   5.148   3.342   0.001  2.5104  0.7510 -0.6713
12602TIP3    H259298   5.193   3.304   0.141  1.0423 -0.8181 -0.6070
12603TIP3   OH259299   3.751   2.972  10.947 -0.1787 -0.0247  0.1058
12603TIP3    H159300   3.793   2.891  10.977  1.9766  0.5697 -1.1746
12603TIP3    H259301   3.742   3.025  11.027  0.5099 -0.6272  0.5915
12604TIP3   OH259302   1.828   3.781  14.815 -0.3028 -0.6736 -0.1646
12604TIP3    H159303   1.866   3.695  14.796 -0.2738 -0.8174  0.5430
12604TIP3    H259304   1.902   3.841  14.810 -0.3891 -0.6293 -1.0399
12605TIP3   OH259305   4.094   3.512  13.529  0.6609  0.0754 -0.7113
12605TIP3    H159306   4.048   3.544  13.607  1.5583  2.0743 -0.9877
12605TIP3    H259307   4.180   3.553  13.533  0.7470  0.1218 -2.7333
12606TIP3   OH259308   2.779   1.406  12.126 -0.2196 -0.0215  0.3884
12606TIP3    H159309   2.699   1.459  12.130 -0.5139 -0.5399  1.3006
12606TIP3    H259310   2.797   1.382  12.217 -0.8784 -2.6609 -0.1289
12607TIP3   OH259311   1.421   0.072   5.077 -0.2981 -0.6560 -0.0128
12607TIP3    H159312   1.400   0.025   4.997  0.4955 -1.6606  0.3438
12607TIP3    H259313   1.499   0.028   5.111  0.1191  0.5531  0.6508
12608TIP3   OH259314   1.949   3.306   5.630 -0.1618  0.0407 -0.2692
12608TIP3    H159315   1.959   3.232   5.689  0.7312  0.1095 -0.3249
12608TIP3    H259316   1.978   3.273   5.545 -0.5766  0.2077 -0.4777
12609TIP3   OH259317   6.434   1.763   1.249  0.3682 -0.4387  0.4956
12609TIP3    H159318   6.430   1.814   1.330 -0.3064 -0.4464  0.4673
12609TIP3    H259319   6.404   1.676   1.275  0.5571 -0.5526  0.3289
12610TIP3   OH259320   4.068   5.510   4.724  0.0526 -0.4985 -0.2894
12610TIP3    H159321   4.142   5.524   4.665  0.0709 -2.9654 -0.8875
12610TIP3    H259322   4.105   5.517   4.812  1.0411 -1.9543 -0.5856
12611TIP3   OH259323   2.652   2.384  14.816  0.4294  0.0384 -0.3499
12611TIP3    H159324   2.688   2.448  14.877  0.5822 -0.7245  0.3654
12611TIP3    H259325   2.641   2.304  14.868 -0.4025 -0.3183 -1.0626
12612TIP3   OH259326   1.109   0.471  14.872 -0.1752 -0.5481 -0.0223
12612TIP3    H159327   1.078   0.484  14.961  2.0718 -0.7488  0.8403
12612TIP3    H259328   1.039   0.503  14.816 -1.8548 -0.9726  1.8095
12613TIP3   OH259329   4.439   0.802   2.321 -0.1496  0.4018 -0.1410
12613TIP3    H159330   4.482   0.783   2.237  0.9606  0.4138  0.4188
12613TIP3    H259331   4.511   0.820   2.381 -0.8096 -2.1493  1.4567
12614TIP3   OH259332   4.527   5.210   0.444  0.0862 -0.1309 -0.2374
12614TIP3    H159333   4.442   5.225   0.402  0.2173  0.3995 -0.3123
12614TIP3    H259334   4.588   5.202   0.371  0.1480 -0.2367 -0.1737
12615TIP3   OH259335   4.570   2.568   3.263 -0.1652 -0.0310  0.6059
12615TIP3    H159336   4.578   2.587   3.170  2.2055  2.5544  1.2541
12615TIP3    H259337   4.646   2.513   3.283  0.6429  1.3523  1.4313
12616TIP3   OH259338   0.700   2.814   0.285  0.0492 -0.6154 -0.2563
12616TIP3    H159339   0.737   2.726   0.290 -1.7058 -1.3488 -0.0845
12616TIP3    H259340   0.650   2.824   0.366 -1.5084 -0.2547 -1.2555
12617TIP3   OH259341   0.491   4.544   6.357 -0.2480 -0.2034  0.8050
12617TIP3    H159342   0.484   4.518   6.449  0.5952 -0.5481  0.7766
12617TIP3    H259343   0.455   4.470   6.309  0.7088 -0.6763  0.7968
12618TIP3   OH259344   2.626   1.077  10.820 -0.1257  0.2926  0.3818
12618TIP3    H159345   2.537   1.081  10.855 -0.1733 -1.5786  0.5061
12618TIP3    H259346   2.625   1.139  10.747 -2.1286 -1.1649 -0.9046
12619TIP3   OH259347   0.440   0.029  17.077  0.2296 -0.4100 -0.5430
12619TIP3    H159348   0.462  -0.020  16.997  0.4324 -0.5079 -0.4263
12619TIP3    H259349   0.379  -0.028  17.124  4.2048 -2.8062  1.9857
12620TIP3   OH259350   5.589   1.478  12.129 -0.4108  0.5316 -0.2337
12620TIP3    H159351   5.677   1.462  12.096  0.9987  2.0266  2.5908
12620TIP3    H259352   5.568   1.567  12.100 -0.4503  0.6698  0.2122
12621TIP3   OH259353   3.840   0.522  10.595 -0.1321 -0.4019 -0.3325
12621TIP3    H159354   3.841   0.593  10.530 -0.2371 -0.2745 -0.1973
12621TIP3    H259355   3.916   0.539  10.650  0.8781 -1.4234 -1.3962
12622TIP3   OH259356   2.219   1.735   1.309 -0.1250  0.5219  0.5425
12622TIP3    H159357   2.249   1.784   1.386  2.5482 -0.0970 -0.0278
12622TIP3    H259358   2.170   1.661   1.345 -1.5813  1.9313  1.5128
12623TIP3   OH259359   4.541   3.317   4.814 -0.3229  0.0446  0.6274
12623TIP3    H159360   4.458   3.353   4.784 -0.5116 -1.9664 -1.4577
12623TIP3    H259361   4.517   3.246   4.873 -0.0752 -0.1127  0.5416
12624TIP3   OH259362   6.093   4.929  15.820  0.2197  0.0142 -0.9508
12624TIP3    H159363   6.138   4.882  15.750 -0.9557 -0.1899 -1.5869
12624TIP3    H259364   6.075   5.015  15.783  0.0016  0.0609 -0.7378
12625TIP3   OH259365   4.386   6.706  12.342 -0.3939  0.3720  0.3904
12625TIP3    H159366   4.461   6.764  12.356  0.0380  0.3010 -1.5350
12625TIP3    H259367   4.421   6.635  12.289 -1.6380 -0.0899  0.1925
12626TIP3   OH259368   4.509   1.722   5.831 -0.6201 -0.1022  0.2225
12626TIP3    H159369   4.554   1.784   5.889 -0.3921 -0.9652  0.9835
12626TIP3    H259370   4.508   1.640   5.881  1.0398 -1.2996 -1.6256
12627TIP3   OH259371   0.343   0.882  15.948  0.1631  0.2276  0.4870
12627TIP3    H159372   0.432   0.847  15.956 -0.9269 -2.1823  2.7453
12627TIP3    H259373   0.319   0.908  16.037 -1.3681  0.8847 -0.1054
12628TIP3   OH259374   4.485   4.903  11.771  0.1619  0.0254 -0.4780
12628TIP3    H159375   4.493   4.998  11.759  0.0940  0.0684 -0.1730
12628TIP3    H259376   4.400   4.882  11.732  0.0009  0.1475 -0.1905
12629TIP3   OH259377   5.145   5.760  16.190  0.1269  0.2701  0.4424
12629TIP3    H159378   5.161   5.787  16.281  0.1683 -1.1175  0.8528
12629TIP3    H259379   5.067   5.808  16.164 -0.3712  0.0333  1.4925
12630TIP3   OH259380   1.073   4.980   5.423 -0.2491  0.6820  0.0836
12630TIP3    H159381   1.165   4.957   5.440  0.0938  2.8611  1.3856
12630TIP3    H259382   1.077   5.035   5.345 -0.4001  1.0414  0.3278
12631TIP3   OH259383   6.068   1.159  13.891  0.9646  0.3253 -0.4343
12631TIP3    H159384   6.035   1.152  13.981 -0.3119 -1.4393 -1.0084
12631TIP3    H259385   6.068   1.253  13.873  0.7517  0.6615  1.2421
12632TIP3   OH259386   6.564   4.864   1.397 -0.2284  0.7242 -0.4031
12632TIP3    H159387   6.576   4.882   1.303  0.4453 -0.5051 -0.5581
12632TIP3    H259388   6.518   4.780   1.400  0.7933  0.1835  0.3801
12633TIP3   OH259389   1.165   4.492  14.448  0.7015 -1.0413 -0.3751
12633TIP3    H159390   1.217   4.481  14.527  0.1013 -0.4432  0.1162
12633TIP3    H259391   1.213   4.556  14.395  1.1024 -1.4415 -0.4903
12634TIP3   OH259392   1.064   0.007   3.959  0.3269 -0.2211  0.1356
12634TIP3    H159393   1.133   0.042   3.903  1.1573  0.6555  1.6808
12634TIP3    H259394   1.049  -0.082   3.925  1.6065 -0.1254 -0.7465
12635TIP3   OH259395   0.187   2.025  13.385 -0.3075  0.2902  1.0377
12635TIP3    H159396   0.272   2.041  13.343 -0.8040 -0.6537 -0.3322
12635TIP3    H259397   0.165   1.935  13.362 -1.7874  0.5972  1.2021
12636TIP3   OH259398   0.459   6.296  11.763  0.1209 -0.0033 -0.0435
12636TIP3    H159399   0.373   6.335  11.746 -1.1707 -1.8547  1.9454
12636TIP3    H259400   0.484   6.329  11.849  1.3950  0.4477 -0.5700
12637TIP3   OH259401   2.649   4.113   1.759  0.6506  0.0095 -0.0499
12637TIP3    H159402   2.628   4.024   1.790  1.8687 -0.3596 -0.2624
12637TIP3    H259403   2.592   4.126   1.683  0.7538 -0.7383 -0.2582
12638TIP3   OH259404   2.266   0.135   3.602  0.3538 -0.1081 -0.2463
12638TIP3    H159405   2.258   0.051   3.648  1.4309  0.0046  0.1703
12638TIP3    H259406   2.319   0.114   3.525 -2.8551 -0.6559 -2.4145
12639TIP3   OH259407   5.333   0.158  15.501 -0.2615 -0.0916  0.6440
12639TIP3    H159408   5.243   0.172  15.470  0.3091  2.7561  0.1738
12639TIP3    H259409   5.372   0.100  15.436 -1.3488 -0.2521  0.1194
12640TIP3   OH259410   0.072   5.040  17.251 -0.5038  1.1139  0.0854
12640TIP3    H159411   0.058   5.117  17.195  3.7252  2.7665  1.1467
12640TIP3    H259412   0.098   4.971  17.189 -0.7130  1.5388 -0.4862
12641TIP3   OH259413   4.975   6.011  10.937 -0.3239  0.6724  0.3273
12641TIP3    H159414   4.893   6.010  10.888 -0.9336  0.3886  1.3535
12641TIP3    H259415   4.956   6.060  11.017  0.7631  1.4448  0.1295
12642TIP3   OH259416   6.311   2.247   5.907  0.1339  0.3396  0.5561
12642TIP3    H159417   6.314   2.342   5.918 -1.7765  0.4173  0.5540
12642TIP3    H259418   6.220   2.228   5.888  0.3834 -1.5737  1.1936
12643TIP3   OH259419   2.231   6.154  16.617 -0.0900 -0.7868 -0.2585
12643TIP3    H159420   2.276   6.153  16.701  1.6754  0.1367 -1.1518
12643TIP3    H259421   2.185   6.237  16.615 -1.3020 -1.4309  0.3706
12644TIP3   OH259422   2.182   3.106  14.052  0.0459 -0.3874  0.3647
12644TIP3    H159423   2.172   3.072  13.963 -0.3011 -0.5289  0.4587
12644TIP3    H259424   2.093   3.116  14.084  0.1508  0.3297  0.4446
12645TIP3   OH259425   0.998   6.509   1.405 -0.2124  0.2557  0.5856
12645TIP3    H159426   1.018   6.442   1.470  0.3041  2.4512  2.7674
12645TIP3    H259427   0.904   6.525   1.416 -0.1718  0.4647  0.6210
12646TIP3   OH259428   6.650   0.456   5.373  0.1294  0.5170 -0.6578
12646TIP3    H159429   6.736   0.474   5.410 -0.1251  1.1968 -0.3920
12646TIP3    H259430   6.664   0.383   5.312  0.2754 -1.6753  1.9176
12647TIP3   OH259431   2.228   3.342  12.577 -0.3157  0.2464  0.1578
12647TIP3    H159432   2.238   3.252  12.608 -0.8824 -0.3209 -1.2988
12647TIP3    H259433   2.290   3.349  12.504 -1.5767  0.4825 -0.8985
12648TIP3   OH259434   3.908   3.526  12.694 -0.5572 -0.5563  0.2727
12648TIP3    H159435   3.820   3.503  12.664 -0.1353 -1.7300 -0.1052
12648TIP3    H259436   3.930   3.606  12.647 -1.2040 -0.5654 -0.0416
12649TIP3   OH259437   3.288   4.926  14.377  0.1664 -0.3896  0.5757
12649TIP3    H159438   3.228   4.986  14.334 -1.9870 -1.7450  1.5739
12649TIP3    H259439   3.348   4.897  14.308 -0.0900  1.2558 -0.3541
12650TIP3   OH259440   2.784   2.772  11.214 -0.2831  0.4778  0.2403
12650TIP3    H159441   2.693   2.757  11.189 -0.1798 -1.0411  0.7137
12650TIP3    H259442   2.816   2.686  11.242  1.6956  0.7237 -1.1764
12651TIP3   OH259443   6.681   1.860   0.801  0.6985  0.0015  0.0964
12651TIP3    H159444   6.605   1.832   0.853  0.7190  1.3087  0.8412
12651TIP3    H259445   6.755   1.818   0.843  0.3838 -1.4129 -0.7295
12652TIP3   OH259446   6.338   1.874  16.461  0.5633  0.0048 -0.1060
12652TIP3    H159447   6.405   1.909  16.403  0.8864 -0.3613  0.0457
12652TIP3    H259448   6.313   1.948  16.516  0.6582  0.2092 -0.3327
12653TIP3   OH259449   4.212   3.228   0.852  0.1694  1.0016  0.4359
12653TIP3    H159450   4.235   3.279   0.930 -1.1086 -0.2402  1.6649
12653TIP3    H259451   4.116   3.230   0.850  0.1318 -0.6153  0.0150
12654TIP3   OH259452   4.526   3.497   5.559 -0.1692 -0.5142 -0.0109
12654TIP3    H159453   4.617   3.479   5.583 -0.2280 -2.2319 -0.9938
12654TIP3    H259454   4.525   3.494   5.464 -0.8103  1.9021 -0.1138
12655TIP3   OH259455   5.472   3.632   0.475  0.1544 -0.1760 -0.0385
12655TIP3    H159456   5.518   3.689   0.537  0.3006 -0.6756  0.3187
12655TIP3    H259457   5.501   3.660   0.389 -0.3695  0.8088  0.0996
12656TIP3   OH259458   5.453   4.775  13.101  0.8036 -0.0449  0.0447
12656TIP3    H159459   5.444   4.807  13.011 -1.3564  0.1989  0.3205
12656TIP3    H259460   5.474   4.853  13.152  1.4744 -0.0881 -0.1627
12657TIP3   OH259461   3.020   6.483  11.769 -0.1988 -0.3034  0.2818
12657TIP3    H159462   3.043   6.410  11.827 -0.4068 -0.1723  0.5301
12657TIP3    H259463   3.104   6.514  11.734 -0.0084  0.0789  1.0693
12658TIP3   OH259464   2.485   3.528   5.099 -0.0041 -0.3703  0.3611
12658TIP3    H159465   2.570   3.485   5.090  0.6928  1.5150 -2.5140
12658TIP3    H259466   2.426   3.476   5.044 -0.1279 -0.1368  0.2729
12659TIP3   OH259467   6.192   3.600  13.148 -0.3910  0.5326 -0.6990
12659TIP3    H159468   6.280   3.569  13.128  0.5796  2.7299  0.0637
12659TIP3    H259469   6.141   3.582  13.068  0.5632 -1.2826 -0.9269
12660TIP3   OH259470   0.364   3.344   4.896  0.2179  0.7214 -0.1338
12660TIP3    H159471   0.315   3.421   4.869  1.2411  1.0268 -1.1999
12660TIP3    H259472   0.442   3.344   4.839 -1.2407 -2.7867 -2.3363
12661TIP3   OH259473   4.603   5.875   3.533 -0.2221  0.4618 -0.4114
12661TIP3    H159474   4.698   5.882   3.544 -0.2610  1.4459 -0.6082
12661TIP3    H259475   4.592   5.813   3.461  0.2736  0.4588 -0.4917
12662TIP3   OH259476   2.862   4.086   0.427 -0.2455  0.4298 -0.3006
12662TIP3    H159477   2.815   4.096   0.344  1.6266  0.1470 -1.4357
12662TIP3    H259478   2.839   3.999   0.458  0.8085 -0.3635 -1.6959
12663TIP3   OH259479   0.876   4.632   1.609 -0.2737  0.0135 -0.5762
12663TIP3    H159480   0.870   4.638   1.704 -2.6164  2.0005 -0.7996
12663TIP3    H259481   0.873   4.538   1.591 -2.9284 -0.2958  1.1803
12664TIP3   OH259482   6.573   1.064   0.080 -0.0606  0.4959 -0.1596
12664TIP3    H159483   6.576   1.141   0.023 -1.2017 -1.1170 -2.4616
12664TIP3    H259484   6.639   1.005   0.044  0.4040  0.1269  1.2456
12665TIP3   OH259485   5.459   5.244  15.829 -0.1023 -0.2899 -0.3811
12665TIP3    H159486   5.522   5.290  15.885 -0.8486  0.2771  0.0178
12665TIP3    H259487   5.416   5.315  15.781 -1.1200 -0.5850  0.0857
12666TIP3   OH259488   3.355   6.461  14.288  0.1352 -0.2689 -0.0176
12666TIP3    H159489   3.412   6.533  14.315  0.0345 -0.2961  0.2579
12666TIP3    H259490   3.293   6.501  14.227 -1.3482  0.3419  1.8463
12667TIP3   OH259491   6.262   4.279  12.573  0.6583  0.6404  0.5815
12667TIP3    H159492   6.343   4.324  12.594  1.7586 -2.1193  2.6643
12667TIP3    H259493   6.290   4.192  12.544 -1.3768  1.1117 -3.0791
12668TIP3   OH259494   3.418   0.619   0.664 -0.2008  0.2537  0.1115
12668TIP3    H159495   3.463   0.683   0.719  0.9250 -0.7830  0.4166
12668TIP3    H259496   3.446   0.639   0.575 -0.4365  0.6516  0.1259
12669TIP3   OH259497   4.124   3.291  13.376 -0.1014 -0.1954  0.3079
12669TIP3    H159498   4.214   3.266  13.397 -0.5534 -0.4181  2.0041
12669TIP3    H259499   4.106   3.368  13.430 -1.3760 -0.9466  0.9747
12670TIP3   OH259500   4.869   4.918   3.099 -0.0877 -0.7258 -0.2428
12670TIP3    H159501   4.952   4.893   3.139 -0.8006 -3.8025 -0.5349
12670TIP3    H259502   4.870   4.874   3.014 -1.6800 -0.1242 -0.5839
12671TIP3   OH259503   3.564   2.916   2.322  0.0841 -0.5622  0.2383
12671TIP3    H159504   3.477   2.877   2.334 -0.6285  1.0870  0.5636
12671TIP3    H259505   3.590   2.945   2.409  0.4594 -0.0186 -0.0482
12672TIP3   OH259506   5.239   4.457  15.054  0.0902 -0.1271 -0.1583
12672TIP3    H159507   5.294   4.437  14.978  2.1187  0.8762  1.0022
12672TIP3    H259508   5.216   4.549  15.042  2.5440  0.7773  1.6985
12673TIP3   OH259509   6.313   6.070  14.319 -0.1328  0.7363 -0.0636
12673TIP3    H159510   6.399   6.111  14.326 -0.6604  1.9508 -0.6684
12673TIP3    H259511   6.329   5.990  14.269  0.3969  1.7498 -1.5508
12674TIP3   OH259512   5.743   1.830   1.269 -0.3342 -0.4711  0.5070
12674TIP3    H159513   5.669   1.786   1.228 -0.8931  0.9231  0.0047
12674TIP3    H259514   5.711   1.857   1.355 -0.8064  1.1972 -0.1761
12675TIP3   OH259515   6.582   4.531   3.044  0.7218 -0.6911  0.0792
12675TIP3    H159516   6.610   4.485   3.123 -1.3523 -0.0536  1.2394
12675TIP3    H259517   6.510   4.478   3.011  0.1120  0.2415 -0.1067
12676TIP3   OH259518   1.780   4.415  12.298  0.4372 -0.0283 -0.3541
12676TIP3    H159519   1.717   4.382  12.362 -0.1636 -1.5320 -1.6794
12676TIP3    H259520   1.827   4.484  12.344 -2.1517  1.1195  0.6658
12677TIP3   OH259521   5.857   0.405   0.105 -0.1005 -0.4569  0.2466
12677TIP3    H159522   5.801   0.404   0.182 -0.0971  0.5992  0.2670
12677TIP3    H259523   5.920   0.335   0.120 -1.4922 -1.7684  0.1555
12678TIP3   OH259524   3.162   4.549   3.616 -0.3584 -0.5496 -0.3437
12678TIP3    H159525   3.191   4.463   3.649 -0.3836 -0.9780 -1.4129
12678TIP3    H259526   3.135   4.597   3.694 -0.6350 -1.6355  0.2380
12679TIP3   OH259527   0.188   0.137   1.582  0.1977 -0.2208 -0.4083
12679TIP3    H159528   0.219   0.121   1.671  1.0531  2.2506 -0.2102
12679TIP3    H259529   0.263   0.114   1.527  0.8089  1.2865 -0.2421
12680TIP3   OH259530   4.252   5.550  15.893  1.0810  0.3951  0.0092
12680TIP3    H159531   4.260   5.556  15.798  1.3134  0.6591  0.0472
12680TIP3    H259532   4.160   5.568  15.910  0.4392 -2.2884 -0.3957
12681TIP3   OH259533   2.155   2.337  11.485 -0.2785  0.0044 -0.2531
12681TIP3    H159534   2.162   2.326  11.390 -1.6975 -0.0755 -0.3609
12681TIP3    H259535   2.155   2.432  11.498 -2.6487  0.0689 -0.5637
12682TIP3   OH259536   3.509   6.523   3.004 -0.3722 -0.2041  0.5621
12682TIP3    H159537   3.510   6.572   3.086  1.7121  0.7252  0.0279
12682TIP3    H259538   3.529   6.433   3.030  2.1527  0.4083  0.9491
12683TIP3   OH259539   2.097   0.192   1.941 -0.5666 -0.1340 -0.6064
12683TIP3    H159540   2.126   0.102   1.933  1.0699  0.2911  0.3016
12683TIP3    H259541   2.156   0.242   1.884 -2.1646  0.2563 -1.9969
12684TIP3   OH259542   4.406   1.395  12.840 -0.8294 -0.5532  0.6903
12684TIP3    H159543   4.387   1.473  12.892  0.9651 -1.0235  2.1099
12684TIP3    H259544   4.385   1.420  12.750 -0.8440  1.3735  1.2090
12685TIP3   OH259545   1.357   0.601  16.123  0.4103 -0.1970  0.1701
12685TIP3    H159546   1.427   0.576  16.183 -0.4224 -1.6305  0.5639
12685TIP3    H259547   1.277   0.569  16.164 -0.3840  0.6524 -0.6990
12686TIP3   OH259548   0.229   4.811   3.343  0.1888 -0.2733  0.5269
12686TIP3    H159549   0.176   4.787   3.267  0.0129 -0.2834  0.6536
12686TIP3    H259550   0.195   4.757   3.414 -2.2655  2.4963  1.5818
12687TIP3   OH259551   4.892   5.087   4.000 -0.2409  0.5757  0.0962
12687TIP3    H159552   4.830   5.145   4.043  0.3734 -0.2625  2.1677
12687TIP3    H259553   4.937   5.143   3.937 -1.0189  1.8706  0.6573
12688TIP3   OH259554   1.456   0.786  15.400  0.1255 -0.1317  0.3187
12688TIP3    H159555   1.459   0.796  15.495  0.4081  0.5554  0.2398
12688TIP3    H259556   1.396   0.713  15.385  0.5432 -0.6217  1.0479
12689TIP3   OH259557   4.344   1.951   4.095 -0.1359  0.0571  0.2320
12689TIP3    H159558   4.300   2.028   4.130  1.0005 -0.4774  3.0671
12689TIP3    H259559   4.350   1.966   4.001 -2.1023  2.2752  0.4188
12690TIP3   OH259560   0.999   6.670  14.438  0.4808 -0.2750  0.0361
12690TIP3    H159561   0.983   6.579  14.412 -1.2714 -0.6568  2.2632
12690TIP3    H259562   1.042   6.663  14.523  1.2727  1.0074 -0.2407
12691TIP3   OH259563   4.500   6.330  15.238 -0.6639 -0.0231  0.9067
12691TIP3    H159564   4.547   6.258  15.280 -0.8817 -0.1430  0.9410
12691TIP3    H259565   4.560   6.361  15.170 -0.1664  0.3934  1.5303
12692TIP3   OH259566   0.334   2.751  15.840 -0.3866  0.3035  0.7377
12692TIP3    H159567   0.375   2.830  15.876  1.8331 -0.1806 -0.6103
12692TIP3    H259568   0.332   2.690  15.914  1.2268  0.4054  0.8914
12693TIP3   OH259569   3.048   1.867  12.544  0.2376 -0.7769 -0.3898
12693TIP3    H159570   3.003   1.935  12.593  1.3357 -1.4680  1.6290
12693TIP3    H259571   3.042   1.895  12.453 -1.5578  0.6869  0.1635
12694TIP3   OH259572   6.036   3.540   6.080  0.0122  0.0747 -0.4958
12694TIP3    H159573   6.043   3.629   6.115  0.0873 -0.2379  0.2999
12694TIP3    H259574   6.122   3.501   6.097  0.5780  0.4167 -2.4532
12695TIP3   OH259575   4.775   0.516   3.908  0.0250 -0.4740 -0.2546
12695TIP3    H159576   4.712   0.493   3.840  0.7433  0.3798 -1.2201
12695TIP3    H259577   4.743   0.471   3.986 -1.9405  0.1391 -0.6717
12696TIP3   OH259578   5.109   6.310  14.511 -0.0984 -0.3878 -0.3845
12696TIP3    H159579   5.117   6.305  14.416 -0.7566 -0.7732 -0.4238
12696TIP3    H259580   5.110   6.404  14.531  1.0701 -0.3310 -0.6752
12697TIP3   OH259581   4.073   5.849  16.158  0.3522  0.7311  0.2013
12697TIP3    H159582   4.007   5.860  16.227  0.8892  2.3123  0.4839
12697TIP3    H259583   4.155   5.878  16.199  0.9594  0.2204 -0.6328
12698TIP3   OH259584   4.185   2.612  16.483  0.8009  0.4401  0.2813
12698TIP3    H159585   4.229   2.629  16.566 -1.3231  1.1200  1.3135
12698TIP3    H259586   4.108   2.561  16.507  0.2529  0.4765 -1.3068
12699TIP3   OH259587   0.801   5.496  17.046  0.2826  0.0396  0.0406
12699TIP3    H159588   0.786   5.427  17.111 -2.5662  1.6980  1.2697
12699TIP3    H259589   0.799   5.578  17.096  2.4453  1.1245 -1.5428
12700TIP3   OH259590   2.843   2.626  11.681 -0.3966 -0.8615 -0.1560
12700TIP3    H159591   2.793   2.644  11.761 -0.9758  0.3111 -0.7801
12700TIP3    H259592   2.780   2.638  11.611  0.8621  0.9904 -0.9877
12701TIP3   OH259593   4.380   2.649   0.431  0.7467 -0.3317  0.1762
12701TIP3    H159594   4.332   2.729   0.455 -0.3890 -1.7575  2.9319
12701TIP3    H259595   4.336   2.616   0.353 -1.2894 -0.3466  1.2992
12702TIP3   OH259596   2.512   2.365   5.235  0.0500 -0.0867 -0.4172
12702TIP3    H159597   2.562   2.295   5.194  0.1274  0.3122 -1.0057
12702TIP3    H259598   2.465   2.407   5.163  0.3878  0.7816 -0.1449
12703TIP3   OH259599   2.757   5.338   6.437  0.6627 -0.1655 -0.1677
12703TIP3    H159600   2.751   5.243   6.424 -0.1863 -0.1013 -0.3230
12703TIP3    H259601   2.836   5.351   6.488  1.5999 -0.8373 -1.4325
12704TIP3   OH259602   3.590   1.189  12.176  0.3520  0.4611 -0.5577
12704TIP3    H159603   3.541   1.212  12.255  1.3178  3.0054 -0.6638
12704TIP3    H259604   3.675   1.158  12.207  0.2047  0.0548 -0.5517
12705TIP3   OH259605   4.596   6.680  15.558 -0.2145 -0.3120  0.4292
12705TIP3    H159606   4.621   6.640  15.642  1.1586  0.7728  0.5567
12705TIP3    H259607   4.548   6.759  15.583  1.6057  0.8844  0.2220
12706TIP3   OH259608   2.441   6.802   5.701  0.4439  0.0197  0.3233
12706TIP3    H159609   2.413   6.748   5.775 -0.5860  0.4538  0.2573
12706TIP3    H259610   2.514   6.753   5.662  1.2125 -0.0551  1.8082
12707TIP3   OH259611   3.294   0.756   2.137  0.0191 -0.4854 -0.6506
12707TIP3    H159612   3.297   0.679   2.080 -2.5088  0.3403 -1.9421
12707TIP3    H259613   3.203   0.761   2.165 -0.0394  2.5711 -1.3111
12708TIP3   OH259614   2.773   4.232   0.972 -0.5026  0.3287 -0.1331
12708TIP3    H159615   2.757   4.311   1.023 -2.1055 -0.1608  0.1544
12708TIP3    H259616   2.804   4.168   1.037  0.9337  0.7585 -0.3902
12709TIP3   OH259617   2.579   0.029   2.361 -0.1990 -0.0640  0.4131
12709TIP3    H159618   2.664   0.009   2.322 -0.5472  1.1599 -1.0232
12709TIP3    H259619   2.584   0.122   2.383 -1.0593 -0.0569  0.5981
12710TIP3   OH259620   0.476   4.176  13.637 -0.0244 -0.0046 -0.6642
12710TIP3    H159621   0.515   4.198  13.721 -0.9455  0.5379 -0.3716
12710TIP3    H259622   0.403   4.119  13.658  0.2377 -0.5326 -1.1636
12711TIP3   OH259623   6.046   4.346  14.159 -0.2524 -0.1957  0.2619
12711TIP3    H159624   6.108   4.342  14.232 -0.8113 -1.0184  0.6945
12711TIP3    H259625   5.980   4.409  14.186  0.2389  0.4780 -0.0867
12712TIP3   OH259626   1.812   4.167   1.919  0.2485  0.2472  0.2644
12712TIP3    H159627   1.736   4.111   1.902 -0.8888  1.6273  0.7079
12712TIP3    H259628   1.842   4.140   2.006  0.1011 -0.1184  0.2031
12713TIP3   OH259629   6.043   6.097   0.615  0.5724  0.0114  0.0179
12713TIP3    H159630   6.112   6.041   0.578  0.6808 -0.7820  1.4125
12713TIP3    H259631   6.091   6.169   0.656  0.3740  2.4804 -3.8239
12714TIP3   OH259632   1.236   6.090   6.930  0.3092 -0.1297  0.2269
12714TIP3    H159633   1.229   6.057   6.841 -0.0844 -0.2644  0.3079
12714TIP3    H259634   1.274   6.018   6.980  0.7026  0.0097  0.1310
12715TIP3   OH259635   0.421   0.141   4.445  0.1544 -0.5021 -0.1015
12715TIP3    H159636   0.348   0.198   4.468 -1.5455 -3.0034  0.9720
12715TIP3    H259637   0.476   0.194   4.387 -0.4217  2.7859  2.1654
12716TIP3   OH259638   6.179   1.983   1.598 -0.4641 -0.3881  0.2955
12716TIP3    H159639   6.225   2.003   1.680 -0.5410 -1.6108  0.6406
12716TIP3    H259640   6.175   2.067   1.553  1.2194 -0.0525  0.7182
12717TIP3   OH259641   2.812   1.795  13.868 -0.5580  0.0665 -0.3214
12717TIP3    H159642   2.888   1.812  13.813 -0.8468  1.0477 -0.4316
12717TIP3    H259643   2.762   1.877  13.866 -1.2252 -0.3136  0.3629
12718TIP3   OH259644   0.329   4.986  14.262 -0.0459  0.4602 -0.6273
12718TIP3    H159645   0.372   4.965  14.345  0.5936 -0.2734 -1.1317
12718TIP3    H259646   0.326   4.902  14.216 -0.7096  0.7994 -1.1994
12719TIP3   OH259647   1.829   3.567  14.073  0.0334 -0.1487 -0.1058
12719TIP3    H159648   1.782   3.563  14.156 -0.0159 -0.0784 -0.1304
12719TIP3    H259649   1.922   3.567  14.098  0.0603  3.3088  0.1427
12720TIP3   OH259650   2.775   4.685  12.131 -0.1752 -0.3232  0.1451
12720TIP3    H159651   2.755   4.700  12.224  2.4300 -1.6383  0.9514
12720TIP3    H259652   2.792   4.591  12.124  0.2153 -0.1455 -1.5537
12721TIP3   OH259653   1.152   2.289  16.134 -0.5665  0.0837 -0.6800
12721TIP3    H159654   1.104   2.321  16.210  1.4540 -1.4633  1.3116
12721TIP3    H259655   1.231   2.343  16.132  1.5508 -2.8006  1.0697
12722TIP3   OH259656   5.996   4.864   2.408  0.1965  0.6545  0.4310
12722TIP3    H159657   6.075   4.879   2.356  0.1866  0.2745  0.3091
12722TIP3    H259658   5.968   4.952   2.434  0.2869  0.8356 -0.0798
12723TIP3   OH259659   3.021   5.892   4.616 -0.1479 -0.3859 -0.6474
12723TIP3    H159660   2.936   5.930   4.591  1.2474  1.9246 -1.9912
12723TIP3    H259661   3.051   5.847   4.537  1.2780  1.4116 -1.1513
12724TIP3   OH259662   2.975   6.344   4.438  0.3905 -0.2917 -0.1935
12724TIP3    H159663   3.004   6.337   4.347 -0.6203 -2.3294 -0.3885
12724TIP3    H259664   2.939   6.258   4.459 -0.6940  0.5735  1.6879
12725TIP3   OH259665   5.667   4.818   5.278 -0.0353  0.4272 -0.3461
12725TIP3    H159666   5.701   4.754   5.216 -1.0713 -0.2458 -0.2368
12725TIP3    H259667   5.572   4.803   5.278 -0.4317  2.6535 -1.1135
12726TIP3   OH259668   1.187   6.809  12.373  0.3517 -0.1245 -0.0260
12726TIP3    H159669   1.114   6.859  12.410 -0.8536 -1.4043 -0.6019
12726TIP3    H259670   1.145   6.740  12.321  1.9972  0.8227 -2.7120
12727TIP3   OH259671   5.031   5.603   1.493 -0.1577 -0.6340  0.3877
12727TIP3    H159672   5.122   5.573   1.491 -0.5748 -1.8864 -1.2415
12727TIP3    H259673   5.032   5.687   1.446  0.1536 -0.6561  0.3542
12728TIP3   OH259674   6.335   6.678  16.502  0.1924  0.1170  0.6168
12728TIP3    H159675   6.299   6.592  16.523  0.2277 -0.0435  0.0259
12728TIP3    H259676   6.291   6.704  16.421  1.3509 -0.0473 -0.0722
12729TIP3   OH259677   1.551   5.581   5.438  0.3805 -0.1445  0.7555
12729TIP3    H159678   1.529   5.654   5.380  1.7051 -1.6655 -1.7362
12729TIP3    H259679   1.558   5.621   5.525  0.7731  2.6336 -0.4953
12730TIP3   OH259680   2.913   1.513   4.143  0.1200  0.0181  0.2615
12730TIP3    H159681   2.964   1.434   4.164 -1.4585 -1.0780  0.0149
12730TIP3    H259682   2.936   1.533   4.052 -0.3450 -0.8427 -0.0544
12731TIP3   OH259683   1.052   6.524  13.091  0.2237 -0.2290  0.6412
12731TIP3    H159684   1.076   6.586  13.160  0.9253  0.3000 -0.0553
12731TIP3    H259685   1.042   6.440  13.136  2.1481 -0.2063  1.1900
12732TIP3   OH259686   4.908   2.936   1.952 -0.3666 -0.2035  0.1963
12732TIP3    H159687   4.914   2.847   1.985  1.3153 -0.0119  0.4772
12732TIP3    H259688   4.999   2.959   1.930 -0.8678  1.2139 -0.4252
12733TIP3   OH259689   1.952   2.697  12.394 -0.1151 -0.0429  0.0106
12733TIP3    H159690   1.938   2.749  12.315 -0.7056 -0.2373 -0.0143
12733TIP3    H259691   1.867   2.697  12.438  0.2010  0.0252  0.6224
12734TIP3   OH259692   2.490   5.907  14.050 -0.0767  0.4814 -0.8240
12734TIP3    H159693   2.562   5.961  14.018 -0.4299  2.3948  1.5224
12734TIP3    H259694   2.529   5.821  14.065  1.4445  1.1897 -0.6755
12735TIP3   OH259695   1.311   4.402   5.879  0.2951  0.0869  0.0973
12735TIP3    H159696   1.376   4.440   5.820  1.1898 -0.4784  0.7124
12735TIP3    H259697   1.248   4.359   5.820  0.2101  1.0512 -0.5194
12736TIP3   OH259698   1.902   4.400  15.577  0.3587 -0.2074 -0.1676
12736TIP3    H159699   1.951   4.448  15.510  1.6063  0.4720  1.1775
12736TIP3    H259700   1.838   4.348  15.528  0.8915  0.6577 -1.8346
12737TIP3   OH259701   3.382   1.466   2.853 -0.7428  0.1396  0.4448
12737TIP3    H159702   3.346   1.413   2.782  0.9672  0.8973 -1.0389
12737TIP3    H259703   3.446   1.523   2.810 -0.3506  1.2687  2.4653
12738TIP3   OH259704   0.856   5.851   1.417 -0.2314  0.6175 -0.4239
12738TIP3    H159705   0.778   5.807   1.383 -0.7175  0.9407  0.2743
12738TIP3    H259706   0.917   5.779   1.437 -0.9293  0.2713  0.4849
12739TIP3   OH259707   3.386   2.396   1.065 -0.1708  0.3727 -0.2116
12739TIP3    H159708   3.475   2.371   1.039 -0.7430 -0.3796 -1.5359
12739TIP3    H259709   3.376   2.363   1.154  0.1652 -1.4248 -0.8155
12740TIP3   OH259710   2.932   0.517   5.664 -0.2636 -0.1375  0.2065
12740TIP3    H159711   2.997   0.455   5.698 -0.2862  0.3591  1.1801
12740TIP3    H259712   2.858   0.509   5.724 -1.2593 -0.9635 -1.1174
12741TIP3   OH259713   0.040   0.196   3.172 -0.8081 -0.1649  0.3539
12741TIP3    H159714   0.135   0.192   3.185 -1.0951 -0.2386  2.7506
12741TIP3    H259715   0.019   0.114   3.127  0.2905  0.0067 -0.4979
12742TIP3   OH259716   5.943   3.989  13.405  0.1354 -0.0150  0.3749
12742TIP3    H159717   5.883   4.055  13.370  0.4551 -0.3482 -0.8295
12742TIP3    H259718   5.940   3.918  13.341  2.0618  0.1106  0.1114
12743TIP3   OH259719   1.038   0.533   2.895 -0.2017  0.1983  0.1547
12743TIP3    H159720   1.098   0.501   2.828  0.8820 -2.0983  2.1284
12743TIP3    H259721   1.083   0.515   2.978 -1.9209  2.0736  1.5468
12744TIP3   OH259722   4.562   4.686  16.247 -0.0044 -0.5173 -0.0602
12744TIP3    H159723   4.516   4.652  16.170 -0.8039 -1.2051  0.7171
12744TIP3    H259724   4.521   4.771  16.264  0.5302 -0.1225 -0.6985
12745TIP3   OH259725   6.810   1.594  15.831  0.3439  0.2364  0.5775
12745TIP3    H159726   6.869   1.567  15.760 -0.8816  0.1436 -0.4302
12745TIP3    H259727   6.723   1.593  15.791 -0.6539 -1.9087  2.6594
12746TIP3   OH259728   3.676   4.938   4.300 -0.5320 -0.1635 -0.3836
12746TIP3    H159729   3.602   4.879   4.288 -0.0817 -0.4271 -2.1384
12746TIP3    H259730   3.658   4.984   4.381 -2.7608 -0.0217 -0.9288
12747TIP3   OH259731   3.985   0.862   4.914  0.0534 -0.0044 -0.3519
12747TIP3    H159732   4.005   0.950   4.947  2.7969 -0.4876 -0.6206
12747TIP3    H259733   4.068   0.816   4.916 -1.0373 -2.1293 -1.7153
12748TIP3   OH259734   2.552   2.068   3.245 -0.0559 -0.9212 -0.6425
12748TIP3    H159735   2.588   1.989   3.286  1.3158  0.9370  1.9058
12748TIP3    H259736   2.629   2.118   3.217 -0.6880  1.5665  1.8629
12749TIP3   OH259737   0.722   0.864   0.767 -0.0921 -0.0929 -0.2585
12749TIP3    H159738   0.772   0.782   0.763  0.1367  0.0749 -0.9257
12749TIP3    H259739   0.780   0.926   0.811 -0.3892 -0.3812  0.5294
12750TIP3   OH259740   6.311   2.044  11.290 -0.1880 -0.2752  0.0683
12750TIP3    H159741   6.225   2.007  11.273  0.9597 -2.0840 -2.0618
12750TIP3    H259742   6.301   2.138  11.273 -1.4809 -0.6203 -1.1318
12751TIP3   OH259743   0.666   4.843   0.722 -0.3436 -0.2471 -0.3325
12751TIP3    H159744   0.621   4.784   0.661 -0.6670  0.2519 -0.5732
12751TIP3    H259745   0.704   4.784   0.788  0.8828 -0.8678 -1.5784
12752TIP3   OH259746   5.012   2.863  16.196 -0.4955  0.3142 -0.4422
12752TIP3    H159747   4.976   2.949  16.176 -2.0046  0.4302  2.5440
12752TIP3    H259748   4.936   2.809  16.216  0.6785 -0.2494  2.9345
12753TIP3   OH259749   1.638   0.661  11.655 -0.4877 -0.3677 -0.0756
12753TIP3    H159750   1.605   0.626  11.738 -1.3858 -0.8272 -0.6176
12753TIP3    H259751   1.591   0.611  11.588  0.2937 -0.0518 -0.8591
12754TIP3   OH259752   0.821   0.047  16.315  0.0451  0.3308  0.3134
12754TIP3    H159753   0.783   0.121  16.363  0.8978  1.4876 -0.7545
12754TIP3    H259754   0.890   0.015  16.372  0.8083  1.4649  0.0449
12755TIP3   OH259755   4.174   0.208  13.395 -0.2334 -0.2029 -0.0532
12755TIP3    H159756   4.128   0.197  13.312 -1.5041 -2.0824  0.8773
12755TIP3    H259757   4.218   0.293  13.386  0.2989 -0.7085 -2.9323
12756TIP3   OH259758   0.823   1.319   5.420  0.1962 -0.1000  0.0848
12756TIP3    H159759   0.894   1.300   5.481 -0.0314 -0.1299  0.3435
12756TIP3    H259760   0.840   1.407   5.388  0.8612 -0.4543 -0.5641
12757TIP3   OH259761   5.363   1.301   5.844 -0.5590 -0.2228 -0.2913
12757TIP3    H159762   5.283   1.294   5.894 -0.3388 -2.4727 -0.2242
12757TIP3    H259763   5.334   1.326   5.756 -1.5323 -2.9892 -0.7950
12758TIP3   OH259764   3.304   0.518   2.029 -0.2986 -0.0064 -0.0434
12758TIP3    H159765   3.233   0.455   2.027 -0.3064  0.0276 -2.0505
12758TIP3    H259766   3.344   0.513   1.942  0.2956  2.0694  0.0614
12759TIP3   OH259767   5.390   2.806   1.272  0.2346 -0.2647  0.4830
12759TIP3    H159768   5.406   2.820   1.179  1.2683  0.6780  0.7922
12759TIP3    H259769   5.298   2.779   1.278 -0.5895  2.2258 -0.5475
12760TIP3   OH259770   5.704   1.818  12.315  0.0287  0.2417  0.0801
12760TIP3    H159771   5.620   1.783  12.286 -0.3630  0.4637  0.9281
12760TIP3    H259772   5.683   1.904  12.352  0.2585 -0.6921  2.4895
12761TIP3   OH259773   2.905   0.049   4.137  0.1222  0.0686 -0.2065
12761TIP3    H159774   2.820   0.060   4.095 -0.2699 -1.8569  0.0485
12761TIP3    H259775   2.962   0.015   4.069  0.4734  0.5667 -0.1626
12762TIP3   OH259776   4.209   4.972   1.912  0.5328 -0.7122 -0.2951
12762TIP3    H159777   4.206   4.998   1.820 -0.0196 -1.0562 -0.3704
12762TIP3    H259778   4.287   5.017   1.947  0.8362 -0.7152 -0.9666
12763TIP3   OH259779   2.243   1.771   2.468  0.2720 -0.1897  0.3196
12763TIP3    H159780   2.258   1.678   2.455  2.8189  0.3577 -0.9915
12763TIP3    H259781   2.198   1.800   2.389  0.5527 -0.0730  0.2038
12764TIP3   OH259782   1.310   2.647   5.729 -0.3631 -0.2983 -0.2187
12764TIP3    H159783   1.332   2.587   5.800  2.5795 -0.7552 -1.4200
12764TIP3    H259784   1.259   2.593   5.667 -0.1970 -0.7806  0.0596
12765TIP3   OH259785   0.799   2.290   4.150 -0.3149  0.3125 -0.2106
12765TIP3    H159786   0.892   2.314   4.148 -0.3353  0.3524 -1.2318
12765TIP3    H259787   0.790   2.229   4.077 -1.1771  0.6258 -0.3625
12766TIP3   OH259788   3.925   0.622  13.102  0.1459  0.4103 -0.0740
12766TIP3    H159789   3.863   0.604  13.173 -0.6753  1.6856 -0.4484
12766TIP3    H259790   3.896   0.566  13.030 -0.9431  1.4192 -0.4405
12767TIP3   OH259791   3.771   5.049  14.990 -0.1124  0.0543  0.2304
12767TIP3    H159792   3.851   5.025  14.944 -1.2277 -2.5471 -0.4704
12767TIP3    H259793   3.799   5.070  15.079  1.6836  2.0480 -0.7767
12768TIP3   OH259794   4.762   0.409  12.299 -0.6038 -0.1153  0.6067
12768TIP3    H159795   4.818   0.340  12.263 -0.9534 -0.1282  0.0835
12768TIP3    H259796   4.711   0.365  12.367  1.6707  0.4040  2.7211
12769TIP3   OH259797   1.138   2.642  12.078 -0.0079  0.9241  0.2770
12769TIP3    H159798   1.174   2.674  12.160 -3.2098  0.4124  1.9740
12769TIP3    H259799   1.090   2.717  12.042 -0.7558  0.4134  0.1915
12770TIP3   OH259800   2.364   5.733   1.092  0.4971 -0.4235  0.5631
12770TIP3    H159801   2.320   5.759   1.012  0.8458 -2.2806 -0.2773
12770TIP3    H259802   2.443   5.787   1.096  0.6728 -0.5898 -0.5679
12771TIP3   OH259803   0.536   2.786  12.721 -0.4996 -0.3344 -0.4478
12771TIP3    H159804   0.517   2.733  12.643  0.3617 -0.7014 -0.4101
12771TIP3    H259805   0.529   2.725  12.794  0.1151 -0.3081 -0.3692
12772TIP3   OH259806   3.339   4.834   5.499 -0.3770 -0.6540 -0.0603
12772TIP3    H159807   3.410   4.792   5.548  0.8640  0.8394 -0.5304
12772TIP3    H259808   3.278   4.864   5.566 -0.0149 -0.9825  0.4156
12773TIP3   OH259809   6.389   4.821   6.454  0.0436  0.2811  0.4936
12773TIP3    H159810   6.305   4.786   6.424  0.6527  1.1741 -2.4854
12773TIP3    H259811   6.373   4.915   6.465  0.5092  0.3809  0.3429
12774TIP3   OH259812   3.840   2.077   1.575  0.6372 -0.3887 -0.2256
12774TIP3    H159813   3.934   2.084   1.595  0.3592  0.6372  0.7742
12774TIP3    H259814   3.798   2.133   1.639 -0.8565 -2.5002  0.6865
12775TIP3   OH259815   0.952   2.738   4.466  0.3654 -0.1544 -0.8378
12775TIP3    H159816   0.941   2.655   4.419  0.6036  0.2164 -1.5515
12775TIP3    H259817   0.888   2.797   4.427 -1.3177 -0.5975  1.1236
12776TIP3   OH259818   6.509   1.439   3.331  0.1895 -0.4239 -0.0214
12776TIP3    H159819   6.559   1.520   3.326 -0.3451 -0.0110  1.1029
12776TIP3    H259820   6.457   1.448   3.411 -2.5555 -0.3043 -1.7478
12777TIP3   OH259821   0.471   3.496  12.869 -0.3039 -0.1936 -0.5273
12777TIP3    H159822   0.433   3.472  12.953  3.8155 -1.7661  0.9808
12777TIP3    H259823   0.460   3.419  12.814 -0.8487 -0.0013 -0.6980
12778TIP3   OH259824   1.406   5.886  14.984 -0.7844 -0.1408  0.0418
12778TIP3    H159825   1.495   5.851  14.977 -1.8623 -2.8743 -0.6910
12778TIP3    H259826   1.418   5.980  15.000  2.2018 -0.3193 -0.8589
12779TIP3   OH259827   0.867   3.044   2.727 -0.2611 -0.6578 -0.2270
12779TIP3    H159828   0.867   2.960   2.683  1.8107 -1.0009  0.3642
12779TIP3    H259829   0.941   3.039   2.788  0.0473  1.6544 -0.3625
12780TIP3   OH259830   3.503   6.562   6.328 -0.4073 -1.5131 -0.2504
12780TIP3    H159831   3.484   6.495   6.394 -0.4668 -0.1000  1.1982
12780TIP3    H259832   3.490   6.645   6.373 -2.1459 -0.4763 -2.5389
12781TIP3   OH259833   1.690   4.106  13.834 -0.3943  0.1971 -0.0464
12781TIP3    H159834   1.766   4.165  13.832 -1.5135  1.6598 -0.3932
12781TIP3    H259835   1.660   4.102  13.743 -1.4242  0.5571  0.2735
12782TIP3   OH259836   3.951   4.003  14.888 -0.4015 -0.1581  0.0282
12782TIP3    H159837   4.016   4.061  14.928 -0.7064 -0.1315  0.4829
12782TIP3    H259838   3.893   3.979  14.960 -0.6179 -0.5617 -0.2851
12783TIP3   OH259839   0.682   2.535   4.128  0.9621 -0.2222  0.2970
12783TIP3    H159840   0.689   2.588   4.207  3.0102  0.3261 -0.2249
12783TIP3    H259841   0.729   2.454   4.148  0.6832 -0.4753 -0.0488
12784TIP3   OH259842   1.491   4.935   3.448  0.5132  0.1972 -0.2635
12784TIP3    H159843   1.580   4.899   3.449  0.2647 -0.4123  0.4280
12784TIP3    H259844   1.442   4.878   3.507  0.1151  1.6917  0.8600
12785TIP3   OH259845   5.187   4.145   2.100  0.1136 -0.3376 -0.2285
12785TIP3    H159846   5.150   4.117   2.184 -0.6904 -0.7583 -0.7148
12785TIP3    H259847   5.200   4.064   2.051 -2.9300  0.1345 -1.9238
12786TIP3   OH259848   3.315   0.389   2.370  0.5116  0.7190  0.4625
12786TIP3    H159849   3.277   0.372   2.284 -4.3504  0.2761  2.5610
12786TIP3    H259850   3.343   0.302   2.401 -1.7410  0.1934  1.0809
12787TIP3   OH259851   3.990   6.524   4.756  0.2252  0.5209  0.0790
12787TIP3    H159852   4.010   6.460   4.824  2.2519  0.4373 -0.5507
12787TIP3    H259853   4.048   6.598   4.774 -1.0385  1.5649 -0.0732
12788TIP3   OH259854   6.759   2.083   3.556  0.3139  0.7492  0.1042
12788TIP3    H159855   6.847   2.067   3.520  0.1275 -3.0015  1.1071
12788TIP3    H259856   6.773   2.087   3.651 -0.6897 -0.4646  0.3021
12789TIP3   OH259857   3.203   5.493   5.542 -0.0762 -0.4230  0.7248
12789TIP3    H159858   3.279   5.543   5.573 -0.2439  0.2642  0.0405
12789TIP3    H259859   3.233   5.446   5.465 -0.8461  1.3646 -0.6961
12790TIP3   OH259860   0.442   5.090  16.163 -0.4017  0.4497 -0.1422
12790TIP3    H159861   0.532   5.120  16.150  0.1228 -1.2426 -0.5423
12790TIP3    H259862   0.419   5.048  16.080 -1.3090  0.2194  0.2194
12791TIP3   OH259863   6.527   5.648   0.078  0.4529  0.4568  0.3203
12791TIP3    H159864   6.589   5.719   0.058  2.3938 -1.5789 -1.2240
12791TIP3    H259865   6.497   5.618  -0.008 -1.9091  0.6939  1.0286
12792TIP3   OH259866   6.298   1.393   6.363 -0.2406 -0.7723 -0.2590
12792TIP3    H159867   6.323   1.331   6.432  0.4764 -0.3627 -0.1522
12792TIP3    H259868   6.371   1.391   6.301 -0.0474  0.2397 -0.0709
12793TIP3   OH259869   3.611   4.496  11.926 -0.1710  0.2645 -0.1581
12793TIP3    H159870   3.620   4.523  12.017  0.3552 -0.1297 -0.0944
12793TIP3    H259871   3.694   4.452  11.905 -0.6387 -0.4221 -0.5658
12794TIP3   OH259872   4.091   5.048  12.824  0.3486  0.3634  0.2262
12794TIP3    H159873   4.017   5.097  12.788  0.6870  0.0087 -0.9671
12794TIP3    H259874   4.061   5.020  12.911  0.5351  3.5890  1.4153
12795TIP3   OH259875   2.259   5.765   3.015 -0.6806 -0.2269 -0.7968
12795TIP3    H159876   2.257   5.785   2.922 -3.2154 -1.8967 -1.1688
12795TIP3    H259877   2.167   5.750   3.039  0.2041 -3.2601  1.1373
12796TIP3   OH259878   5.790   3.925   1.611 -0.5087  0.1579  0.0419
12796TIP3    H159879   5.824   3.963   1.530  0.6589  0.0751  0.4781
12796TIP3    H259880   5.804   3.831   1.602 -1.2243  0.0552 -0.0409
12797TIP3   OH259881   6.403   0.931   0.905  0.0169 -0.2904 -0.1610
12797TIP3    H159882   6.341   0.924   0.977 -0.9190  0.8113 -0.8372
12797TIP3    H259883   6.349   0.949   0.828  1.0656 -0.6150 -0.9878
12798TIP3   OH259884   3.249   6.049  16.007 -0.5821 -0.5037 -0.2368
12798TIP3    H159885   3.214   6.127  16.051  1.5147  0.4747 -0.2098
12798TIP3    H259886   3.303   6.085  15.936 -0.9606 -1.9872 -1.2843
12799TIP3   OH259887   0.115   2.633  14.444 -0.0624  0.1982  0.0165
12799TIP3    H159888   0.052   2.698  14.475 -0.3378 -1.1819  2.5288
12799TIP3    H259889   0.199   2.679  14.444 -0.7843  1.5404 -1.6332
12800TIP3   OH259890   4.064   5.533  16.582 -0.7072 -0.0222  0.0190
12800TIP3    H159891   4.159   5.545  16.590 -0.5001 -2.0894  0.9266
12800TIP3    H259892   4.042   5.571  16.497  0.9662  0.2793 -0.3012
12801TIP3   OH259893   2.429   0.471   2.958 -0.4064  0.6510  0.6088
12801TIP3    H159894   2.458   0.529   3.029  2.4161  0.0737 -0.0095
12801TIP3    H259895   2.351   0.514   2.922 -0.4622  2.1951  2.4880
12802TIP3   OH259896   1.309   0.431  15.185  0.1846  0.4865  0.1106
12802TIP3    H159897   1.323   0.517  15.146 -0.3636  0.1450 -0.8558
12802TIP3    H259898   1.381   0.421  15.248 -0.2376  2.0023  0.8626
12803TIP3   OH259899   2.139   0.910  11.567 -0.6442 -0.1144  0.4004
12803TIP3    H159900   2.123   0.920  11.473  0.6257 -2.1066 -0.0705
12803TIP3    H259901   2.153   0.999  11.599  1.8191  0.3893 -1.8700
12804TIP3   OH259902   5.442   6.346  12.432  0.1018 -0.6633 -0.7040
12804TIP3    H159903   5.376   6.379  12.371  0.0416  2.2562  0.8534
12804TIP3    H259904   5.462   6.257  12.400 -3.2719 -0.9562 -2.2093
12805TIP3   OH259905   4.152   6.551  15.563  0.0962 -0.2473 -0.0747
12805TIP3    H159906   4.216   6.613  15.527 -0.6395 -0.4922 -1.8877
12805TIP3    H259907   4.068   6.583  15.530 -0.7701  0.1919  2.4513
12806TIP3   OH259908   0.684   4.774  14.836  0.1915 -0.0300 -0.1244
12806TIP3    H159909   0.632   4.812  14.907 -2.0659 -0.2940 -1.5725
12806TIP3    H259910   0.744   4.714  14.880 -0.6357  0.3826  1.6327
12807TIP3   OH259911   4.341   3.828   4.611  0.2045 -0.6475 -0.8044
12807TIP3    H159912   4.416   3.881   4.636 -1.4204  0.4582  2.0688
12807TIP3    H259913   4.281   3.889   4.568 -0.7702 -0.5659  0.6227
12808TIP3   OH259914   1.370   1.166   6.779 -0.6220 -0.2186 -0.1013
12808TIP3    H159915   1.328   1.112   6.847  1.0201 -1.4454 -0.0375
12808TIP3    H259916   1.409   1.103   6.719  0.8920  0.9017 -0.3208
12809TIP3   OH259917   6.691   5.350   0.163  0.5541 -0.2762 -0.4464
12809TIP3    H159918   6.625   5.335   0.096  0.9633 -0.5453 -0.7937
12809TIP3    H259919   6.753   5.277   0.152  0.2695 -0.6886  0.6438
12810TIP3   OH259920   3.405   2.477  12.381  0.3911  0.5007 -0.5460
12810TIP3    H159921   3.376   2.471  12.472  0.7691  2.5274 -0.2617
12810TIP3    H259922   3.356   2.409  12.336  0.1869 -0.5284  1.1768
12811TIP3   OH259923   2.212   1.075   1.384 -0.8727 -0.0725 -0.0821
12811TIP3    H159924   2.172   1.101   1.301  0.3238  0.7523 -0.4076
12811TIP3    H259925   2.138   1.049   1.439 -1.9007  1.9164 -0.4888
12812TIP3   OH259926   1.008   4.329  12.092  0.2442  0.2232 -0.5086
12812TIP3    H159927   0.965   4.273  12.027  0.1449 -0.8603  0.4799
12812TIP3    H259928   1.095   4.291  12.104 -0.7316 -1.3794  2.1205
12813TIP3   OH259929   1.683   6.631  12.857  0.1232  0.4151  0.0374
12813TIP3    H159930   1.709   6.708  12.806  1.9841  0.3991  0.9344
12813TIP3    H259931   1.758   6.613  12.913 -1.8872  0.4333  2.7990
12814TIP3   OH259932   4.776   0.299  16.686  0.2734 -0.4652  0.1362
12814TIP3    H159933   4.721   0.227  16.655  0.5733 -0.9424  0.7089
12814TIP3    H259934   4.834   0.259  16.751  0.5241  0.2676  0.3681
12815TIP3   OH259935   5.856   1.579  15.640 -0.0629 -0.5664 -0.5482
12815TIP3    H159936   5.873   1.548  15.551  2.0309  0.0579 -0.4011
12815TIP3    H259937   5.921   1.648  15.654 -0.2614 -0.7649  1.5245
12816TIP3   OH259938   5.351   4.965  15.346 -0.3668 -0.2509  0.1896
12816TIP3    H159939   5.277   4.976  15.405 -0.1539  0.2037  0.3731
12816TIP3    H259940   5.413   4.910  15.394  0.4036  1.2465  0.9395
12817TIP3   OH259941   3.720   0.533   1.930 -0.0106 -0.0364  0.4722
12817TIP3    H159942   3.812   0.510   1.936  0.1490  0.8550  1.5571
12817TIP3    H259943   3.709   0.606   1.990 -1.0594  1.0199 -0.9557
12818TIP3   OH259944   0.907   2.212  16.553  0.2768  0.3583  0.2296
12818TIP3    H159945   0.832   2.251  16.507 -0.4014 -1.0298  0.1460
12818TIP3    H259946   0.958   2.170  16.483  0.5306  0.3289  0.4347
12819TIP3   OH259947   4.263   3.294   0.396 -0.5137  0.1384  0.0558
12819TIP3    H159948   4.265   3.359   0.467 -3.7778 -0.2567  0.5925
12819TIP3    H259949   4.307   3.218   0.433 -0.1090  0.7256  0.8228
12820TIP3   OH259950   0.886   5.302   3.518 -0.3412  0.1508  0.0161
12820TIP3    H159951   0.969   5.262   3.492 -0.2232  1.5349 -1.7829
12820TIP3    H259952   0.910   5.390   3.548 -0.7257 -0.7014  3.0449
12821TIP3   OH259953   3.214   5.868  11.498 -0.7411 -0.0046  0.5612
12821TIP3    H159954   3.245   5.838  11.583  2.3568 -1.5285 -1.0175
12821TIP3    H259955   3.164   5.794  11.463  0.9218 -0.7495 -0.3384
12822TIP3   OH259956   3.542   4.922   1.252 -0.1288  0.2326 -0.0863
12822TIP3    H159957   3.496   4.986   1.306  0.5882  1.1832 -0.5717
12822TIP3    H259958   3.488   4.844   1.255 -1.3519  1.0793  0.0021
12823TIP3   OH259959   3.051   1.652  12.735 -0.2282  0.1459 -0.5372
12823TIP3    H159960   3.059   1.735  12.687  0.4629  0.2678 -0.2185
12823TIP3    H259961   2.991   1.672  12.807  0.2844  0.4888 -0.2040
12824TIP3   OH259962   0.100   4.676  16.740  0.4494 -0.4819  0.1283
12824TIP3    H159963   0.040   4.742  16.704  0.0470 -0.4952  0.7556
12824TIP3    H259964   0.175   4.726  16.772 -0.2527 -0.2158  1.4225
12825TIP3   OH259965   2.880   0.351  16.589 -0.2306 -0.3004  0.2052
12825TIP3    H159966   2.851   0.339  16.680 -0.5465  0.4655  0.2054
12825TIP3    H259967   2.947   0.419  16.594 -1.2696  0.7797 -0.3199
12826TIP3   OH259968   1.701   0.127   1.570 -0.2991  0.5424 -0.2360
12826TIP3    H159969   1.672   0.086   1.489 -0.8370  0.8603 -0.2047
12826TIP3    H259970   1.734   0.212   1.543  2.4996 -0.5831 -0.5495
12827TIP3   OH259971   0.443   3.416  13.863 -0.0866  0.3806  0.7193
12827TIP3    H159972   0.535   3.415  13.837 -0.1270  2.2161  0.4504
12827TIP3    H259973   0.403   3.482  13.807 -2.1482 -2.2275 -1.0000
12828TIP3   OH259974   0.687   5.417   1.615 -0.0090  0.3734  0.3691
12828TIP3    H159975   0.679   5.341   1.673  0.7466  0.0807  0.0999
12828TIP3    H259976   0.629   5.483   1.653 -0.8343 -0.4167  0.4776
12829TIP3   OH259977   5.418   2.785  16.314 -0.2507 -0.4877 -0.6797
12829TIP3    H159978   5.486   2.792  16.380 -1.5610 -1.7665  0.8635
12829TIP3    H259979   5.384   2.874  16.303 -0.3300 -0.3434  0.7142
12830TIP3   OH259980   2.891   3.525  17.009  0.0432 -0.4337 -0.5620
12830TIP3    H159981   2.826   3.546  17.077  0.7356 -0.2786  0.0590
12830TIP3    H259982   2.841   3.526  16.927 -0.5553  0.6456 -0.2026
12831TIP3   OH259983   3.377   3.144  15.910  0.2503  0.7558  0.6632
12831TIP3    H159984   3.452   3.122  15.855 -1.4945 -3.9771 -0.0873
12831TIP3    H259985   3.316   3.188  15.851 -0.4613 -1.8595 -0.6529
12832TIP3   OH259986   1.620   3.100  13.751  0.3212 -0.2015  0.3541
12832TIP3    H159987   1.528   3.096  13.725  0.5502 -2.6832 -0.1918
12832TIP3    H259988   1.660   3.161  13.690 -0.7963  0.2253  0.0365
12833TIP3   OH259989   4.159   6.267   5.783  0.1558 -0.1234 -0.1442
12833TIP3    H159990   4.157   6.186   5.732 -0.8329 -0.6072  0.6618
12833TIP3    H259991   4.069   6.279   5.813 -0.0110  1.9596 -1.3346
12834TIP3   OH259992   6.539   1.343   1.999 -0.5495 -0.6686 -0.4696
12834TIP3    H159993   6.444   1.348   1.985 -0.4607  1.8956 -0.4542
12834TIP3    H259994   6.550   1.354   2.094 -0.1666  1.0395 -0.6887
12835TIP3   OH259995   3.548   3.259  16.533 -0.8171 -0.3163 -0.4763
12835TIP3    H159996   3.624   3.218  16.574  0.1359 -0.4524 -2.3346
12835TIP3    H259997   3.473   3.209  16.565 -0.1987  0.1452  1.7948
12836TIP3   OH259998   5.751   6.761   0.550  0.0418  0.3255  0.0101
12836TIP3    H159999   5.737   6.826   0.481 -2.1084  0.1434  0.2359
12836TIP3    H260000   5.755   6.812   0.631  0.1962  0.3253  0.0037
12837TIP3   OH260001   6.433   2.567   5.273  0.0130  0.0369 -0.3037
12837TIP3    H160002   6.379   2.513   5.216 -1.2668  2.6275 -1.5949
12837TIP3    H260003   6.408   2.657   5.253  3.2705  1.2264  0.6035
12838TIP3   OH260004   1.359   2.899  17.226 -0.3144  0.1475 -0.1464
12838TIP3    H160005   1.294   2.964  17.251 -1.7283 -0.9885 -0.8156
12838TIP3    H260006   1.309   2.818  17.215  0.9414 -0.3565 -2.3775
12839TIP3   OH260007   3.135   3.638   5.345 -0.2289 -0.1189 -0.1824
12839TIP3    H160008   3.105   3.639   5.254 -0.6271  2.3997 -0.0680
12839TIP3    H260009   3.218   3.686   5.343  0.4101 -1.1509  0.6102
12840TIP3   OH260010   6.407   2.055   2.390 -0.0128 -0.0456 -0.2345
12840TIP3    H160011   6.395   2.109   2.468  1.8684 -0.9594  0.7222
12840TIP3    H260012   6.324   2.009   2.380  0.9222 -2.8113  3.5180
12841TIP3   OH260013   0.192   5.297  15.829 -0.3999 -0.2884 -0.3780
12841TIP3    H160014   0.135   5.231  15.791 -1.5429  0.9248 -0.7829
12841TIP3    H260015   0.276   5.285  15.783 -1.3598  0.2500 -2.2953
12842TIP3   OH260016   0.768   3.066   0.451  0.5091  0.1685  0.7164
12842TIP3    H160017   0.719   3.126   0.395  0.5155 -1.3134 -0.9275
12842TIP3    H260018   0.855   3.104   0.457 -0.1420  1.5486  1.6453
12843TIP3   OH260019   2.573   2.915  12.216  0.4078  0.0890 -0.3414
12843TIP3    H160020   2.657   2.961  12.212 -0.3278  1.4261 -1.0263
12843TIP3    H260021   2.585   2.838  12.160  1.1965  0.2344 -0.3763
12844TIP3   OH260022   1.897   0.791  14.482  0.6419 -0.1998 -0.2908
12844TIP3    H160023   1.941   0.864  14.438 -2.6513  2.2105  0.2081
12844TIP3    H260024   1.821   0.772  14.427 -0.6220 -0.6700  1.5679
12845TIP3   OH260025   5.206   6.630   0.247 -0.5676 -0.3671  0.0852
12845TIP3    H160026   5.127   6.616   0.299 -0.7850 -0.8696 -0.3796
12845TIP3    H260027   5.206   6.559   0.183  0.1116 -0.2058 -0.0996
12846TIP3   OH260028   2.921   5.774  11.486 -0.5408 -0.2452 -0.1684
12846TIP3    H160029   2.831   5.748  11.466 -1.5630  1.5520  1.8765
12846TIP3    H260030   2.921   5.869  11.477  1.1352 -0.2277 -0.0540
12847TIP3   OH260031   4.908   5.996  10.328  0.0566 -0.1553  0.2863
12847TIP3    H160032   4.823   5.961  10.352  0.0597  0.5666  1.3503
12847TIP3    H260033   4.923   6.068  10.389  1.7305 -0.7220  0.5784
12848TIP3   OH260034   2.291   4.639   6.595  0.1081  0.4121  0.3361
12848TIP3    H160035   2.341   4.666   6.672  1.9117 -0.0851 -0.6399
12848TIP3    H260036   2.342   4.671   6.521 -1.9140  1.4036 -0.6734
12849TIP3   OH260037   4.354   2.109  15.367  0.5966  0.2594  0.2616
12849TIP3    H160038   4.413   2.075  15.435 -0.8031 -0.2430  1.2540
12849TIP3    H260039   4.288   2.158  15.416 -0.6875 -0.4874 -0.7119
12850TIP3   OH260040   0.406   4.309   5.232 -0.3317  0.0407 -0.2350
12850TIP3    H160041   0.329   4.314   5.175  1.2657  0.6643 -2.4317
12850TIP3    H260042   0.395   4.382   5.293 -1.6938 -0.1471 -0.2414
12851TIP3   OH260043   4.191   6.038   6.238 -0.1232 -0.4776  0.4911
12851TIP3    H160044   4.248   5.999   6.305  1.2895  2.9087  1.3724
12851TIP3    H260045   4.252   6.081   6.178 -1.6082 -0.1568 -0.8044
12852TIP3   OH260046   4.397   0.245   6.239  0.7142  0.5098  0.0488
12852TIP3    H160047   4.403   0.332   6.280  0.9166  1.5052 -2.0233
12852TIP3    H260048   4.338   0.196   6.296  0.8674  1.8975  1.4438
12853TIP3   OH260049   2.169   3.576  16.482 -0.2395 -0.0992 -0.1625
12853TIP3    H160050   2.119   3.658  16.475  2.2511  1.4931  0.1839
12853TIP3    H260051   2.187   3.552  16.391  0.3370  0.5896 -0.2393
12854TIP3   OH260052   4.158   4.439  16.608  0.3408  0.4225  0.1078
12854TIP3    H160053   4.112   4.523  16.607  3.1657  2.0606  1.8540
12854TIP3    H260054   4.140   4.401  16.522 -2.5692  1.8833 -0.0081
12855TIP3   OH260055   0.900   0.770  16.390  0.4749 -0.0745 -0.1127
12855TIP3    H160056   0.848   0.799  16.315  0.1493  1.0293  0.5382
12855TIP3    H260057   0.989   0.799  16.370  0.5635 -0.5869 -0.4886
12856TIP3   OH260058   4.883   2.148  10.766  1.0689  0.3908 -0.0962
12856TIP3    H160059   4.928   2.212  10.710  1.8884  1.5037  1.7806
12856TIP3    H260060   4.952   2.087  10.792  1.6321  2.2604  3.0195
12857TIP3   OH260061   3.585   1.122  11.698 -0.5169  0.5110 -0.1501
12857TIP3    H160062   3.552   1.138  11.610  1.2392  1.5029 -0.6522
12857TIP3    H260063   3.590   1.027  11.705 -2.3493  0.3669 -0.4532
12858TIP3   OH260064   3.611   3.057  13.726  0.4569  0.4047  0.1769
12858TIP3    H160065   3.609   3.125  13.794 -0.5966  0.3840  0.1664
12858TIP3    H260066   3.604   3.105  13.644 -0.2428  0.2866  0.1672
12859TIP3   OH260067   3.336   5.728  15.594 -0.1041 -0.2583  0.4857
12859TIP3    H160068   3.300   5.651  15.550 -2.3745  0.1301  1.6262
12859TIP3    H260069   3.267   5.794  15.587  1.5954  1.5012  0.0282
12860TIP3   OH260070   4.044   0.014  17.070 -0.5397  0.3700 -0.6265
12860TIP3    H160071   4.027  -0.057  17.009  0.5915  1.1477 -1.8754
12860TIP3    H260072   4.038  -0.027  17.156  1.3283 -1.5320 -1.3480
12861TIP3   OH260073   5.267   4.371   0.126 -0.5654  1.0064 -0.2384
12861TIP3    H160074   5.316   4.367   0.044 -0.2541 -1.1868  0.0117
12861TIP3    H260075   5.190   4.423   0.106 -1.6357 -1.3578 -2.5856
12862TIP3   OH260076   0.730   6.562  10.758 -0.3891 -0.2375  0.2413
12862TIP3    H160077   0.735   6.605  10.672  0.5940  0.2621  0.5410
12862TIP3    H260078   0.767   6.475  10.744  1.9942  0.6800  0.6796
12863TIP3   OH260079   1.037   1.502  13.156  0.6494  0.0182  0.2990
12863TIP3    H160080   1.061   1.497  13.064 -0.8810 -0.0161 -0.1175
12863TIP3    H260081   1.061   1.418  13.193 -0.3055 -0.6059 -0.4769
12864TIP3   OH260082   0.138   5.525   6.764  0.3644  0.3221  0.1321
12864TIP3    H160083   0.061   5.520   6.819 -0.5673 -3.0198 -1.3536
12864TIP3    H260084   0.105   5.514   6.675  2.4850 -1.1165 -0.5358
12865TIP3   OH260085   4.250   0.080  16.220  0.1067 -0.6474  0.2655
12865TIP3    H160086   4.178   0.099  16.160  0.3813  1.8453  0.6893
12865TIP3    H260087   4.298   0.009  16.177 -1.5163 -1.0545 -0.9220
12866TIP3   OH260088   3.629   2.525   1.898  0.1241 -0.1873  0.3839
12866TIP3    H160089   3.687   2.500   1.971 -0.6487 -2.1580  0.3508
12866TIP3    H260090   3.674   2.493   1.820 -1.0149 -1.7773  0.3631
12867TIP3   OH260091   4.148   0.352  16.910  0.1506  0.0665  0.7001
12867TIP3    H160092   4.214   0.414  16.878  0.1401 -0.9354 -1.3647
12867TIP3    H260093   4.198   0.273  16.933  0.0552  0.4945  2.4330
12868TIP3   OH260094   2.251   5.107   1.045  0.3709 -0.1774  0.5481
12868TIP3    H160095   2.246   5.161   1.124  1.7339  1.7456 -0.6505
12868TIP3    H260096   2.224   5.165   0.974  2.5591 -0.8305 -0.8627
12869TIP3   OH260097   6.367   3.213   1.462 -0.4273 -0.3342  0.9931
12869TIP3    H160098   6.382   3.167   1.379  0.1603  1.9695 -0.1940
12869TIP3    H260099   6.281   3.252   1.453 -0.6402 -0.6104  1.7464
12870TIP3   OH260100   5.128   5.172  16.557  0.3339 -0.0008 -0.4518
12870TIP3    H160101   5.053   5.135  16.512  0.6280 -0.3153 -0.6863
12870TIP3    H260102   5.197   5.173  16.491  1.0893 -1.4864  0.2849
12871TIP3   OH260103   4.923   0.288  12.789  0.8032  0.0907  0.5512
12871TIP3    H160104   4.896   0.359  12.731  2.7477  0.6473  0.2838
12871TIP3    H260105   5.018   0.298  12.796  0.9161 -1.6013  1.6868
12872TIP3   OH260106   4.368   1.585  11.166  0.0396 -0.7989  0.0661
12872TIP3    H160107   4.452   1.626  11.147 -0.1155 -1.0163 -1.1340
12872TIP3    H260108   4.304   1.655  11.154 -0.0803 -0.9955 -0.4840
12873TIP3   OH260109   4.355   4.204   5.120 -0.3005 -0.2839  0.5841
12873TIP3    H160110   4.327   4.115   5.100  1.5911  0.0152 -3.8196
12873TIP3    H260111   4.439   4.193   5.165 -0.2235 -0.7102  0.3354
12874TIP3   OH260112   5.349   3.853  16.341 -0.1248 -0.5173  0.0152
12874TIP3    H160113   5.268   3.818  16.377  0.6051 -2.1919  0.0858
12874TIP3    H260114   5.418   3.803  16.385  1.0216  1.8549  1.0473
12875TIP3   OH260115   2.973   3.793   1.952 -0.0321  0.2101  0.1474
12875TIP3    H160116   2.961   3.722   2.015  0.8999  0.5252  0.6925
12875TIP3    H260117   2.968   3.873   2.004 -1.8761  0.5891 -0.5867
12876TIP3   OH260118   4.656   0.336  16.314 -0.4170 -0.5471 -0.2383
12876TIP3    H160119   4.577   0.374  16.352  0.0512  0.3842 -0.1768
12876TIP3    H260120   4.692   0.405  16.259  0.1246 -1.1126 -0.6000
12877TIP3   OH260121   6.709   1.505   4.886  0.4133 -0.2476  0.3618
12877TIP3    H160122   6.707   1.557   4.806  3.7064 -1.7212 -0.7436
12877TIP3    H260123   6.652   1.430   4.868 -0.2673  0.3197  0.1073
12878TIP3   OH260124   3.181   0.144  10.897  0.0996 -0.6036 -0.3707
12878TIP3    H160125   3.155   0.115  10.810  0.8305 -0.2215 -0.7247
12878TIP3    H260126   3.251   0.084  10.923 -0.6703 -1.2183  0.2965
12879TIP3   OH260127   1.905   0.008   0.606 -0.0241 -0.6451 -0.9048
12879TIP3    H160128   1.821  -0.004   0.650 -0.2270 -0.9949 -1.3817
12879TIP3    H260129   1.934   0.096   0.632  0.7583 -1.5559  1.4134
12880TIP3   OH260130   5.257   0.249  11.425 -0.1037 -0.1719 -0.8374
12880TIP3    H160131   5.274   0.193  11.500 -0.6658  0.7583 -0.0045
12880TIP3    H260132   5.292   0.200  11.350 -0.0323 -1.3479 -0.0528
12881TIP3   OH260133   0.581   3.326  11.427 -0.2286 -0.1454  0.9188
12881TIP3    H160134   0.637   3.268  11.375  0.9155  1.7504 -0.0028
12881TIP3    H260135   0.547   3.270  11.497  0.5057 -2.0323 -0.2063
12882TIP3   OH260136   4.777   1.814   1.633  0.1204  0.0095 -0.2476
12882TIP3    H160137   4.753   1.822   1.725 -1.2672 -1.2123 -0.4876
12882TIP3    H260138   4.853   1.756   1.634  2.0894  2.5248  0.3697
12883TIP3   OH260139   2.428   2.558   4.239 -0.6103 -0.3397 -0.2336
12883TIP3    H160140   2.380   2.541   4.321 -3.7475  0.4565 -1.8120
12883TIP3    H260141   2.496   2.621   4.264 -0.8227 -0.9345  1.9801
12884TIP3   OH260142   5.636   6.434   1.631 -0.1873  0.1118  0.2077
12884TIP3    H160143   5.697   6.417   1.702 -1.1499  2.0205  1.5427
12884TIP3    H260144   5.553   6.397   1.661 -0.7321  1.4001  0.3675
12885TIP3   OH260145   0.974   5.627  13.574 -0.1744 -0.2296  0.2028
12885TIP3    H160146   0.978   5.606  13.667 -1.3504 -0.9352  0.1027
12885TIP3    H260147   1.050   5.583  13.536  1.2776  1.4543  1.0802
12886TIP3   OH260148   3.118   5.011  15.589  0.0925  0.2303 -0.2093
12886TIP3    H160149   3.165   4.995  15.671 -0.5215  0.5521  0.2062
12886TIP3    H260150   3.026   5.002  15.611 -0.0245 -1.0106 -1.1713
12887TIP3   OH260151   1.973   3.167  15.426 -0.7006  0.0696 -0.6328
12887TIP3    H160152   2.034   3.208  15.487 -0.4738 -1.3218  0.1006
12887TIP3    H260153   1.911   3.120  15.482 -2.0088  0.8531 -1.3938
12888TIP3   OH260154   4.013   3.959  13.624  0.2818 -0.1069  0.7036
12888TIP3    H160155   4.018   3.931  13.533  0.2519 -0.2670  0.7525
12888TIP3    H260156   3.978   3.883  13.671  1.2007 -0.3629  0.9972
12889TIP3   OH260157   4.853   4.417  17.157 -0.0662  0.0363  0.3691
12889TIP3    H160158   4.823   4.505  17.134  1.4919  0.5819  0.3595
12889TIP3    H260159   4.773   4.365  17.163 -0.9385  1.2612 -0.4350
12890TIP3   OH260160   0.750   4.216  15.611 -0.4074  0.3462 -0.0897
12890TIP3    H160161   0.765   4.260  15.694 -0.9377  0.3286  0.0193
12890TIP3    H260162   0.655   4.199  15.610 -0.1921 -0.9132 -0.0604
12891TIP3   OH260163   0.135   2.797   4.234 -0.2113  0.4155  0.0669
12891TIP3    H160164   0.069   2.746   4.188  2.4147 -1.3022 -2.0095
12891TIP3    H260165   0.189   2.835   4.164  1.1383  1.5800  1.6826
12892TIP3   OH260166   1.129   0.836   3.443  0.1198 -0.2572  0.2101
12892TIP3    H160167   1.059   0.791   3.396  0.1988  0.3627 -0.5217
12892TIP3    H260168   1.196   0.852   3.375 -0.5292  2.2669  0.1203
12893TIP3   OH260169   2.785   4.347  11.190  0.3535  0.3666 -0.0176
12893TIP3    H160170   2.803   4.285  11.119  0.0906  1.0139 -0.6519
12893TIP3    H260171   2.706   4.312  11.231  0.2636  0.2146 -0.3124
12894TIP3   OH260172   5.103   2.676   6.198 -0.0941 -0.9085  0.1395
12894TIP3    H160173   5.126   2.598   6.249  0.2058 -1.5902 -1.0286
12894TIP3    H260174   5.041   2.645   6.133  0.2737 -0.2366 -0.5456
12895TIP3   OH260175   2.725   1.231   0.454  0.4487 -0.4133 -0.0102
12895TIP3    H160176   2.662   1.302   0.442 -1.0406 -1.7915 -0.4883
12895TIP3    H260177   2.803   1.274   0.488 -0.8447  1.2942  0.8832
12896TIP3   OH260178   0.723   5.511   1.228 -0.1477  0.7522 -0.4988
12896TIP3    H160179   0.779   5.442   1.193 -0.6923  0.3690 -0.6200
12896TIP3    H260180   0.738   5.587   1.171  0.3708  0.7037 -0.4289
12897TIP3   OH260181   3.735   3.977  11.875 -0.2485 -0.0454 -0.2993
12897TIP3    H160182   3.808   4.037  11.894  0.4563 -1.0968  0.3445
12897TIP3    H260183   3.708   4.001  11.787  0.7671  0.4831 -0.4852
12898TIP3   OH260184   3.195   2.147   6.075  0.1342  0.4392 -0.0419
12898TIP3    H160185   3.191   2.054   6.099 -2.4154  0.5000 -0.0758
12898TIP3    H260186   3.266   2.182   6.128 -1.2699 -0.7790  2.7405
12899TIP3   OH260187   2.972   4.251   2.988 -0.1797 -0.4299 -0.1734
12899TIP3    H160188   2.999   4.236   2.898 -1.0931  2.0367 -0.9005
12899TIP3    H260189   2.904   4.318   2.982  0.7850  0.8535  2.4496
12900TIP3   OH260190   1.697   0.845   1.502 -0.0139  0.4885  0.2806
12900TIP3    H160191   1.700   0.788   1.579  0.6404  0.2892  0.1104
12900TIP3    H260192   1.604   0.852   1.481 -0.1686  0.2447  0.8664
12901TIP3   OH260193   5.679   0.880   1.961  0.1137  0.1949 -0.0740
12901TIP3    H160194   5.616   0.828   1.911  1.7215 -0.5835 -1.3386
12901TIP3    H260195   5.638   0.967   1.968 -1.1829 -0.3520 -0.6925
12902TIP3   OH260196   1.488   4.603  13.616 -0.0737  0.1985  0.0963
12902TIP3    H160197   1.497   4.694  13.642  0.5099  0.6637 -1.6377
12902TIP3    H260198   1.506   4.603  13.522 -0.6427 -1.6168 -0.0388
12903TIP3   OH260199   5.163   0.112   5.303 -0.3000  0.3429  0.3551
12903TIP3    H160200   5.227   0.161   5.355  0.0687 -0.3312  0.5483
12903TIP3    H260201   5.080   0.156   5.318  0.1314  1.2778  0.0458
12904TIP3   OH260202   1.605   5.735   3.852  0.8444 -0.0775  0.0050
12904TIP3    H160203   1.594   5.779   3.936  2.2844 -1.2641  0.8353
12904TIP3    H260204   1.526   5.757   3.802 -0.5921 -0.3469  2.1198
12905TIP3   OH260205   0.638   5.806   0.287  0.1254  0.1760  0.2566
12905TIP3    H160206   0.686   5.861   0.225 -0.1825 -1.0885 -1.1304
12905TIP3    H260207   0.672   5.718   0.273 -1.3477 -0.4553  0.4863
12906TIP3   OH260208   4.435   3.972  11.031 -0.2726  0.7410  0.3059
12906TIP3    H160209   4.362   3.910  11.036 -1.1705  1.6781 -0.7496
12906TIP3    H260210   4.436   4.000  10.939  3.8310 -2.0983 -0.6628
12907TIP3   OH260211   1.301   1.178  17.078  0.3213  0.0329 -0.3715
12907TIP3    H160212   1.321   1.100  17.026 -0.2989 -0.2867 -0.1437
12907TIP3    H260213   1.215   1.159  17.115  0.0425  0.9534 -0.5510
12908TIP3   OH260214   1.020   2.745  14.790 -0.1325 -0.0302  0.2790
12908TIP3    H160215   1.046   2.653  14.800 -2.1415 -0.7091 -0.3017
12908TIP3    H260216   1.069   2.776  14.714  2.4891  0.1727  1.9891
12909TIP3   OH260217   4.326   1.979   2.275  0.0353 -0.1468 -0.4301
12909TIP3    H160218   4.258   2.014   2.332  0.9803  1.4782 -0.2497
12909TIP3    H260219   4.392   1.943   2.335  0.4275  0.4126 -0.5162
12910TIP3   OH260220   4.013   0.707  14.305  0.2183  0.2424  0.8312
12910TIP3    H160221   3.952   0.764  14.259  0.2643 -0.2708  0.1420
12910TIP3    H260222   3.998   0.620  14.269  2.8046  0.4516 -0.8325
12911TIP3   OH260223   4.179   5.258   4.035  0.0377 -0.1026 -0.1165
12911TIP3    H160224   4.121   5.254   4.111 -0.7669 -2.0547 -0.8112
12911TIP3    H260225   4.121   5.260   3.960  0.8529 -0.6261 -0.7694
12912TIP3   OH260226   4.183   1.969  13.177  0.3250  0.2215 -0.0786
12912TIP3    H160227   4.235   2.045  13.152 -1.3322  1.0329 -1.1676
12912TIP3    H260228   4.098   1.982  13.134 -1.5981  0.0901  3.4790
12913TIP3   OH260229   1.778   4.622   2.311 -0.3641  0.2033 -0.1132
12913TIP3    H160230   1.755   4.715   2.311  1.5592  0.6854  0.2975
12913TIP3    H260231   1.828   4.609   2.230  1.2177 -0.0048  0.8919
12914TIP3   OH260232   6.014   1.150   3.503 -0.2246  0.2009 -0.2875
12914TIP3    H160233   5.979   1.065   3.477 -0.2079 -0.2615  1.1315
12914TIP3    H260234   6.062   1.132   3.585 -0.2438  1.5754  0.0377
12915TIP3   OH260235   1.034   5.871   4.411  0.2300 -0.0604  0.3071
12915TIP3    H160236   1.101   5.929   4.376  1.0869 -0.7144  0.8251
12915TIP3    H260237   0.952   5.921   4.405 -0.1960 -1.1029 -5.0984
12916TIP3   OH260238   1.624   6.638   3.528  0.1825  0.5496  0.3884
12916TIP3    H160239   1.629   6.572   3.596 -1.9484 -0.7916 -0.7017
12916TIP3    H260240   1.714   6.669   3.518  0.8751 -0.7435  2.2980
12917TIP3   OH260241   5.717   1.054   4.552  0.3562  0.1622  0.0515
12917TIP3    H160242   5.644   1.027   4.496 -0.1592  0.1500  0.7181
12917TIP3    H260243   5.791   1.001   4.522 -0.4410 -1.4164  0.8054
12918TIP3   OH260244   6.669   1.317  15.449 -0.1852  0.6508  0.5551
12918TIP3    H160245   6.695   1.295  15.360 -0.7012  2.2027 -0.0034
12918TIP3    H260246   6.615   1.243  15.477 -0.5440  0.4408 -0.6567
12919TIP3   OH260247   6.512   1.821  13.794  0.0600 -0.5676 -0.1053
12919TIP3    H160248   6.559   1.854  13.717  0.9649 -0.0410  0.6644
12919TIP3    H260249   6.553   1.737  13.814 -0.7328 -1.1059 -0.6903
12920TIP3   OH260250   2.463   1.822  13.391  0.5164 -0.6382 -0.2410
12920TIP3    H160251   2.476   1.835  13.297 -0.9174  1.3648 -0.2064
12920TIP3    H260252   2.508   1.897  13.431  0.2453 -0.9191  0.5979
12921TIP3   OH260253   1.340   3.560   6.642  0.0160 -0.4515  0.1930
12921TIP3    H160254   1.403   3.488   6.641 -0.6007 -1.0052 -1.7385
12921TIP3    H260255   1.256   3.519   6.622  0.0687  1.1292 -3.6246
12922TIP3   OH260256   6.757   0.368   1.408 -0.3663  1.1104  0.1690
12922TIP3    H160257   6.663   0.388   1.403 -0.4884  0.5986  0.4458
12922TIP3    H260258   6.793   0.437   1.464 -0.9722 -0.0818  2.0525
12923TIP3   OH260259   6.740   4.767   4.486  0.2048 -0.3130 -0.0367
12923TIP3    H160260   6.743   4.862   4.491  1.3132 -0.2927 -1.1377
12923TIP3    H260261   6.662   4.743   4.537 -0.7203  1.2423 -0.7063
12924TIP3   OH260262   3.905   2.754  11.866 -0.2130 -0.2537  0.5043
12924TIP3    H160263   3.832   2.814  11.848 -0.4775 -0.9879 -0.9287
12924TIP3    H260264   3.962   2.804  11.924 -0.8936  1.0525  0.0862
12925TIP3   OH260265   0.844   4.627  13.699 -0.2742  0.6825 -0.6067
12925TIP3    H160266   0.796   4.706  13.723 -1.2653 -0.0122 -0.2808
12925TIP3    H260267   0.882   4.596  13.782 -0.9434  0.1207 -0.5042
12926TIP3   OH260268   6.820   2.626  17.054  0.2703  0.4449  0.4374
12926TIP3    H160269   6.775   2.657  17.133  0.3924  1.0109  0.2868
12926TIP3    H260270   6.750   2.595  16.997  0.2670 -1.1691  1.2814
12927TIP3   OH260271   0.327   5.641   3.278  0.6245 -0.1494 -0.3729
12927TIP3    H160272   0.379   5.714   3.245  1.5578 -1.7113 -2.4947
12927TIP3    H260273   0.357   5.566   3.228 -1.3992 -1.7181  0.6864
12928TIP3   OH260274   1.075   1.684  12.891  0.2963  0.2840 -0.0015
12928TIP3    H160275   1.060   1.642  12.806 -0.5558 -0.4783  0.5056
12928TIP3    H260276   1.169   1.702  12.894  0.2577  0.6880 -1.2736
12929TIP3   OH260277   2.365   5.545   2.799 -0.7011  0.0884  0.3048
12929TIP3    H160278   2.290   5.603   2.791 -1.6486 -1.0573  0.7855
12929TIP3    H260279   2.361   5.490   2.721 -0.4025 -0.0110  0.3587
12930TIP3   OH260280   1.058   2.951  11.738 -0.1731 -0.0986 -0.2665
12930TIP3    H160281   1.014   2.907  11.811  1.6326 -0.6648  0.5042
12930TIP3    H260282   0.989   2.968  11.675 -1.2317 -2.3139  0.2730
12931TIP3   OH260283   2.207   4.275   3.921 -0.1798 -0.3421 -0.0086
12931TIP3    H160284   2.278   4.212   3.909 -0.7949 -1.2530  0.9974
12931TIP3    H260285   2.128   4.227   3.898 -0.6337  0.1165  0.5691
12932TIP3   OH260286   3.460   1.995  16.383  0.1496  0.0027  0.3142
12932TIP3    H160287   3.390   1.944  16.342  0.6785  1.1137 -2.0614
12932TIP3    H260288   3.461   1.966  16.474 -2.0652 -1.4690 -0.0990
12933TIP3   OH260289   4.196   4.450  15.609 -0.6060  0.2688 -0.2485
12933TIP3    H160290   4.213   4.369  15.561 -2.1208 -0.5953  0.6641
12933TIP3    H260291   4.104   4.446  15.633 -0.1118  1.1330  1.9371
12934TIP3   OH260292   2.477   6.571   1.842  0.0862  0.0866 -0.4133
12934TIP3    H160293   2.466   6.541   1.932 -1.1053  0.2117 -0.5098
12934TIP3    H260294   2.571   6.565   1.826  0.0957 -1.7555  0.2119
12935TIP3   OH260295   2.238   6.223   5.711 -0.1859 -0.2235  0.3393
12935TIP3    H160296   2.211   6.268   5.630  0.5533  1.9727  1.2877
12935TIP3    H260297   2.241   6.131   5.686  0.9121  0.4959 -2.3962
12936TIP3   OH260298   4.431   2.030  17.163  0.6118  0.0803 -0.5066
12936TIP3    H160299   4.513   2.077  17.147 -0.5119  2.5695  0.8291
12936TIP3    H260300   4.364   2.098  17.162 -1.3231 -1.7929 -0.5500
12937TIP3   OH260301   1.449   2.103   2.405 -0.8970 -0.4633  0.2410
12937TIP3    H160302   1.425   2.011   2.389  1.5394 -1.0396 -0.2529
12937TIP3    H260303   1.370   2.152   2.382 -1.2174 -2.1866 -2.6078
12938TIP3   OH260304   1.460   3.087  11.699 -0.0376 -0.0459  0.0607
12938TIP3    H160305   1.512   3.080  11.619  0.0609 -1.5667  0.2327
12938TIP3    H260306   1.410   3.005  11.702 -0.9254  0.5100  0.9504
12939TIP3   OH260307   2.636   2.843  12.925 -0.2754 -0.7041 -0.3967
12939TIP3    H160308   2.694   2.904  12.970  2.0191 -2.9736 -0.1444
12939TIP3    H260309   2.581   2.807  12.994  0.1967 -0.9001 -0.1224
12940TIP3   OH260310   5.894   1.307   1.554 -0.1943 -0.3928  1.1945
12940TIP3    H160311   5.863   1.325   1.464 -1.9953 -1.4872  1.5573
12940TIP3    H260312   5.933   1.389   1.583 -0.3550  0.2283 -0.2990
12941TIP3   OH260313   4.040   1.131   5.959  0.2291  0.4502  0.4368
12941TIP3    H160314   3.985   1.054   5.945 -1.0874  1.0510  2.1329
12941TIP3    H260315   4.043   1.175   5.875 -0.5837 -0.4414 -0.0644
12942TIP3   OH260316   6.747   0.331  13.962  0.0177  0.0668 -0.5151
12942TIP3    H160317   6.710   0.242  13.966 -0.6327  0.3560  0.1213
12942TIP3    H260318   6.839   0.318  13.942  0.0170 -0.7808  0.0081
12943TIP3   OH260319   1.755   5.837  14.832  0.0237 -0.3567 -0.7203
12943TIP3    H160320   1.793   5.755  14.801  2.2644  0.9876 -1.5952
12943TIP3    H260321   1.728   5.817  14.922  0.7423 -1.9717 -0.8366
12944TIP3   OH260322   0.295   5.813  12.726 -0.1439 -0.4551 -0.7236
12944TIP3    H160323   0.378   5.766  12.738  0.2900  0.3221 -0.6313
12944TIP3    H260324   0.230   5.757  12.766  1.0001  1.1908  3.6815
12945TIP3   OH260325   2.867   3.709   3.839  0.2450 -0.0414 -0.4038
12945TIP3    H160326   2.936   3.765   3.803  0.7278 -0.1189  0.3920
12945TIP3    H260327   2.869   3.630   3.785  0.7847 -0.0460 -0.3763
12946TIP3   OH260328   1.395   0.307   3.306  0.0135 -0.5345 -0.5159
12946TIP3    H160329   1.381   0.221   3.345  0.6650 -0.6640 -0.5604
12946TIP3    H260330   1.489   0.322   3.316  0.1469 -0.4860 -1.8629
12947TIP3   OH260331   4.022   3.441  14.909 -0.2609  0.4517 -0.2195
12947TIP3    H160332   4.093   3.481  14.959 -1.3883  0.9622  0.9978
12947TIP3    H260333   3.949   3.436  14.970 -1.8588  1.5904 -1.9840
12948TIP3   OH260334   2.355   1.993   6.071  0.5763 -0.3752  0.5542
12948TIP3    H160335   2.394   1.907   6.088 -1.2453 -1.0609  1.4188
12948TIP3    H260336   2.368   2.042   6.152  1.0574 -0.0569  0.2839
12949TIP3   OH260337   1.059   3.683  16.862 -0.0351 -0.5668 -0.2350
12949TIP3    H160338   1.075   3.670  16.956  0.4661  1.1370 -0.0582
12949TIP3    H260339   1.059   3.595  16.825 -0.2695 -1.2632  1.3714
12950TIP3   OH260340   4.897   3.846  12.948  0.0897 -0.0256  0.3561
12950TIP3    H160341   4.877   3.926  12.899  0.6501  0.8589  1.5491
12950TIP3    H260342   4.882   3.869  13.039  0.8169 -1.1027  0.7608
12951TIP3   OH260343   1.525   2.985   3.982  0.3188 -0.7457  0.0102
12951TIP3    H160344   1.463   2.989   4.055  1.6571  0.1691  1.1173
12951TIP3    H260345   1.607   3.018   4.018  1.2770 -1.2659 -1.6371
12952TIP3   OH260346   4.622   1.646   2.422  0.4606 -0.2146  0.2406
12952TIP3    H160347   4.551   1.587   2.448 -0.2162  0.7960  0.7151
12952TIP3    H260348   4.669   1.597   2.354 -0.7769 -0.8408 -0.2012
12953TIP3   OH260349   5.168   3.842   3.013  0.3988 -0.0656  0.6577
12953TIP3    H160350   5.168   3.748   2.993  0.1012 -0.5993  2.9448
12953TIP3    H260351   5.256   3.860   3.046  1.0837  0.9219 -1.6492
12954TIP3   OH260352   3.649   1.695   0.723  0.5241 -0.4324  0.6722
12954TIP3    H160353   3.594   1.732   0.791  2.1675 -0.2328  1.9266
12954TIP3    H260354   3.700   1.627   0.767  1.2495 -0.6470 -0.4677
12955TIP3   OH260355   5.377   3.907   3.166 -0.4392  0.1744  0.2113
12955TIP3    H160356   5.471   3.916   3.179 -0.5594  1.1336  0.4416
12955TIP3    H260357   5.337   3.966   3.230 -1.1586  0.7607 -0.7453
12956TIP3   OH260358   3.942   2.880  11.536 -0.2940 -0.7335 -0.1711
12956TIP3    H160359   3.925   2.975  11.538  1.1575 -0.4402 -1.5414
12956TIP3    H260360   4.027   2.870  11.577 -1.9781 -1.8462  3.2386
12957TIP3   OH260361   3.238   0.472   4.338 -0.1524 -0.2754 -0.2721
12957TIP3    H160362   3.210   0.563   4.328  0.5522  0.1245  1.2352
12957TIP3    H260363   3.294   0.455   4.262  0.2275  0.7392 -0.2166
12958TIP3   OH260364   6.758   6.658  12.435  0.3012  0.4567 -0.3072
12958TIP3    H160365   6.700   6.623  12.503 -1.1242 -0.0867 -1.7585
12958TIP3    H260366   6.826   6.592  12.425  1.6865  1.4720  1.9918
12959TIP3   OH260367   2.455   1.687   5.234  0.0495 -0.4487  0.2566
12959TIP3    H160368   2.413   1.769   5.260  0.5424 -0.2110  0.3156
12959TIP3    H260369   2.391   1.619   5.256 -0.5314 -0.0497 -0.1730
12960TIP3   OH260370   5.013   2.637   3.205 -0.2417 -0.0255 -0.1569
12960TIP3    H160371   5.015   2.691   3.284 -1.0341 -0.0635 -0.1068
12960TIP3    H260372   4.989   2.698   3.136  1.3475  0.1992 -0.5384
12961TIP3   OH260373   2.487   3.772   3.161 -0.6664  0.4459  0.1089
12961TIP3    H160374   2.494   3.859   3.200  0.2304  0.3303  0.2209
12961TIP3    H260375   2.472   3.788   3.068 -0.6831  0.7208  0.1582
12962TIP3   OH260376   3.051   3.424  13.522 -0.2197  0.1634 -0.5080
12962TIP3    H160377   3.009   3.378  13.450  0.1218 -1.9322  0.6012
12962TIP3    H260378   3.145   3.416  13.505 -0.1135 -1.0598  0.5905
12963TIP3   OH260379   1.821   5.784   5.849 -0.4590  0.0857  0.1439
12963TIP3    H160380   1.804   5.871   5.813 -2.3437 -0.0713  0.6323
12963TIP3    H260381   1.739   5.736   5.836 -0.1520 -0.9392  1.8743
12964TIP3   OH260382   3.905   4.143  12.815  0.5295  0.5372 -0.1111
12964TIP3    H160383   3.891   4.237  12.827  1.0873  0.4774  1.0551
12964TIP3    H260384   3.833   4.102  12.864  0.3748  0.3564 -0.4904
12965TIP3   OH260385   6.110   3.699  14.337  0.0967 -0.2325  0.2299
12965TIP3    H160386   6.104   3.759  14.263  1.1639 -3.1565 -2.3592
12965TIP3    H260387   6.020   3.671  14.352 -0.0594 -0.0745 -0.3839
12966TIP3   OH260388   6.687   5.540   4.180 -0.0462  0.0454  0.2229
12966TIP3    H160389   6.751   5.469   4.184  0.8196  0.8416  0.7899
12966TIP3    H260390   6.674   5.556   4.087  0.5967 -0.1061  0.1049
12967TIP3   OH260391   0.019   6.796  13.486 -0.4888 -0.3313 -0.1242
12967TIP3    H160392   0.042   6.856  13.556 -0.8341  0.8504 -1.0045
12967TIP3    H260393  -0.074   6.814  13.468 -0.4270 -0.6693 -0.8288
12968TIP3   OH260394   3.559   4.811  14.609  0.1750  0.3011  0.2942
12968TIP3    H160395   3.470   4.798  14.576  0.7197  1.1774 -1.5934
12968TIP3    H260396   3.553   4.794  14.703 -1.8147 -0.4444  0.0474
12969TIP3   OH260397   1.954   6.381   6.295 -0.1010 -0.3258 -0.0428
12969TIP3    H160398   1.926   6.466   6.328 -0.2201 -0.4255  0.1182
12969TIP3    H260399   2.002   6.342   6.368  1.0582  0.1257 -0.5568
12970TIP3   OH260400   3.008   6.044   4.256  0.2507 -0.3787  0.4457
12970TIP3    H160401   2.924   6.050   4.301 -0.3028  0.6925 -0.7167
12970TIP3    H260402   2.988   6.066   4.165  1.6614 -0.8343  0.0151
12971TIP3   OH260403   0.467   1.009   2.203  0.2976 -0.1471  0.0399
12971TIP3    H160404   0.551   1.024   2.160 -1.0418  0.4423 -2.4935
12971TIP3    H260405   0.446   0.917   2.183 -0.0797 -0.0261 -0.1317
12972TIP3   OH260406   5.613   5.804   0.079  0.1018  0.2072 -0.2448
12972TIP3    H160407   5.591   5.731   0.137 -0.6510  0.0337 -0.7336
12972TIP3    H260408   5.694   5.839   0.114 -0.6053  0.4205  1.1954
12973TIP3   OH260409   4.970   0.884  17.040  0.2040 -0.5297  0.1625
12973TIP3    H160410   5.038   0.881  16.972 -0.3427 -1.1308 -0.3732
12973TIP3    H260411   4.902   0.825  17.007  0.1285 -1.1742  1.4407
12974TIP3   OH260412   4.986   3.265   5.405  0.3244  0.2000  0.9034
12974TIP3    H160413   5.079   3.255   5.384 -0.4425 -0.9862 -2.2525
12974TIP3    H260414   4.964   3.185   5.454  0.8949  0.3650  1.4407
12975TIP3   OH260415   3.347   0.981  11.103  0.3882 -0.2838 -0.0881
12975TIP3    H160416   3.288   1.020  11.039  0.9174 -1.9195 -1.6083
12975TIP3    H260417   3.411   0.933  11.051  2.0305 -0.0080  1.6000
12976TIP3   OH260418   4.431   0.109   0.815  0.1824 -0.3269  0.1667
12976TIP3    H160419   4.338   0.113   0.836  0.2519 -1.1873  0.6863
12976TIP3    H260420   4.454   0.199   0.790 -1.1413 -0.4538 -1.5565
12977TIP3   OH260421   3.709   4.053   3.016  0.4312 -0.2120  0.0825
12977TIP3    H160422   3.642   4.051   2.948 -0.3743 -0.7904  0.8814
12977TIP3    H260423   3.660   4.047   3.098  1.5316 -2.2345  0.6387
12978TIP3   OH260424   1.559   2.130   3.875  0.0987  0.3199  0.0560
12978TIP3    H160425   1.650   2.147   3.899  0.7144 -2.6846  0.0282
12978TIP3    H260426   1.557   2.036   3.855 -2.3486  0.9176 -2.8520
12979TIP3   OH260427   3.784   0.017   3.395  0.3264  0.2246 -0.4295
12979TIP3    H160428   3.771  -0.051   3.460 -0.7566 -0.3330 -1.2094
12979TIP3    H260429   3.776   0.099   3.444 -1.4587 -0.1726 -0.0253
12980TIP3   OH260430   0.207   6.793  12.307  0.0890 -0.1643 -0.0476
12980TIP3    H160431   0.283   6.812  12.362  0.3354  1.7945 -1.0231
12980TIP3    H260432   0.171   6.712  12.343  0.4678  0.8472  2.7699
12981TIP3   OH260433   1.098   4.987  11.439 -0.2756 -0.0319 -0.4396
12981TIP3    H160434   1.073   4.895  11.431 -0.1023 -0.1583  0.3686
12981TIP3    H260435   1.194   4.985  11.433 -0.2775  0.0996 -0.4952
12982TIP3   OH260436   3.857   5.180  14.259 -0.7473 -0.7559 -0.5897
12982TIP3    H160437   3.910   5.260  14.257 -1.9148  0.0084 -2.0061
12982TIP3    H260438   3.814   5.182  14.344 -0.4390 -0.0925 -0.4436
12983TIP3   OH260439   6.480   0.829   1.637  0.2774  0.5025 -0.6418
12983TIP3    H160440   6.441   0.849   1.552 -2.2302 -0.7756  0.1488
12983TIP3    H260441   6.511   0.739   1.630 -0.0259  0.3577 -0.1846
12984TIP3   OH260442   5.399   1.915  13.938 -0.1614 -0.0388 -0.2590
12984TIP3    H160443   5.369   1.957  13.857  0.9523  0.4394 -0.4302
12984TIP3    H260444   5.321   1.911  13.993 -0.7452  0.3771 -1.0439
12985TIP3   OH260445   5.417   0.529  14.671  0.4784 -0.0372  0.1499
12985TIP3    H160446   5.357   0.603  14.661 -0.9723 -1.2513 -0.3620
12985TIP3    H260447   5.432   0.524  14.765 -1.3865 -0.5867  0.4519
12986TIP3   OH260448   6.053   2.912  14.731  0.4924 -0.0576  0.2116
12986TIP3    H160449   6.128   2.901  14.673 -0.4871  0.1825 -1.1259
12986TIP3    H260450   6.029   2.822  14.756  1.9353 -0.0726  1.5878
12987TIP3   OH260451   2.166   0.490   4.055 -0.3754  0.3562  0.0283
12987TIP3    H160452   2.177   0.403   4.093 -0.8237 -0.0652 -0.7922
12987TIP3    H260453   2.213   0.486   3.971 -0.9516  0.7039 -0.3125
12988TIP3   OH260454   1.787   0.614  12.137 -0.1575 -0.0378  0.3657
12988TIP3    H160455   1.739   0.543  12.178 -0.7513  0.8689  1.2666
12988TIP3    H260456   1.823   0.665  12.210 -1.1910  1.5640 -0.2133
12989TIP3   OH260457   6.071   0.094  14.691  0.4338 -0.2972 -0.0564
12989TIP3    H160458   6.101   0.164  14.748  1.1672 -1.1858  0.6632
12989TIP3    H260459   6.076   0.131  14.602  0.2193  0.7565  0.3705
12990TIP3   OH260460   3.280   1.218   3.552 -0.0537  0.0175  0.2836
12990TIP3    H160461   3.209   1.158   3.532  0.9877 -1.7546  1.7577
12990TIP3    H260462   3.357   1.163   3.560  1.6785  2.0002 -2.0749
12991TIP3   OH260463   2.231   3.095   3.697 -0.2410 -0.5600  0.2754
12991TIP3    H160464   2.136   3.089   3.699 -0.1737 -1.7751  0.6557
12991TIP3    H260465   2.253   3.150   3.772 -0.6440 -0.1400  0.0901
12992TIP3   OH260466   6.512   6.241   4.947 -0.4062 -0.4373  0.0496
12992TIP3    H160467   6.566   6.180   4.998 -0.4330  0.2964  0.9582
12992TIP3    H260468   6.431   6.248   4.997 -1.1073 -1.0197 -0.9708
12993TIP3   OH260469   1.412   4.832   2.975  0.2842 -0.4589 -0.6518
12993TIP3    H160470   1.365   4.841   3.057  0.4652  1.3488 -0.7327
12993TIP3    H260471   1.467   4.910   2.969 -1.1546  0.4158 -3.3861
12994TIP3   OH260472   2.956   1.334  15.343 -0.3451  0.5655  0.1511
12994TIP3    H160473   2.967   1.265  15.278  0.8859  0.8404  0.0505
12994TIP3    H260474   2.923   1.289  15.421 -1.4398  0.1734 -0.5304
12995TIP3   OH260475   5.883   2.693   5.710 -0.4282  0.0569 -0.8139
12995TIP3    H160476   5.947   2.754   5.673 -0.0380  0.0024 -0.2342
12995TIP3    H260477   5.815   2.750   5.747  0.6549  0.2097  1.0360
12996TIP3   OH260478   3.896   5.250   0.814 -0.9265  0.0146  0.5579
12996TIP3    H160479   3.884   5.183   0.882 -0.3892 -0.4321  0.2156
12996TIP3    H260480   3.956   5.210   0.752 -0.2370  0.9994  0.5894
12997TIP3   OH260481   4.830   2.956   1.367 -0.3727  1.0123 -0.1707
12997TIP3    H160482   4.831   3.011   1.445  4.2912  1.9721 -0.7230
12997TIP3    H260483   4.808   3.016   1.296 -1.2599  0.8675 -0.0179
12998TIP3   OH260484   4.722   4.261   1.249 -0.3848 -0.5109 -0.2824
12998TIP3    H160485   4.809   4.301   1.257 -0.5416 -0.1060 -0.5841
12998TIP3    H260486   4.669   4.307   1.314 -0.0708 -1.6064  0.7633
12999TIP3   OH260487   2.969   1.726  11.913  0.5549  0.2811 -0.7597
12999TIP3    H160488   2.891   1.734  11.857 -0.1497  0.0955  0.1881
12999TIP3    H260489   2.986   1.632  11.916 -0.2090  0.1714  0.4168
13000TIP3   OH260490   2.266   0.261  13.761  0.7606 -0.1255  0.5801
13000TIP3    H160491   2.180   0.241  13.726  1.3630  0.7576 -1.4699
13000TIP3    H260492   2.280   0.196  13.830 -0.1562 -2.3684 -1.2880
13001TIP3   OH260493   6.516   5.091   6.051 -0.3404 -0.3096  0.3188
13001TIP3    H160494   6.561   5.150   5.990 -0.7756 -0.2306  0.0665
13001TIP3    H260495   6.481   5.150   6.119  0.6006 -0.4560  0.9349
13002TIP3   OH260496   0.537   3.043   2.810  0.4263 -0.3031 -0.1268
13002TIP3    H160497   0.601   3.043   2.881  0.4376  2.5447 -0.0942
13002TIP3    H260498   0.452   3.048   2.853  0.4419  1.6590 -0.2836
13003TIP3   OH260499   0.720   3.423  12.827  0.0364 -0.3665 -0.0852
13003TIP3    H160500   0.750   3.500  12.779  0.5130 -0.2585  0.3774
13003TIP3    H260501   0.649   3.454  12.883 -0.0129 -0.3355 -0.1662
13004TIP3   OH260502   2.989   5.905  13.432 -0.0094  0.6512  0.0243
13004TIP3    H160503   2.914   5.891  13.373 -0.1888  0.5067  0.2878
13004TIP3    H260504   3.002   5.819  13.473  0.2897  0.6830 -0.0067
13005TIP3   OH260505   6.085   1.842  13.353  0.0217  0.0907  0.0274
13005TIP3    H160506   6.140   1.891  13.291 -1.7187  2.2425  0.1289
13005TIP3    H260507   6.065   1.906  13.422 -3.4884 -0.2819 -0.5625
13006TIP3   OH260508   5.942   5.696  16.904 -0.6386  0.4335 -0.1990
13006TIP3    H160509   5.913   5.784  16.881 -2.1222 -0.1543 -0.6178
13006TIP3    H260510   5.873   5.639  16.871 -1.7360 -0.6015  3.5898
13007TIP3   OH260511   5.471   5.432  16.497  0.3842  0.2793 -0.0641
13007TIP3    H160512   5.422   5.436  16.415 -0.4819 -0.1951  0.4161
13007TIP3    H260513   5.563   5.429  16.471  0.2402  2.7225 -0.9431
13008TIP3   OH260514   6.440   6.555   0.946 -0.4363  0.0175 -0.3841
13008TIP3    H160515   6.430   6.637   0.896 -0.7479 -0.2670 -0.7916
13008TIP3    H260516   6.513   6.572   1.006  0.2703  0.1826 -1.2881
13009TIP3   OH260517   0.374   4.426   3.189 -0.0397  0.2869 -0.3294
13009TIP3    H160518   0.405   4.350   3.239 -2.4979  0.2055  1.1454
13009TIP3    H260519   0.432   4.431   3.113 -0.0731 -3.3007 -0.6467
13010TIP3   OH260520   3.620   1.211   1.734  0.3790  0.1494  0.0951
13010TIP3    H160521   3.713   1.234   1.731  0.1794  0.9266 -0.1954
13010TIP3    H260522   3.595   1.222   1.826  0.6500 -0.3669  0.2310
13011TIP3   OH260523   4.810   0.801  11.752  0.1907 -0.3625 -0.1421
13011TIP3    H160524   4.751   0.773  11.822 -1.0350  0.0601 -1.0070
13011TIP3    H260525   4.878   0.733  11.751  1.2926  0.6107  2.7172
13012TIP3   OH260526   0.919   5.027   0.421 -0.2885 -0.0824 -0.5890
13012TIP3    H160527   0.833   5.044   0.459 -1.2103 -1.4314 -2.0270
13012TIP3    H260528   0.965   4.975   0.486  0.6052  3.1928  1.5291
13013TIP3   OH260529   3.981   6.694   4.167 -0.2643  0.2145  0.3083
13013TIP3    H160530   3.911   6.661   4.225 -0.4159 -0.2228 -0.1237
13013TIP3    H260531   4.018   6.616   4.127 -1.4403  0.6258 -1.6691
13014TIP3   OH260532   0.688   1.449   2.107 -0.0276 -0.0818  0.4535
13014TIP3    H160533   0.760   1.388   2.123 -1.1939 -1.6014  0.0043
13014TIP3    H260534   0.609   1.401   2.133 -0.9818  1.1524 -0.1081
13015TIP3   OH260535   1.038   4.485  11.208  0.1166 -0.4809 -0.2446
13015TIP3    H160536   1.096   4.538  11.153  0.4586 -0.9428 -0.3348
13015TIP3    H260537   0.996   4.424  11.147 -1.1552  0.4369 -0.3239
13016TIP3   OH260538   3.457   1.764   3.484 -0.5661  0.2047 -0.4457
13016TIP3    H160539   3.370   1.764   3.445 -1.0263 -2.3096  0.5012
13016TIP3    H260540   3.512   1.719   3.421 -0.4393 -0.2638  0.0009
13017TIP3   OH260541   3.406   6.380  10.755  0.1970  0.2681 -0.6034
13017TIP3    H160542   3.461   6.410  10.683  0.7381  1.3894  0.2687
13017TIP3    H260543   3.405   6.453  10.816 -0.5516 -0.5450  0.3655
13018TIP3   OH260544   0.981   6.192  16.374 -0.6721 -0.5784  0.3485
13018TIP3    H160545   0.890   6.195  16.346  0.1571  1.8495 -2.2163
13018TIP3    H260546   1.028   6.152  16.301  0.7721  1.2472  0.2310
13019TIP3   OH260547   0.346   3.642   5.245  0.2598 -0.3610  0.3225
13019TIP3    H160548   0.368   3.658   5.154  0.1977 -0.4903  0.2852
13019TIP3    H260549   0.251   3.652   5.250  0.0076 -2.4334 -0.0493
13020TIP3   OH260550   6.104   3.283   2.513 -0.0492  0.1527 -0.0105
13020TIP3    H160551   6.159   3.361   2.505  0.9227 -0.3308  1.7463
13020TIP3    H260552   6.080   3.262   2.423  0.2430  2.0753 -0.5568
13021TIP3   OH260553   4.703   0.349   5.285  0.1676 -0.5531  0.1834
13021TIP3    H160554   4.651   0.337   5.364  0.0899 -0.1294  0.1949
13021TIP3    H260555   4.670   0.282   5.225  1.1703 -1.7836  0.9891
13022TIP3   OH260556   4.452   1.387   6.568 -0.1919  0.2001  0.2914
13022TIP3    H160557   4.415   1.468   6.603  0.8997  0.5376  0.6803
13022TIP3    H260558   4.415   1.317   6.622  2.0311  0.7689  2.6128
13023TIP3   OH260559   6.464   5.292  12.028 -0.2505  0.4096  0.2117
13023TIP3    H160560   6.450   5.273  12.121 -0.3418  0.1591  0.1479
13023TIP3    H260561   6.559   5.300  12.020 -0.2510  0.5473  0.3499
13024TIP3   OH260562   3.375   2.442  14.396  0.9430 -0.0643 -0.0010
13024TIP3    H160563   3.450   2.452  14.337  0.7526 -1.2678 -0.4558
13024TIP3    H260564   3.308   2.500  14.358  2.1518  2.2770  1.3221
13025TIP3   OH260565   6.739   3.756  13.252  0.5357 -0.0262  0.1269
13025TIP3    H160566   6.700   3.767  13.165  0.1119  0.5222  0.3848
13025TIP3    H260567   6.782   3.839  13.270  0.0464  0.1010  0.7262
13026TIP3   OH260568   5.693   0.802  14.281 -0.2018  0.6999  0.0702
13026TIP3    H160569   5.653   0.839  14.359  1.3561  1.3789  0.5779
13026TIP3    H260570   5.665   0.860  14.210  1.1192  2.1254  0.6569
13027TIP3   OH260571   2.465   6.505  16.148  0.0469 -0.0203 -0.0276
13027TIP3    H160572   2.449   6.449  16.224 -0.5568  2.1892  1.5082
13027TIP3    H260573   2.395   6.570  16.150  1.5003  1.6295 -0.9763
13028TIP3   OH260574   6.065   1.611   0.539  0.4985  0.0130  0.4118
13028TIP3    H160575   6.104   1.671   0.602  0.9669 -0.5860  0.6928
13028TIP3    H260576   6.088   1.648   0.454  1.7270 -0.3417  0.5692
13029TIP3   OH260577   5.741   0.743  12.407  0.1512  0.0932 -0.4776
13029TIP3    H160578   5.823   0.756  12.455 -0.3364 -0.1621  0.4486
13029TIP3    H260579   5.690   0.684  12.463 -0.9474  0.8118 -0.7042
13030TIP3   OH260580   0.806   3.842  10.906  0.3544 -0.0298 -0.0885
13030TIP3    H160581   0.882   3.900  10.906  0.1396  0.2826 -1.7215
13030TIP3    H260582   0.732   3.898  10.930  0.4735 -0.1055  0.4616
13031TIP3   OH260583   2.116   3.011  13.785 -0.2675 -0.1379 -0.7127
13031TIP3    H160584   2.054   2.938  13.787 -0.8153  0.3532  1.7958
13031TIP3    H260585   2.067   3.082  13.745  0.0341 -0.9004 -2.5025
13032TIP3   OH260586   5.083   0.102   2.982 -0.4918 -0.6824 -0.3466
13032TIP3    H160587   4.996   0.103   3.020 -0.1054 -1.5110  0.5561
13032TIP3    H260588   5.071   0.066   2.894 -0.9169 -1.6560  0.1113
13033TIP3   OH260589   0.045   5.071  14.236 -0.4966  0.2677  0.4215
13033TIP3    H160590  -0.010   5.008  14.189 -1.3951  1.4529 -0.1321
13033TIP3    H260591   0.135   5.040  14.221 -0.8846 -0.4662 -0.4535
13034TIP3   OH260592   6.444   3.710  15.992  0.6322  0.3021  0.5783
13034TIP3    H160593   6.481   3.679  15.909 -0.0819 -4.5640  1.9456
13034TIP3    H260594   6.520   3.723  16.049  0.9327  1.2117 -0.0113
13035TIP3   OH260595   2.745   1.102   3.228 -0.0865 -0.2080  0.2501
13035TIP3    H160596   2.836   1.102   3.258 -0.1003  0.4250  0.2861
13035TIP3    H260597   2.751   1.070   3.137  0.2580  0.5733 -0.0061
13036TIP3   OH260598   1.085   6.019  13.001 -0.1826  0.1972  0.2286
13036TIP3    H160599   1.100   5.955  13.071 -0.2809 -0.4369 -0.3237
13036TIP3    H260600   1.173   6.043  12.972 -0.1140  1.2413  1.2588
13037TIP3   OH260601   1.274   4.356   0.403 -0.0700 -0.2590 -0.4880
13037TIP3    H160602   1.262   4.400   0.319 -1.7551  0.9510  0.3620
13037TIP3    H260603   1.349   4.298   0.389  0.6663  1.0983 -2.3409
13038TIP3   OH260604   6.032   0.326  16.831  0.2871  0.4335 -0.5414
13038TIP3    H160605   6.093   0.294  16.764  1.5042  0.3371  0.5874
13038TIP3    H260606   6.048   0.269  16.907 -3.0765 -1.3368 -1.0427
13039TIP3   OH260607   3.697   2.865   3.297 -0.3212 -0.0701  0.0981
13039TIP3    H160608   3.673   2.944   3.248 -1.4331 -0.1544  0.4906
13039TIP3    H260609   3.720   2.801   3.230  3.2727  1.3954 -0.1781
13040TIP3   OH260610   0.068   1.997  14.224  0.5442  0.3806  0.0376
13040TIP3    H160611   0.080   1.935  14.152  1.2200  2.0669 -1.3468
13040TIP3    H260612   0.067   2.083  14.182 -2.3843  1.2226  1.6797
13041TIP3   OH260613   2.911   1.093  15.194  0.5906 -0.1582  0.3512
13041TIP3    H160614   2.823   1.087  15.229  0.2060  1.2100 -0.3419
13041TIP3    H260615   2.956   1.016  15.229 -1.0689 -1.2600  0.1237
13042TIP3   OH260616   4.531   3.064  16.294 -0.8218  0.0445 -1.1796
13042TIP3    H160617   4.488   3.133  16.344 -0.9726  0.9618 -2.5729
13042TIP3    H260618   4.591   3.110  16.236  0.1090 -1.0780 -1.1214
13043TIP3   OH260619   4.910   0.110  14.438 -0.4318  0.1491 -0.7603
13043TIP3    H160620   4.959   0.162  14.502 -3.2932  1.5865  0.3843
13043TIP3    H260621   4.891   0.028  14.483 -3.4260  1.5936  0.8080
13044TIP3   OH260622   4.847   6.425  16.275 -0.4368 -0.2482  0.3542
13044TIP3    H160623   4.853   6.405  16.369 -2.2348  0.2683  0.6190
13044TIP3    H260624   4.823   6.518  16.273  1.2640  0.1739 -0.6724
13045TIP3   OH260625   5.248   2.250  13.090  0.0167 -0.3936  0.5949
13045TIP3    H160626   5.181   2.256  13.159  1.1851  0.3117  1.6850
13045TIP3    H260627   5.272   2.341  13.073 -0.0212 -0.5868 -0.5229
13046TIP3   OH260628   0.931   2.249  11.896 -0.4263 -0.4074  0.2131
13046TIP3    H160629   0.922   2.293  11.981  0.0827  2.3668 -1.1122
13046TIP3    H260630   1.022   2.219  11.895 -0.1601  0.3842  0.2670
13047TIP3   OH260631   4.273   5.035   1.620  0.1897 -0.3301  0.1262
13047TIP3    H160632   4.283   4.946   1.587 -0.1163 -1.0813  2.0602
13047TIP3    H260633   4.179   5.050   1.621  0.1594 -0.5546  1.2774
13048TIP3   OH260634   3.365   5.206   1.152 -0.2482 -0.2896 -0.3555
13048TIP3    H160635   3.370   5.301   1.166  0.0095 -0.1923 -1.0530
13048TIP3    H260636   3.340   5.170   1.237  1.0627  0.2684  0.2769
13049TIP3   OH260637   1.059   6.279  15.593 -0.1266 -0.2762  0.5434
13049TIP3    H160638   0.985   6.257  15.650 -0.2790 -2.1098 -0.3242
13049TIP3    H260639   1.020   6.286  15.506  0.0402  2.8723  0.6843
13050TIP3   OH260640   1.462   6.502   0.324  0.2188 -0.0281  0.2106
13050TIP3    H160641   1.428   6.420   0.359  2.5931 -1.2892 -0.3693
13050TIP3    H260642   1.496   6.548   0.401 -1.6369  0.7129  0.6205
13051TIP3   OH260643   3.843   5.012  14.010 -1.0934 -1.0146 -0.1576
13051TIP3    H160644   3.917   4.984  14.064 -1.5889 -2.3128 -0.1341
13051TIP3    H260645   3.802   5.082  14.060  0.0591 -0.3615 -0.1204
13052TIP3   OH260646   1.368   2.744   0.431 -0.2671 -0.4232 -0.0587
13052TIP3    H160647   1.413   2.687   0.494  0.1061 -0.5053 -0.3955
13052TIP3    H260648   1.371   2.696   0.348 -4.0195 -1.9759  0.6376
13053TIP3   OH260649   3.272   5.277  15.237  0.2910  0.7330 -0.2546
13053TIP3    H160650   3.363   5.298  15.215  0.8136 -1.8758 -0.7684
13053TIP3    H260651   3.264   5.183  15.219 -1.7100  0.3131  2.4882
13054TIP3   OH260652   4.029   4.619  16.961  0.7369  0.0786 -0.1292
13054TIP3    H160653   3.996   4.688  17.019 -1.5648 -1.3399  0.2819
13054TIP3    H260654   4.081   4.563  17.019 -1.1236 -1.0386  0.5082
13055TIP3   OH260655   4.108   1.694   1.022  0.3490 -0.2150 -0.0457
13055TIP3    H160656   4.049   1.746   1.076  0.2205  1.0836 -1.3847
13055TIP3    H260657   4.167   1.652   1.084 -0.1076  0.8367  1.1275
13056TIP3   OH260658   5.788   2.179   5.656 -0.3290 -0.3505  0.3001
13056TIP3    H160659   5.714   2.220   5.609 -0.3283 -0.8761 -0.1646
13056TIP3    H260660   5.848   2.152   5.586  0.8091  1.0251  0.7175
13057TIP3   OH260661   0.057   6.687   0.507 -0.9953 -0.0482 -0.1914
13057TIP3    H160662   0.008   6.683   0.589 -0.2249 -2.6151  0.2138
13057TIP3    H260663   0.111   6.607   0.508  2.2232  2.0074 -1.2026
13058TIP3   OH260664   2.238   1.220   4.644 -0.2089  0.9551 -0.1293
13058TIP3    H160665   2.168   1.285   4.656 -0.0324  1.0489  0.3922
13058TIP3    H260666   2.192   1.139   4.625 -0.4940  0.7831  1.2798
13059TIP3   OH260667   4.904   4.806   2.876  0.1253  0.6780 -0.5718
13059TIP3    H160668   4.920   4.837   2.787  0.0725  1.7523 -0.2203
13059TIP3    H260669   4.834   4.741   2.867  1.7731 -1.0009 -1.5946
13060TIP3   OH260670   4.280   0.844   5.375  0.2485  0.3586 -0.1348
13060TIP3    H160671   4.342   0.885   5.436  0.9453 -0.1498 -0.4925
13060TIP3    H260672   4.273   0.907   5.303  0.6329  0.2542 -0.2661
13061TIP3   OH260673   5.162   4.396  16.193  0.7054 -0.0798 -0.4708
13061TIP3    H160674   5.107   4.333  16.241  1.9083 -0.4335  0.4731
13061TIP3    H260675   5.202   4.450  16.261  0.2006  1.3045 -1.2481
13062TIP3   OH260676   2.023   4.914  14.950  0.3440  0.4810  0.0110
13062TIP3    H160677   2.073   4.994  14.932 -2.7542  2.7294  0.8447
13062TIP3    H260678   1.982   4.893  14.866  0.6330  0.1559 -0.0476
13063TIP3   OH260679   5.017   6.213  13.878  0.2047 -0.3538 -0.1891
13063TIP3    H160680   5.077   6.287  13.874  1.6707 -1.5592 -1.4330
13063TIP3    H260681   5.057   6.152  13.940 -1.9357  0.6618  2.2536
13064TIP3   OH260682   4.005   1.794   3.519  0.1602  0.2343 -0.3863
13064TIP3    H160683   3.988   1.700   3.508  1.9165  0.0935 -2.2816
13064TIP3    H260684   3.919   1.835   3.512 -0.4987 -1.1604 -0.6462
13065TIP3   OH260685   2.821   2.082  15.398  0.1934 -0.4622 -0.6185
13065TIP3    H160686   2.883   2.153  15.414  0.1623 -0.4524 -0.5389
13065TIP3    H260687   2.758   2.117  15.335 -0.1963 -0.1999 -0.0874
13066TIP3   OH260688   5.491   0.888   0.515  0.1021  0.7202  0.3881
13066TIP3    H160689   5.399   0.875   0.536  0.1450  0.2377  0.2858
13066TIP3    H260690   5.491   0.956   0.447 -0.3927 -1.2994 -1.7242
13067TIP3   OH260691   6.385   4.286  14.692 -0.4341 -0.5745  0.5571
13067TIP3    H160692   6.379   4.377  14.720 -1.8856 -1.0298  1.7495
13067TIP3    H260693   6.474   4.278  14.657  0.1825  0.9375  1.7255
13068TIP3   OH260694   2.502   6.477   2.518 -0.1589  0.3193 -0.2075
13068TIP3    H160695   2.490   6.382   2.512 -1.4957  0.5779 -1.8247
13068TIP3    H260696   2.418   6.514   2.493  0.1166  1.9476  1.1361
13069TIP3   OH260697   5.614   0.091   4.975  0.0721  0.5884 -0.0838
13069TIP3    H160698   5.703   0.078   5.008 -0.0034 -1.7556 -0.7165
13069TIP3    H260699   5.558   0.059   5.045 -0.2903  1.9662  0.2695
13070TIP3   OH260700   6.541   5.177   6.318  0.0955 -0.6673 -0.4487
13070TIP3    H160701   6.585   5.093   6.332  1.7241 -0.2301 -2.7369
13070TIP3    H260702   6.582   5.236   6.382  0.6649 -1.0217 -0.4860
13071TIP3   OH260703   1.767   6.267   3.135 -0.4665 -0.2198  0.3649
13071TIP3    H160704   1.733   6.357   3.127 -0.6486 -0.2217  1.1009
13071TIP3    H260705   1.690   6.212   3.129 -0.2033 -0.4060 -1.5070
13072TIP3   OH260706   0.501   6.706  15.780 -0.0998 -0.0082 -0.5010
13072TIP3    H160707   0.484   6.631  15.837  0.8418  0.0728 -0.1032
13072TIP3    H260708   0.426   6.708  15.720 -0.8753 -0.3573  0.4402
13073TIP3   OH260709   1.773   4.256   0.329  0.5067  0.2846  0.0457
13073TIP3    H160710   1.833   4.281   0.259  1.1878 -1.0697  0.1452
13073TIP3    H260711   1.725   4.181   0.294 -1.3099  1.4917 -0.1229
13074TIP3   OH260712   2.416   6.243   2.740  0.2173  0.0214  0.0134
13074TIP3    H160713   2.421   6.203   2.827  1.7846  0.4171  0.1214
13074TIP3    H260714   2.339   6.299   2.744 -1.4496 -2.1977  0.1804
13075TIP3   OH260715   1.713   3.502   5.082  0.3400  0.4310  0.0799
13075TIP3    H160716   1.683   3.593   5.082  2.2644  1.0856  0.6579
13075TIP3    H260717   1.771   3.495   5.007 -1.1967 -0.8416 -1.0454
13076TIP3   OH260718   5.063   2.396   4.663 -0.4313  0.4913 -0.4015
13076TIP3    H160719   5.115   2.338   4.609 -0.3944 -0.5908  0.7705
13076TIP3    H260720   4.975   2.392   4.626 -0.3065  0.1261 -0.6529
13077TIP3   OH260721   5.453   4.713  14.428 -0.3453  0.0814  0.6468
13077TIP3    H160722   5.438   4.638  14.486 -1.7135  1.6460  2.3957
13077TIP3    H260723   5.415   4.787  14.475 -0.0838  1.6781 -1.5866
13078TIP3   OH260724   5.550   0.432   4.077 -0.3914  0.0016  0.1471
13078TIP3    H160725   5.463   0.471   4.068 -0.8119 -1.0164 -0.3112
13078TIP3    H260726   5.607   0.505   4.096 -1.3713  0.6692  0.5503
13079TIP3   OH260727   2.710   3.450  14.121 -0.1701  0.4858  0.5522
13079TIP3    H160728   2.624   3.434  14.082 -0.5681  0.3634  1.4804
13079TIP3    H260729   2.755   3.505  14.056 -0.3410 -0.8101 -0.6746
13080TIP3   OH260730   0.785   3.385   3.190 -0.6362  0.1747  0.0963
13080TIP3    H160731   0.700   3.412   3.223 -0.6085  1.2418 -0.6722
13080TIP3    H260732   0.766   3.320   3.123 -0.7185 -1.5324  1.7261
13081TIP3   OH260733   2.352   3.426   1.122  0.1992  0.0277 -0.2370
13081TIP3    H160734   2.401   3.485   1.178 -0.6154 -1.7198  2.4148
13081TIP3    H260735   2.281   3.480   1.086  0.3775  1.0334  0.9055
13082TIP3   OH260736   4.959   2.284   5.212  0.6459 -0.2122 -0.2326
13082TIP3    H160737   4.919   2.215   5.265  1.6623  0.6067  1.6714
13082TIP3    H260738   4.920   2.365   5.244  2.0240  0.3869 -0.0183
13083TIP3   OH260739   6.186   2.756   5.234 -0.0173 -0.0136  0.2290
13083TIP3    H160740   6.233   2.739   5.153  0.2368  1.7118 -0.0038
13083TIP3    H260741   6.142   2.840   5.219 -0.3837  0.0694  1.6891
13084TIP3   OH260742   1.154   1.646  14.289  0.6093  0.1769 -0.0001
13084TIP3    H160743   1.156   1.740  14.307 -1.4596  0.4638 -1.0429
13084TIP3    H260744   1.175   1.605  14.373  1.1090  1.5720  0.5714
13085TIP3   OH260745   4.408   5.350  15.224 -0.4615  0.1948  1.1751
13085TIP3    H160746   4.372   5.318  15.142 -0.3777  0.6414  0.9599
13085TIP3    H260747   4.332   5.364  15.281 -0.3902 -1.7450  1.7729
13086TIP3   OH260748   3.941   5.948   3.609  0.2789  0.2336 -0.4644
13086TIP3    H160749   3.888   5.999   3.670  1.2375  0.8953 -0.1658
13086TIP3    H260750   3.913   5.858   3.622 -1.0776  0.6167 -0.6285
13087TIP3   OH260751   4.928   1.765  13.945 -0.2435  0.7052  0.3053
13087TIP3    H160752   4.847   1.768  13.893  0.2343 -2.3109 -0.6666
13087TIP3    H260753   4.998   1.778  13.881  0.1533  0.9418  0.7894
13088TIP3   OH260754   1.743   1.184  11.593 -0.4863 -0.2232  0.3318
13088TIP3    H160755   1.703   1.149  11.673  1.5330  0.3115  1.6296
13088TIP3    H260756   1.774   1.106  11.547 -0.5335 -0.4666  0.7019
13089TIP3   OH260757   4.071   4.590   0.113 -0.1523  0.4225 -0.2691
13089TIP3    H160758   4.084   4.681   0.139  1.4677  0.4275 -1.0524
13089TIP3    H260759   3.976   4.579   0.109 -0.3569  1.8058  0.7545
13090TIP3   OH260760   4.610   2.234  14.122 -0.6475 -0.3962 -0.0690
13090TIP3    H160761   4.611   2.312  14.067 -1.0478  0.9264  1.7316
13090TIP3    H260762   4.578   2.266  14.207  1.7722 -1.9832  1.4767
13091TIP3   OH260763   2.739   4.501   2.752  0.0570  0.3687 -0.0352
13091TIP3    H160764   2.818   4.449   2.736  0.6450  1.6593 -1.4185
13091TIP3    H260765   2.709   4.473   2.839  1.0100 -1.4289 -0.2772
13092TIP3   OH260766   6.568   4.328   2.483 -0.5409  0.1742  0.2613
13092TIP3    H160767   6.566   4.297   2.573 -1.8759  0.1759  0.2482
13092TIP3    H260768   6.614   4.260   2.435 -1.1638 -0.5567  0.6902
13093TIP3   OH260769   4.764   4.461   3.308 -0.2556 -0.4188 -0.7733
13093TIP3    H160770   4.836   4.465   3.245  0.9054  0.7758  0.6032
13093TIP3    H260771   4.713   4.540   3.292 -0.1448 -0.2785 -0.4396
13094TIP3   OH260772   0.036   3.303   2.337  0.0021 -0.4114  0.5042
13094TIP3    H160773   0.024   3.210   2.353  2.5501 -0.9631 -0.4292
13094TIP3    H260774  -0.028   3.325   2.269 -0.3719 -1.5671  0.4787
13095TIP3   OH260775   1.290   5.922  11.327 -0.3759  0.2760 -0.4904
13095TIP3    H160776   1.288   5.927  11.231  0.1634  0.1568 -0.5081
13095TIP3    H260777   1.264   6.009  11.356  0.0192  0.4811 -0.7492
13096TIP3   OH260778   1.321   6.236   1.866 -0.0913 -0.1200  0.5041
13096TIP3    H160779   1.332   6.296   1.792  1.7918 -0.7094  0.2963
13096TIP3    H260780   1.287   6.156   1.827  3.0332 -1.2010 -0.0617
13097TIP3   OH260781   0.030   3.086   2.973  0.4650  0.2550  0.0457
13097TIP3    H160782   0.059   3.167   2.932 -0.3782  1.3106  1.4855
13097TIP3    H260783  -0.054   3.108   3.015 -1.1016 -2.0132 -1.7411
13098TIP3   OH260784   6.325   4.740  15.025  0.2653  0.2711 -0.0850
13098TIP3    H160785   6.276   4.817  15.052  1.7826  1.1178  0.3014
13098TIP3    H260786   6.356   4.701  15.107  1.2770  0.4396 -0.3829
13099TIP3   OH260787   6.550   6.097   6.261  0.1164  0.1405  0.5287
13099TIP3    H160788   6.575   6.181   6.299 -0.0791 -0.2493  1.5556
13099TIP3    H260789   6.470   6.072   6.308  1.0682 -1.3819  1.4037
13100TIP3   OH260790   5.567   0.475  16.251  0.5242 -0.2048 -0.0618
13100TIP3    H160791   5.609   0.559  16.232 -0.9198  0.7232  0.7529
13100TIP3    H260792   5.599   0.451  16.338 -0.1638  0.2140  0.3111
13101TIP3   OH260793   2.052   2.651  13.170  0.2147 -0.6580 -0.0262
13101TIP3    H160794   1.974   2.619  13.216 -0.7443  1.1630 -0.3308
13101TIP3    H260795   2.083   2.576  13.120 -1.8556 -1.1755 -0.5775
13102TIP3   OH260796   2.383   3.045  15.845 -0.3880 -0.4705  0.0477
13102TIP3    H160797   2.364   3.045  15.751  0.8283 -1.8470 -0.2227
13102TIP3    H260798   2.342   3.125  15.878 -1.1477 -0.1639 -1.5863
13103TIP3   OH260799   3.973   5.876   5.786  0.4312  0.2786  0.3346
13103TIP3    H160800   3.929   5.955   5.819 -0.5625 -1.1574  2.6325
13103TIP3    H260801   3.901   5.816   5.763  1.1615 -0.5860  0.2684
13104TIP3   OH260802   6.152   6.782  13.341  0.3327 -0.3010 -0.2301
13104TIP3    H160803   6.098   6.858  13.363  1.0117 -0.2284  1.2690
13104TIP3    H260804   6.167   6.789  13.247 -1.6938  0.0476 -0.5424
13105TIP3   OH260805   4.321   5.890  16.283  0.1188  0.1796 -0.1424
13105TIP3    H160806   4.389   5.944  16.325  0.1491 -0.1174  0.1984
13105TIP3    H260807   4.367   5.844  16.213 -0.4592  2.5996 -2.1753
13106TIP3   OH260808   2.225   1.738  15.801 -0.2080  0.1265 -0.4686
13106TIP3    H160809   2.178   1.746  15.718 -1.0516 -0.1915 -0.0243
13106TIP3    H260810   2.299   1.680  15.780  0.6770  1.5675 -1.4450
13107TIP3   OH260811   1.400   6.524   2.961 -0.5631  0.0468  0.4220
13107TIP3    H160812   1.324   6.466   2.968 -1.0046  0.5446 -0.1957
13107TIP3    H260813   1.450   6.489   2.887 -1.3894  1.0871 -0.6441
13108TIP3   OH260814   4.404   5.716   2.582  0.1346 -0.2802  0.3596
13108TIP3    H160815   4.470   5.721   2.651  0.6415 -1.2488 -0.0429
13108TIP3    H260816   4.442   5.764   2.508  1.1280 -2.2378 -0.4401
13109TIP3   OH260817   4.270   0.380   0.338 -0.0724  0.8902  0.1579
13109TIP3    H160818   4.291   0.438   0.265 -1.7195  1.3522  0.0320
13109TIP3    H260819   4.309   0.423   0.415 -0.3408  1.5902 -0.0975
13110TIP3   OH260820   5.414   1.124  16.374 -0.0311 -0.6509  0.1583
13110TIP3    H160821   5.379   1.187  16.438  0.3607 -1.4483  1.1811
13110TIP3    H260822   5.501   1.158  16.353  0.4615 -1.1910  1.2377
13111TIP3   OH260823   2.029   5.314   4.446  0.8569  0.0660 -0.4809
13111TIP3    H160824   2.045   5.251   4.375  0.3914 -1.2755  0.6011
13111TIP3    H260825   2.115   5.325   4.487  0.6405 -1.0142  0.2745
13112TIP3   OH260826   4.695   5.905  17.157 -0.0584  0.2215 -0.7162
13112TIP3    H160827   4.741   5.982  17.124  0.9239 -0.2919 -0.5799
13112TIP3    H260828   4.636   5.938  17.224  2.0399  0.5887  1.0093
13113TIP3   OH260829   5.200   3.854   1.634  0.1534  0.6639 -0.2535
13113TIP3    H160830   5.164   3.816   1.553  0.5872 -2.1857  0.8273
13113TIP3    H260831   5.255   3.784   1.670 -0.5250  1.6630  2.8091
13114TIP3   OH260832   3.239   1.614   6.807  0.3702  0.2046  0.0912
13114TIP3    H160833   3.245   1.544   6.742 -0.0183 -0.4243  0.7299
13114TIP3    H260834   3.210   1.570   6.887  0.6527  1.0053  0.6398
13115TIP3   OH260835   6.428   4.846  14.803  0.0176  0.2543  0.0324
13115TIP3    H160836   6.347   4.806  14.771 -0.7388  2.4259 -0.8367
13115TIP3    H260837   6.427   4.831  14.898 -1.7030  0.7689  0.1092
13116TIP3   OH260838   3.269   5.232  14.379 -0.0175 -0.4942 -0.4907
13116TIP3    H160839   3.303   5.213  14.291  1.6297 -2.3343  0.4800
13116TIP3    H260840   3.342   5.275  14.424 -1.0377  0.9393 -0.1745
13117TIP3   OH260841   3.613   4.591  16.802  0.0689 -0.4744 -0.7733
13117TIP3    H160842   3.578   4.505  16.781 -1.8540 -0.0250  0.4525
13117TIP3    H260843   3.707   4.585  16.781  0.4655 -3.6273  1.6315
13118TIP3   OH260844   5.113   5.370  14.941 -0.7076 -0.0360 -0.3897
13118TIP3    H160845   5.191   5.330  14.902 -0.9936 -0.1425 -0.8656
13118TIP3    H260846   5.087   5.437  14.878 -1.6978 -0.8150 -0.8332
13119TIP3   OH260847   5.509   2.306   2.616  0.3340 -0.6697  0.7273
13119TIP3    H160848   5.440   2.241   2.623  0.6912 -0.9502  1.6520
13119TIP3    H260849   5.470   2.388   2.647  0.3549 -0.7821  1.0462
13120TIP3   OH260850   4.655   4.058   6.042 -0.2765 -0.3066 -0.2376
13120TIP3    H160851   4.739   4.012   6.042  0.4932  1.0336  0.9356
13120TIP3    H260852   4.635   4.071   6.135 -1.7371 -0.5091 -0.5118
13121TIP3   OH260853   3.789   4.767   6.098  0.0858 -0.7852  0.0134
13121TIP3    H160854   3.793   4.702   6.168 -2.4040  0.7370  1.6769
13121TIP3    H260855   3.829   4.846   6.136  0.5310 -0.4992 -1.0060
13122TIP3   OH260856   5.103   2.124   4.315  0.2196 -0.2375  0.3130
13122TIP3    H160857   5.013   2.105   4.290 -0.2953  1.7110  0.5902
13122TIP3    H260858   5.126   2.057   4.379 -1.5555  0.1406  1.3624
13123TIP3   OH260859   2.603   2.126  14.933 -0.7390 -0.2419 -0.3994
13123TIP3    H160860   2.577   2.116  14.842 -3.0741 -0.6034  0.2683
13123TIP3    H260861   2.541   2.072  14.982  1.1328 -0.8713  1.3157
13124TIP3   OH260862   6.077   4.213   4.522 -0.3149 -0.3839 -0.1206
13124TIP3    H160863   6.155   4.227   4.576  0.0400 -0.8585 -0.5021
13124TIP3    H260864   6.031   4.297   4.523 -0.2672 -0.3672  0.8454
13125TIP3   OH260865   1.410   4.296   6.106  0.0521 -0.3913  0.5501
13125TIP3    H160866   1.385   4.318   6.016  2.0434 -0.7050 -0.1105
13125TIP3    H260867   1.425   4.202   6.104  1.2547 -0.2092  0.9198
13126TIP3   OH260868   4.988   1.892  14.229 -0.0339  0.1473  0.6276
13126TIP3    H160869   4.897   1.918  14.245 -0.5574 -1.8234  1.0757
13126TIP3    H260870   4.984   1.838  14.149  0.6289 -0.4569  0.9925
13127TIP3   OH260871   5.678   2.720  13.730  0.1524 -0.0235 -0.4194
13127TIP3    H160872   5.610   2.786  13.715  0.9030  0.3718 -2.1636
13127TIP3    H260873   5.738   2.761  13.792 -1.0815 -0.2994  0.9798
13128TIP3   OH260874   0.406   5.806   0.432  0.6005 -0.0231  0.1478
13128TIP3    H160875   0.361   5.872   0.380  0.2108 -1.7419 -1.7647
13128TIP3    H260876   0.496   5.806   0.398  1.2950  1.3495  1.9475
13129TIP3   OH260877   0.297   3.856  16.964 -0.1571 -0.1026 -0.2481
13129TIP3    H160878   0.383   3.817  16.950  0.8714  1.3042  1.7478
13129TIP3    H260879   0.309   3.949  16.942 -1.1616  0.0888 -0.0062
13130TIP3   OH260880   5.169   5.179   3.121 -0.5948  0.0997 -0.4620
13130TIP3    H160881   5.131   5.226   3.195 -0.1831 -1.3676  0.6969
13130TIP3    H260882   5.097   5.167   3.060 -1.1078  0.6587  0.0253
13131TIP3   OH260883   0.168   4.336   1.399 -0.7727 -0.1864  0.0592
13131TIP3    H160884   0.122   4.333   1.483 -0.4687  0.1691  0.2450
13131TIP3    H260885   0.109   4.295   1.337 -0.1318 -2.3346  0.8472
13132TIP3   OH260886   0.906   2.786   2.655  0.3688 -0.4248  0.0434
13132TIP3    H160887   0.878   2.748   2.738  1.4367  0.6834  0.9322
13132TIP3    H260888   0.972   2.724   2.622 -0.5257 -1.1977 -0.3032
13133TIP3   OH260889   5.308   5.563   6.178 -0.3529  0.4901  0.4975
13133TIP3    H160890   5.398   5.561   6.144  0.2582  1.8668  1.9513
13133TIP3    H260891   5.284   5.656   6.175 -1.6432  0.1545  0.3313
13134TIP3   OH260892   3.155   2.503   3.656 -0.2089 -0.0176 -0.3713
13134TIP3    H160893   3.203   2.421   3.672  0.1031  0.2652  0.1745
13134TIP3    H260894   3.082   2.478   3.599  0.4089 -0.5085 -0.9470
13135TIP3   OH260895   4.939   3.628   4.009 -0.1948 -0.3220  0.7939
13135TIP3    H160896   5.019   3.681   4.009 -0.2820 -0.1873 -0.6451
13135TIP3    H260897   4.923   3.609   4.102  0.9315  0.5130  1.1663
13136TIP3   OH260898   4.142   2.470   0.010 -0.2618  0.0766  0.3451
13136TIP3    H160899   4.175   2.546  -0.039  0.4593 -0.6600 -0.3390
13136TIP3    H260900   4.051   2.462  -0.017  0.3525 -0.8342 -1.5740
13137TIP3   OH260901   4.832   1.279   0.754  0.2297 -0.8242  0.6765
13137TIP3    H160902   4.792   1.275   0.668 -0.0567 -1.9626  0.8613
13137TIP3    H260903   4.771   1.332   0.806 -0.8360 -2.1656  0.8334
13138TIP3   OH260904   6.544   0.375  12.231  0.5068  0.1757 -0.0340
13138TIP3    H160905   6.488   0.321  12.176  0.6466  0.2090 -0.2090
13138TIP3    H260906   6.488   0.448  12.258  0.6743  0.6036 -0.8093
13139TIP3   OH260907   6.647   1.183  14.892  0.6572  0.3668  0.0092
13139TIP3    H160908   6.648   1.235  14.811 -0.0883  0.2476 -0.0855
13139TIP3    H260909   6.724   1.127  14.886  1.1678  1.0840 -0.1459
13140TIP3   OH260910   3.186   3.980  15.862  0.1852 -0.2852  0.3131
13140TIP3    H160911   3.092   3.962  15.861  0.0470  0.4569 -0.6973
13140TIP3    H260912   3.193   4.074  15.879  0.7438 -0.3023  0.2034
13141TIP3   OH260913   2.503   6.545  15.400  0.2068 -0.2568 -0.4862
13141TIP3    H160914   2.472   6.627  15.440  1.0950 -0.5022  0.7442
13141TIP3    H260915   2.569   6.512  15.461  2.8515  0.2101 -2.9729
13142TIP3   OH260916   3.312   0.319  14.852  0.1963  0.4870 -0.0632
13142TIP3    H160917   3.295   0.243  14.909  0.0071 -0.5117 -1.4212
13142TIP3    H260918   3.226   0.353  14.831  0.2369  0.5171 -0.1856
13143TIP3   OH260919   2.099   0.999   5.543 -0.0099  0.3482  0.0173
13143TIP3    H160920   2.124   0.907   5.551  1.5267  0.8362  1.0791
13143TIP3    H260921   2.154   1.045   5.607 -0.8793  1.9885 -0.3657
13144TIP3   OH260922   2.662   1.855   4.743 -0.0479 -0.2385 -0.5491
13144TIP3    H160923   2.640   1.793   4.813 -0.7743 -0.9577 -1.4119
13144TIP3    H260924   2.757   1.858   4.743 -0.0563  1.7010  2.1655
13145TIP3   OH260925   3.109   4.236  13.290 -0.5058 -0.0719 -0.3590
13145TIP3    H160926   3.157   4.195  13.218 -0.6880  0.3017 -0.6928
13145TIP3    H260927   3.027   4.265  13.251  0.8332  3.2879 -0.8616
13146TIP3   OH260928   5.458   3.916  13.098  0.1689 -0.1567 -0.2868
13146TIP3    H160929   5.476   3.827  13.128  1.7037 -0.2529 -1.4633
13146TIP3    H260930   5.414   3.905  13.014  2.0617  0.1902 -1.3581
13147TIP3   OH260931   0.407   6.556   0.169 -0.3757  0.1261  0.0688
13147TIP3    H160932   0.347   6.560   0.244  0.0906 -0.8025  0.4931
13147TIP3    H260933   0.357   6.510   0.101 -0.6095  0.5007 -0.0133
13148TIP3   OH260934   0.638   5.864  15.189 -0.2640 -0.6167  0.0932
13148TIP3    H160935   0.652   5.885  15.097  0.0199  1.6317  0.6201
13148TIP3    H260936   0.578   5.789  15.188 -2.4138  1.0597 -1.8823
13149TIP3   OH260937   3.680   5.874  14.967 -0.2927  0.1050 -0.5056
13149TIP3    H160938   3.731   5.819  14.908 -1.1750 -0.1492 -1.0580
13149TIP3    H260939   3.678   5.827  15.050  1.8005  0.9400  0.0405
13150TIP3   OH260940   3.443   0.543   1.182  0.1477 -0.1101 -0.3064
13150TIP3    H160941   3.476   0.572   1.267  0.7885  0.0128 -0.5912
13150TIP3    H260942   3.506   0.579   1.119  0.2876 -1.1104 -0.7495
13151TIP3   OH260943   1.396   2.914  16.679 -0.1097  0.1332 -0.3734
13151TIP3    H160944   1.452   2.882  16.608  1.1544  1.4917 -0.0281
13151TIP3    H260945   1.433   2.874  16.758 -0.2116  0.2902 -0.2483
13152TIP3   OH260946   1.573   6.741   3.066  0.2083 -0.0728  1.0346
13152TIP3    H160947   1.512   6.723   3.138 -0.1392  1.1014  1.0455
13152TIP3    H260948   1.543   6.685   2.995 -1.4483  1.1407  0.7486
13153TIP3   OH260949   2.746   2.151  15.676 -0.7508  0.2445 -0.0799
13153TIP3    H160950   2.803   2.110  15.611  0.4366  1.0070  0.4858
13153TIP3    H260951   2.698   2.078  15.716  0.3252 -0.4535 -0.0693
13154TIP3   OH260952   3.097   3.941   3.221  0.1916  0.0205 -0.1220
13154TIP3    H160953   3.143   3.993   3.154 -0.7043  0.8081 -0.1295
13154TIP3    H260954   3.153   3.947   3.298  1.4389 -1.2180 -0.9020
13155TIP3   OH260955   2.940   1.341   2.700  0.2638 -0.6578  0.0849
13155TIP3    H160956   2.881   1.416   2.686 -0.9758 -1.1311  2.4008
13155TIP3    H260957   2.900   1.270   2.651  0.5326 -0.2201 -0.7715
13156TIP3   OH260958   6.275   3.004  14.080  0.4485 -0.4530  0.7363
13156TIP3    H160959   6.349   2.944  14.090  0.9010  0.0914  0.7113
13156TIP3    H260960   6.314   3.091  14.093 -0.3487 -0.2196  1.6003
13157TIP3   OH260961   1.527   1.954   2.921 -0.2293  0.1144 -0.8141
13157TIP3    H160962   1.537   1.984   2.831  1.6480 -1.0751 -1.0373
13157TIP3    H260963   1.571   2.022   2.973 -1.6030  0.9691 -0.7528
13158TIP3   OH260964   3.537   6.054  14.576  0.1429  0.4076 -0.0435
13158TIP3    H160965   3.616   6.096  14.611  0.2403 -1.4239  1.9989
13158TIP3    H260966   3.474   6.126  14.569  0.8157  1.2168  1.8681
13159TIP3   OH260967   6.603   4.260   5.027  0.1424  0.3239 -0.2983
13159TIP3    H160968   6.577   4.352   5.032 -1.8945 -0.1889 -0.8083
13159TIP3    H260969   6.593   4.228   5.117  1.3835  0.7153 -0.0075
13160TIP3   OH260970   0.209   2.008   2.657 -0.6358 -0.0383  0.2022
13160TIP3    H160971   0.163   1.924   2.663 -1.0045  0.0831 -0.8139
13160TIP3    H260972   0.301   1.984   2.653 -0.7851 -0.4578 -1.0452
13161TIP3   OH260973   4.554   0.056   0.433 -0.1721 -0.2209  0.2704
13161TIP3    H160974   4.579   0.050   0.341  0.5067 -0.2441  0.4554
13161TIP3    H260975   4.460   0.072   0.431  0.0933  1.2790 -0.4508
13162TIP3   OH260976   1.030   0.667   3.157  0.0441  0.3295 -0.2025
13162TIP3    H160977   1.095   0.598   3.143 -0.3940 -0.1938  0.2954
13162TIP3    H260978   1.020   0.671   3.253 -0.1613  0.8651 -0.2482
13163TIP3   OH260979   3.892   1.385  16.002 -0.4941  0.3317  0.5339
13163TIP3    H160980   3.908   1.349  15.915  0.7372  3.0614 -0.4206
13163TIP3    H260981   3.802   1.415  16.000 -1.0393 -1.2353  0.8290
13164TIP3   OH260982   0.471   5.107  14.540 -0.1359  0.4978  0.2075
13164TIP3    H160983   0.490   5.187  14.491 -1.5834  0.9950  0.4264
13164TIP3    H260984   0.379   5.116  14.564  0.1764 -0.3951  1.7906
13165TIP3   OH260985   3.287   2.852   2.103 -0.3840  0.0108  0.4665
13165TIP3    H160986   3.328   2.788   2.044 -1.0756  0.5187 -0.5845
13165TIP3    H260987   3.320   2.937   2.073 -1.1791  0.3176  0.4311
13166TIP3   OH260988   5.406   3.942   1.231 -0.2768 -0.2318 -0.1403
13166TIP3    H160989   5.418   4.013   1.168 -1.2009 -1.4419 -1.7226
13166TIP3    H260990   5.344   3.977   1.295  0.9159  1.1262  0.2947
13167TIP3   OH260991   5.461   3.279  12.271 -0.0060 -0.6736 -0.3956
13167TIP3    H160992   5.392   3.323  12.220 -0.8969 -0.4941  0.9400
13167TIP3    H260993   5.426   3.277  12.360  1.5171 -1.0309  0.1924
13168TIP3   OH260994   6.144   5.282   1.666  0.1016  0.3836 -0.8021
13168TIP3    H160995   6.239   5.291   1.660 -0.2099  4.5142 -1.2224
13168TIP3    H260996   6.115   5.274   1.576  0.0352 -0.7640 -0.6799
13169TIP3   OH260997   5.943   6.336   1.352  0.3916  0.2512 -0.3872
13169TIP3    H160998   5.854   6.334   1.316  0.5557  1.5211 -0.8897
13169TIP3    H260999   5.931   6.334   1.447 -0.0516 -3.0114 -0.4634
13170TIP3   OH261000   3.019   2.790   2.175 -0.3164  0.1077 -0.2688
13170TIP3    H161001   3.031   2.708   2.222 -2.1663 -0.8140 -1.3569
13170TIP3    H261002   3.106   2.814   2.145  0.7374  0.0948  2.5555
13171TIP3   OH261003   6.802   6.326   2.617 -0.3001  0.2217  0.5846
13171TIP3    H161004   6.718   6.364   2.642 -0.4867 -0.2498  0.6722
13171TIP3    H261005   6.780   6.244   2.574  0.0180  0.9895 -1.0957
13172TIP3   OH261006   3.572   3.094   1.322 -0.5247  0.3237  0.2680
13172TIP3    H161007   3.486   3.090   1.363 -0.3580 -0.7699  0.5286
13172TIP3    H261008   3.594   3.187   1.320 -3.1619  0.9850 -2.8056
13173TIP3   OH261009   0.266   2.859   1.325 -0.5009 -0.0448  0.2069
13173TIP3    H161010   0.224   2.777   1.300 -0.8572 -0.7765  2.9626
13173TIP3    H261011   0.336   2.833   1.386  0.3797  1.5837 -0.0581
13174TIP3   OH261012   2.232   1.867   2.849  0.1898 -0.1041 -0.4633
13174TIP3    H161013   2.149   1.820   2.837 -0.5190  1.1516 -0.4870
13174TIP3    H261014   2.218   1.919   2.928  0.4092  1.3051 -1.3489
13175TIP3   OH261015   0.382   1.363  17.053  0.6393 -0.0253 -0.3003
13175TIP3    H161016   0.307   1.322  17.010  0.1893  0.3570  0.1249
13175TIP3    H261017   0.345   1.413  17.126  1.3661 -0.3957  0.3355
13176TIP3   OH261018   6.006   1.127   1.964 -0.1729 -0.2286 -0.4101
13176TIP3    H161019   6.010   1.033   1.951 -0.2148 -0.1757 -0.8090
13176TIP3    H261020   6.020   1.164   1.877 -1.2581  0.1162 -0.4406
13177TIP3   OH261021   5.838   4.296   1.135  0.2580  0.5415  0.4451
13177TIP3    H161022   5.932   4.310   1.121  0.1875 -0.2784 -0.9803
13177TIP3    H261023   5.818   4.347   1.214  2.2418 -0.6731  1.7838
13178TIP3   OH261024   3.301   4.195  16.900 -0.0742  0.0783 -0.2851
13178TIP3    H161025   3.336   4.180  16.988  0.5285  0.9779 -0.3652
13178TIP3    H261026   3.233   4.129  16.889  1.3700 -1.4813  0.0087
13179TIP3   OH261027   2.049   3.961  14.822 -0.6117 -0.3151 -0.4274
13179TIP3    H161028   2.087   4.022  14.759  0.1393 -0.0897  0.2473
13179TIP3    H261029   2.124   3.923  14.868 -1.0708 -1.6470 -0.7411
13180TIP3   OH261030   1.740   4.476   0.521  0.8189 -0.0607  0.4490
13180TIP3    H161031   1.790   4.432   0.452 -1.8983 -0.9514 -1.0164
13180TIP3    H261032   1.775   4.439   0.602  2.0904 -1.1635 -0.5713
13181TIP3   OH261033   4.051   5.541  12.818 -0.4186  0.0984  0.4574
13181TIP3    H161034   3.994   5.543  12.741  0.0065  1.1881  0.1430
13181TIP3    H261035   4.005   5.487  12.882 -0.7430 -0.8893 -0.5926
13182TIP3   OH261036   4.654   2.363   5.512  0.5083  0.1014 -0.0153
13182TIP3    H161037   4.719   2.406   5.457  1.4048  0.1782  1.1135
13182TIP3    H261038   4.649   2.415   5.591 -0.6678 -0.1123  0.0705
13183TIP3   OH261039   3.491   3.031   0.112  0.0509 -0.3399  0.3170
13183TIP3    H161040   3.576   3.071   0.090 -0.3289  0.2211 -0.1575
13183TIP3    H261041   3.500   3.002   0.202 -0.5940  3.3614  1.6352
13184TIP3   OH261042   3.894   5.508  16.126 -0.5450 -0.3205 -0.1970
13184TIP3    H161043   3.919   5.526  16.217 -0.6830 -3.5206  0.5094
13184TIP3    H261044   3.943   5.573  16.075  1.3115  0.0441  1.9637
13185TIP3   OH261045   4.169   0.064  12.297  0.4112 -0.2900  0.5417
13185TIP3    H161046   4.242   0.005  12.316  0.0095 -0.9035  0.1819
13185TIP3    H261047   4.092   0.018  12.330 -0.1883 -0.9871 -1.7665
13186TIP3   OH261048   3.153   2.102  16.868  0.2966  0.3819 -0.3710
13186TIP3    H161049   3.083   2.040  16.888  0.0481  0.8295  0.1324
13186TIP3    H261050   3.168   2.091  16.774  0.8327 -1.0461 -0.1372
13187TIP3   OH261051   1.202   3.815   0.773 -0.2185  0.2192  0.1069
13187TIP3    H161052   1.235   3.878   0.838  2.5949 -0.0390 -1.0260
13187TIP3    H261053   1.230   3.851   0.689  0.3312 -1.9014 -0.6396
13188TIP3   OH261054   1.964   5.961   0.782  0.1643 -0.0300 -0.2980
13188TIP3    H161055   1.880   5.922   0.758  0.7380  0.0466 -2.5413
13188TIP3    H261056   1.941   6.049   0.814 -0.7721 -0.7923  1.1981
13189TIP3   OH261057   0.282   0.047  12.033 -0.0008 -0.5493  0.1005
13189TIP3    H161058   0.269   0.020  12.123 -1.9563  0.3774  0.1240
13189TIP3    H261059   0.209   0.008  11.985  1.8087 -2.2431 -1.3747
13190TIP3   OH261060   1.391   0.655  15.059 -0.0262  0.2950 -1.0030
13190TIP3    H161061   1.448   0.651  14.982  2.2447  1.0628  0.5717
13190TIP3    H261062   1.415   0.736  15.103  0.6158 -1.3789  1.8984
13191TIP3   OH261063   6.402   1.744  14.880 -0.3611  0.2722  0.0455
13191TIP3    H161064   6.411   1.737  14.975 -0.1736  2.5617  0.2265
13191TIP3    H261065   6.475   1.693  14.845 -0.0676 -0.0706  1.1251
13192TIP3   OH261066   0.209   0.269   4.060 -0.6039 -0.1818  0.4505
13192TIP3    H161067   0.304   0.269   4.068 -0.6396 -1.8804  1.0849
13192TIP3    H261068   0.193   0.271   3.966  0.0516  0.0865  0.3418
13193TIP3   OH261069   4.792   3.071  12.684 -0.2219 -0.4925  0.5578
13193TIP3    H161070   4.717   3.120  12.650 -0.2370 -1.3556 -0.6718
13193TIP3    H261071   4.819   3.014  12.612  0.4523 -1.5324  1.6051
13194TIP3   OH261072   3.683   4.787  16.604  0.1061  0.1638  0.2999
13194TIP3    H161073   3.626   4.791  16.681 -0.2802  0.1277  0.0130
13194TIP3    H261074   3.657   4.862  16.551  0.5832  0.3667  0.3490
13195TIP3   OH261075   5.039   1.698   1.645  0.0748  0.1996 -0.2563
13195TIP3    H161076   5.068   1.789   1.648  0.1549  0.1770 -0.3525
13195TIP3    H261077   5.099   1.651   1.702  2.5326 -0.4912 -3.2453
13196TIP3   OH261078   6.429   6.269   1.907  0.2059 -0.5302  0.4488
13196TIP3    H161079   6.494   6.285   1.839  0.2600  0.2961  0.6835
13196TIP3    H261080   6.459   6.321   1.981  0.3395 -1.7032  1.2313
13197TIP3   OH261081   2.268   3.054  11.823 -0.0117 -0.6475  0.4350
13197TIP3    H161082   2.184   3.069  11.866  0.3146  0.0364  0.8531
13197TIP3    H261083   2.306   2.980  11.870 -0.0741 -0.5034  0.7147
13198TIP3   OH261084   4.183   6.792   1.146  0.0610 -0.6790 -0.2376
13198TIP3    H161085   4.114   6.766   1.208 -0.5629 -0.3413 -0.7835
13198TIP3    H261086   4.235   6.856   1.194 -1.5490  1.0263 -0.6810
13199TIP3   OH261087   2.883   1.772  12.920 -0.3163  0.1203 -0.9800
13199TIP3    H161088   2.878   1.805  13.010  1.3309 -0.5486 -0.6240
13199TIP3    H261089   2.891   1.851  12.866 -0.7131  0.4943 -0.5024
13200TIP3   OH261090   3.943   3.155  13.625  0.0640 -0.2136  0.4938
13200TIP3    H161091   4.011   3.088  13.624  0.2776  0.0019 -0.9935
13200TIP3    H261092   3.934   3.181  13.534 -0.7864  1.0085  0.9119
13201TIP3   OH261093   2.325   4.723   4.987  0.2790  0.5084 -0.2673
13201TIP3    H161094   2.365   4.694   4.905  0.8116  1.0497 -0.1972
13201TIP3    H261095   2.234   4.693   4.981  0.5903 -0.3839 -0.5882
13202TIP3   OH261096   1.324   5.258   1.445  0.1575  0.2209  0.1522
13202TIP3    H161097   1.396   5.195   1.445  1.0228  1.1845  1.9776
13202TIP3    H261098   1.283   5.248   1.530 -0.8173  0.8879 -0.2316
13203TIP3   OH261099   0.547   3.604  11.143 -0.0542 -0.1120 -0.3393
13203TIP3    H161100   0.514   3.515  11.151  0.3097 -0.1682  0.5515
13203TIP3    H261101   0.514   3.634  11.058 -0.3949 -0.9973 -0.5248
13204TIP3   OH261102   3.844   5.236   4.462  0.0303 -0.1638  0.2536
13204TIP3    H161103   3.902   5.204   4.531 -1.0505 -1.3746  0.6111
13204TIP3    H261104   3.762   5.188   4.475 -1.1812  1.7748 -0.0144
13205TIP3   OH261105   4.820   2.522   5.262  0.0853 -0.2894 -0.0470
13205TIP3    H161106   4.884   2.568   5.315  0.1165  1.4108 -1.4909
13205TIP3    H261107   4.751   2.586   5.246 -0.8199 -1.3444 -0.5014
13206TIP3   OH261108   1.385   2.638   0.168 -0.5134 -0.0152 -0.4961
13206TIP3    H161109   1.467   2.651   0.120  0.4146 -0.3430  0.9851
13206TIP3    H261110   1.368   2.544   0.161 -0.1685 -0.1243  0.1657
13207TIP3   OH261111   2.859   6.275   0.874  0.3208 -0.3215 -0.2228
13207TIP3    H161112   2.898   6.343   0.929  0.4649  0.3587 -1.1661
13207TIP3    H261113   2.841   6.203   0.935  0.4506  0.4356  0.7269
13208TIP3   OH261114   4.904   3.583   0.905  0.0925 -0.1352  0.1716
13208TIP3    H161115   4.883   3.643   0.833  1.2221 -0.4936 -0.4828
13208TIP3    H261116   4.999   3.592   0.916  0.1155 -1.0381  0.7566
13209TIP3   OH261117   1.481   6.330   5.726 -0.0637 -0.0315 -0.7179
13209TIP3    H161118   1.551   6.291   5.779  0.5954  1.2185 -0.6432
13209TIP3    H261119   1.401   6.316   5.778 -0.4857 -4.6954 -2.4684
13210TIP3   OH261120   4.068   3.368  14.077  0.3757 -0.4075  0.0409
13210TIP3    H161121   4.004   3.298  14.065 -0.4099  0.3295 -0.0948
13210TIP3    H261122   4.134   3.351  14.009  0.5371 -1.3896  0.4315
13211TIP3   OH261123   0.526   0.105   4.720  0.7302 -0.4559 -0.0293
13211TIP3    H161124   0.457   0.040   4.715 -0.7943  1.1234  0.1548
13211TIP3    H261125   0.532   0.141   4.631  0.3861  0.3319  0.2571
13212TIP3   OH261126   3.906   0.718   3.833 -0.4340  0.0386 -0.4013
13212TIP3    H161127   3.932   0.808   3.815 -0.3821  0.1737  0.3036
13212TIP3    H261128   3.916   0.672   3.750  0.1368  0.5425 -0.6150
13213TIP3   OH261129   1.850   6.468   1.076  0.6430  0.7931 -0.2385
13213TIP3    H161130   1.916   6.506   1.135  0.6322 -0.3720  0.5537
13213TIP3    H261131   1.856   6.374   1.092 -0.8726  0.6341 -0.5146
13214TIP3   OH261132   4.552   4.375   1.426  0.6586  0.0931 -0.0348
13214TIP3    H161133   4.543   4.414   1.513 -0.0621  0.3040 -0.1959
13214TIP3    H261134   4.487   4.421   1.372  0.9100 -0.2231 -0.6154
13215TIP3   OH261135   4.295   5.607   1.251 -0.0749 -0.4102 -0.5884
13215TIP3    H161136   4.261   5.528   1.295 -3.9002  0.9097 -0.9835
13215TIP3    H261137   4.333   5.658   1.322 -1.2164 -0.8129  0.3455
13216TIP3   OH261138   2.456   3.716  17.031 -0.0823 -0.4007 -0.0504
13216TIP3    H161139   2.487   3.748  16.946 -0.1712  0.4339  0.2255
13216TIP3    H261140   2.428   3.795  17.077  1.3894 -0.6823  1.3418
13217TIP3   OH261141   2.893   5.655   3.615  0.1818 -0.1203 -0.0648
13217TIP3    H161142   2.825   5.628   3.553 -0.5319 -0.5343  0.8846
13217TIP3    H261143   2.968   5.600   3.594 -0.4354 -1.0728  0.1749
13218TIP3   OH261144   5.111   2.473   2.486  0.2310  0.1552  0.4004
13218TIP3    H161145   5.032   2.525   2.495  1.7921  2.6200  0.3381
13218TIP3    H261146   5.122   2.461   2.391  0.0841  0.0396  0.3982
13219TIP3   OH261147   4.159   1.523  10.249 -0.0394  0.1751  0.0141
13219TIP3    H161148   4.222   1.452  10.246  0.1444  0.2968  0.8395
13219TIP3    H261149   4.209   1.601  10.223 -0.6072 -0.2383 -2.3819
13220TIP3   OH261150   4.126   1.419  11.547  0.2223  0.2568  0.1692
13220TIP3    H161151   4.085   1.410  11.633 -0.6980 -0.0558 -0.2974
13220TIP3    H261152   4.054   1.413  11.485  0.4628  3.6164 -0.5094
13221TIP3   OH261153   1.215   2.033   5.350 -0.5588 -0.2085 -0.3931
13221TIP3    H161154   1.211   2.061   5.258 -0.3159 -2.2536 -1.0466
13221TIP3    H261155   1.137   2.073   5.390 -0.9657  0.2553 -1.6044
13222TIP3   OH261156   4.815   5.700  11.409 -0.4006 -0.0380  0.1240
13222TIP3    H161157   4.791   5.637  11.342 -0.4935 -0.8719  0.9417
13222TIP3    H261158   4.761   5.678  11.485  2.1864 -1.3590  1.6791
13223TIP3   OH261159   5.094   3.784  16.844 -0.8443 -0.1413  0.1790
13223TIP3    H161160   5.083   3.695  16.877 -0.4124 -0.4322 -0.4685
13223TIP3    H261161   5.043   3.787  16.763 -0.0034 -0.1139 -0.3540
13224TIP3   OH261162   5.461   3.518   3.886  0.1691 -0.5163  0.0699
13224TIP3    H161163   5.505   3.449   3.836  0.0329 -0.2877 -0.3688
13224TIP3    H261164   5.527   3.546   3.950  0.4685 -0.5644 -0.2158
13225TIP3   OH261165   2.495   4.191   0.598  0.1170  0.1104  0.6550
13225TIP3    H161166   2.471   4.261   0.537 -0.8895  0.6182  1.6112
13225TIP3    H261167   2.588   4.204   0.614 -0.0579  1.2516  0.8346
13226TIP3   OH261168   5.676   0.681   4.191 -0.1250 -0.0332  0.2843
13226TIP3    H161169   5.750   0.670   4.132 -0.4735  0.3795 -0.2305
13226TIP3    H261170   5.664   0.776   4.198  0.1105 -0.0685  1.2588
13227TIP3   OH261171   1.537   3.674   2.548  0.0498 -0.4625  0.1194
13227TIP3    H161172   1.449   3.711   2.538 -0.3306 -1.2681  0.3912
13227TIP3    H261173   1.521   3.585   2.578  0.9353 -1.0405 -1.0969
13228TIP3   OH261174   0.974   3.950  14.190  0.1909 -0.3996  0.8431
13228TIP3    H161175   0.969   4.003  14.270  0.5885  2.9053 -1.2306
13228TIP3    H261176   0.886   3.957  14.152  0.8862  0.7355 -0.6125
13229TIP3   OH261177   3.373   4.016   1.252  0.1275 -0.1442 -0.0546
13229TIP3    H161178   3.357   4.102   1.212  1.3511  1.1404  2.0656
13229TIP3    H261179   3.392   3.958   1.178 -1.5742  1.2066 -1.5960
13230TIP3   OH261180   5.619   4.141   0.474 -0.7195  0.4739 -0.0418
13230TIP3    H161181   5.666   4.102   0.401  0.0071 -1.3171  1.3536
13230TIP3    H261182   5.673   4.216   0.500  0.1746 -0.2117  0.0804
13231TIP3   OH261183   0.431   2.753   3.801 -0.3645  0.6815 -1.0664
13231TIP3    H161184   0.420   2.662   3.772 -0.6509  0.7261 -1.0988
13231TIP3    H261185   0.439   2.747   3.896 -0.5865  0.6402 -1.0503
13232TIP3   OH261186   1.970   3.371   3.703  0.5044 -0.4168  0.3065
13232TIP3    H161187   2.012   3.403   3.623  0.3029  0.0018  0.3642
13232TIP3    H261188   1.915   3.444   3.731  2.2162  0.2368  2.0142
13233TIP3   OH261189   4.820   6.416   3.544 -0.0081  0.3752 -0.1039
13233TIP3    H161190   4.750   6.416   3.610  1.5620  2.4436  1.5993
13233TIP3    H261191   4.882   6.482   3.574  2.6715 -1.3453 -1.6174
13234TIP3   OH261192   4.400   3.283  15.926  0.0671  0.0961 -0.6352
13234TIP3    H161193   4.367   3.353  15.870  0.7189  1.8887  1.1749
13234TIP3    H261194   4.329   3.219  15.929 -0.5900  0.7214 -2.1927
13235TIP3   OH261195   3.069   1.261  17.022 -0.2673  0.0826  0.0250
13235TIP3    H161196   3.145   1.310  16.991  1.4089 -3.2406 -1.4335
13235TIP3    H261197   2.998   1.287  16.963  0.2839  1.5688  0.0072
13236TIP3   OH261198   5.883   5.488  16.085 -0.1354 -0.3970  0.0815
13236TIP3    H161199   5.961   5.473  16.032 -0.2908  1.3898 -0.6832
13236TIP3    H261200   5.904   5.449  16.170  1.9491  0.8292  0.1778
13237TIP3   OH261201   1.386   5.592  13.087 -0.1715 -0.1111 -0.5471
13237TIP3    H161202   1.356   5.669  13.038 -0.0624 -0.7170 -1.5752
13237TIP3    H261203   1.468   5.619  13.127 -0.2946  0.4116 -0.6488
13238TIP3   OH261204   0.652   0.562  11.838  0.4623  0.1783  0.3956
13238TIP3    H161205   0.712   0.595  11.905 -0.2510  0.4571  0.8940
13238TIP3    H261206   0.572   0.614  11.849  0.5460  0.6393 -1.0541
13239TIP3   OH261207   4.834   0.779   1.505  0.2116  0.2818  0.1723
13239TIP3    H161208   4.900   0.841   1.473  0.1969 -0.0270 -0.4538
13239TIP3    H261209   4.877   0.693   1.500  0.0052  0.1614  0.4310
13240TIP3   OH261210   5.158   2.385   6.311 -0.9578 -0.0810  0.9988
13240TIP3    H161211   5.214   2.353   6.382  0.1932  1.9648  1.0326
13240TIP3    H261212   5.217   2.393   6.237 -1.3946  1.3089  0.8029
13241TIP3   OH261213   2.145   5.572  14.814  0.0864 -0.0232 -0.0144
13241TIP3    H161214   2.195   5.492  14.829 -0.0993 -0.3942 -1.2749
13241TIP3    H261215   2.073   5.568  14.877  0.9029 -0.1310  0.9154
13242TIP3   OH261216   5.201   5.205   4.286 -0.3347 -0.3340 -0.6664
13242TIP3    H161217   5.198   5.193   4.191  0.0501 -1.7427 -0.5237
13242TIP3    H261218   5.256   5.282   4.299 -0.3110 -0.1945 -1.5848
13243TIP3   OH261219   2.856   2.519   5.646  0.0344 -0.1440  0.1250
13243TIP3    H161220   2.899   2.493   5.564 -1.4648  1.2564 -1.1507
13243TIP3    H261221   2.821   2.437   5.682  0.1262 -0.6771 -0.9737
13244TIP3   OH261222   1.896   5.136  12.845 -0.1780  0.1978 -0.6845
13244TIP3    H161223   1.848   5.217  12.864 -1.4888 -0.9598  1.0534
13244TIP3    H261224   1.849   5.096  12.772 -1.4448 -0.5612  0.5285
13245TIP3   OH261225   2.974   1.312   5.555  0.0378 -0.9027 -0.4116
13245TIP3    H161226   2.977   1.392   5.608  1.4088 -1.6790  0.7138
13245TIP3    H261227   3.033   1.329   5.482 -0.2983 -0.5775 -0.6056
13246TIP3   OH261228   3.956   3.977   4.093  0.0558  0.4045  0.0371
13246TIP3    H161229   3.926   3.943   4.008  2.6175  0.3477 -0.8758
13246TIP3    H261230   4.036   3.927   4.111 -1.2378 -0.6188  3.2140
13247TIP3   OH261231   3.205   1.336   2.655  0.2820  0.9711  0.2222
13247TIP3    H161232   3.116   1.310   2.677  0.9391 -0.9478  0.6985
13247TIP3    H261233   3.240   1.263   2.604  1.3168  2.0695 -0.6745
13248TIP3   OH261234   0.756   3.945  16.156  0.3111 -0.3161  0.0696
13248TIP3    H161235   0.730   3.884  16.086  0.8187 -0.8267  0.3174
13248TIP3    H261236   0.794   4.020  16.110  0.0869 -0.3822 -0.2243
13249TIP3   OH261237   1.894   1.738   6.876  0.3788 -0.2135  0.0340
13249TIP3    H161238   1.829   1.670   6.898  1.1382 -0.6829  0.8964
13249TIP3    H261239   1.952   1.696   6.812 -1.4536  0.9439 -2.4626
13250TIP3   OH261240   1.321   4.059  15.835  0.0960  0.4716  0.0549
13250TIP3    H161241   1.246   4.074  15.892  0.1294 -0.4832  0.3617
13250TIP3    H261242   1.374   3.994  15.882 -0.6821 -1.5460 -1.7570
13251TIP3   OH261243   6.214   5.681   4.956 -0.2039 -0.6111  0.2214
13251TIP3    H161244   6.160   5.724   5.022 -1.1747 -0.1097 -0.8989
13251TIP3    H261245   6.304   5.704   4.980 -0.6815  1.7205 -0.1364
13252TIP3   OH261246   6.731   6.009  12.000  0.0998  0.1753  0.2624
13252TIP3    H161247   6.648   5.970  12.026  0.5605 -1.1107 -0.1594
13252TIP3    H261248   6.742   6.084  12.058 -1.0357 -0.0483  0.7640
13253TIP3   OH261249   1.312   3.600   4.086  0.2796  0.0375  0.2676
13253TIP3    H161250   1.370   3.658   4.037  0.3156 -1.0457 -0.9856
13253TIP3    H261251   1.343   3.606   4.177  0.1206  2.1545  0.2067
13254TIP3   OH261252   5.989   5.712   5.379  0.3818  0.1122 -0.4453
13254TIP3    H161253   5.900   5.677   5.381  0.3269  0.2895  1.2058
13254TIP3    H261254   6.036   5.661   5.444  0.8675  1.6207  0.4158
13255TIP3   OH261255   0.169   2.361   5.372 -0.4152 -0.0994  0.5946
13255TIP3    H161256   0.133   2.444   5.341 -4.1041 -1.0330  2.0517
13255TIP3    H261257   0.188   2.377   5.465 -0.7846 -0.7569  0.7852
13256TIP3   OH261258   6.086   1.894  15.212  0.1399  0.5046 -0.5458
13256TIP3    H161259   6.145   1.940  15.153  0.3744  0.1942 -0.5550
13256TIP3    H261260   6.081   1.950  15.289 -0.2525  0.9625 -0.9013
13257TIP3   OH261261   5.867   2.937   2.140  0.1571 -0.3037  0.4883
13257TIP3    H161262   5.867   2.988   2.059 -1.4719 -1.0779 -0.0110
13257TIP3    H261263   5.786   2.886   2.137 -0.1046 -0.0907  2.7712
13258TIP3   OH261264   6.458   1.919   2.777  0.0197 -0.0484  0.4744
13258TIP3    H161265   6.538   1.906   2.828 -0.4320 -0.7663  1.0152
13258TIP3    H261266   6.454   1.843   2.718 -0.4101 -0.1605  0.6459
13259TIP3   OH261267   3.968   2.914   0.717 -0.0361  0.5412  0.5915
13259TIP3    H161268   3.879   2.931   0.750 -0.2852 -1.1405  0.8123
13259TIP3    H261269   4.025   2.953   0.783 -0.5993  0.3609  1.2030
13260TIP3   OH261270   6.410   2.709   0.564 -0.1327  0.0621  0.0684
13260TIP3    H161271   6.415   2.659   0.646  0.6188 -1.4193 -0.8669
13260TIP3    H261272   6.420   2.800   0.591  1.8805 -0.5423  1.4505
13261TIP3   OH261273   0.412   0.131   2.536  0.2538 -0.4797  0.6713
13261TIP3    H161274   0.361   0.211   2.550 -0.1519 -0.3382 -1.4525
13261TIP3    H261275   0.460   0.119   2.617  0.8875  2.3320  0.7610
13262TIP3   OH261276   6.806   6.094  15.296 -0.0052  0.4348 -0.3983
13262TIP3    H161277   6.838   6.024  15.353  1.4338  0.7690 -0.7527
13262TIP3    H261278   6.719   6.115  15.328 -1.5149 -3.2831 -1.8872
13263TIP3   OH261279   3.554   0.421  15.537  0.4424  0.4788  0.0352
13263TIP3    H161280   3.619   0.410  15.606  0.3028 -0.6202  0.0061
13263TIP3    H261281   3.476   0.378  15.571 -0.0516  1.1651 -0.2292
13264TIP3   OH261282   5.619   0.738   3.022  0.2275 -0.6440 -0.2204
13264TIP3    H161283   5.703   0.693   3.011  0.0458 -0.7682 -1.1336
13264TIP3    H261284   5.569   0.681   3.081  1.1997 -0.0040  1.2191
13265TIP3   OH261285   5.290   0.923  11.398 -0.2147 -0.0021 -0.4091
13265TIP3    H161286   5.248   0.845  11.433 -1.1498  0.4813 -0.4417
13265TIP3    H261287   5.224   0.992  11.405  0.6800  0.8541 -0.1398
13266TIP3   OH261288   1.175   2.528   5.521 -0.6458 -0.1479 -0.3032
13266TIP3    H161289   1.145   2.524   5.430 -0.3017  0.5618 -0.4523
13266TIP3    H261290   1.123   2.462   5.566 -0.0178 -1.3281 -1.2470
13267TIP3   OH261291   4.440   3.639   1.202  0.6106  0.7294 -0.2441
13267TIP3    H161292   4.447   3.609   1.293 -0.4792 -1.1534 -0.7503
13267TIP3    H261293   4.419   3.732   1.209 -1.4822  0.1595  1.4482
13268TIP3   OH261294   1.216   5.112   2.922 -0.1560 -0.0332  0.0976
13268TIP3    H161295   1.190   5.024   2.949 -0.2339 -0.6161 -1.7980
13268TIP3    H261296   1.134   5.156   2.900  0.0146 -0.0352 -0.5462
13269TIP3   OH261297   3.950   2.766  14.174  0.5376  0.4403  0.1164
13269TIP3    H161298   3.903   2.688  14.143  0.2296  0.3231  0.8649
13269TIP3    H261299   3.888   2.838  14.163  0.4623  0.4142  0.3597
13270TIP3   OH261300   3.179   6.537   4.404  0.1428  0.3721  0.3150
13270TIP3    H161301   3.253   6.480   4.424 -0.3412 -0.5901 -0.6083
13270TIP3    H261302   3.104   6.478   4.397 -0.2612  1.0587 -1.1852
13271TIP3   OH261303   0.377   5.056   3.301 -0.1995 -0.0606 -0.0424
13271TIP3    H161304   0.350   4.964   3.299  1.6757 -0.6079 -1.1332
13271TIP3    H261305   0.350   5.087   3.387 -2.8201 -1.0184 -0.4734
13272TIP3   OH261306   3.082   5.765   1.730 -0.3759 -0.1540 -0.3953
13272TIP3    H161307   2.998   5.737   1.695 -1.2412  2.2288 -0.2979
13272TIP3    H261308   3.105   5.843   1.680  2.9858 -2.1110 -2.0877
13273TIP3   OH261309   5.950   4.928   1.719  0.5849  0.3969 -0.1773
13273TIP3    H161310   5.875   4.985   1.702  0.5715  0.7855  1.1273
13273TIP3    H261311   5.921   4.871   1.790  0.7678 -0.9333 -1.1470
13274TIP3   OH261312   5.499   1.141  10.820  0.1544  0.1837  0.0872
13274TIP3    H161313   5.442   1.217  10.833 -1.1959 -0.6613 -0.7443
13274TIP3    H261314   5.486   1.088  10.900  0.3310  0.3429  0.2220
13275TIP3   OH261315   1.813   5.818   3.680  0.2133 -0.1633  0.0652
13275TIP3    H161316   1.809   5.914   3.678 -1.5204 -0.2168  0.3437
13275TIP3    H261317   1.760   5.794   3.756  2.3943 -1.2724  1.2957
13276TIP3   OH261318   2.905   6.444  16.357 -0.1008 -0.0351 -0.5212
13276TIP3    H161319   2.844   6.517  16.351 -0.3733 -0.2022  0.1825
13276TIP3    H261320   2.975   6.476  16.414 -0.7351 -0.6687  0.6436
13277TIP3   OH261321   4.391   6.113  12.752  0.2225 -0.2823  0.1689
13277TIP3    H161322   4.372   6.149  12.838  0.5412 -0.6768  0.4074
13277TIP3    H261323   4.376   6.019  12.761 -0.2022 -0.2686 -0.3333
13278TIP3   OH261324   0.162   0.540   1.093 -0.1879  0.0107 -0.4753
13278TIP3    H161325   0.242   0.495   1.068  0.8724  1.7920 -0.3837
13278TIP3    H261326   0.124   0.569   1.011 -0.0705  0.2730 -0.4371
13279TIP3   OH261327   1.875   1.888  16.473  0.5674  1.0956 -0.3697
13279TIP3    H161328   1.884   1.916  16.382  3.2907 -1.2688 -0.8885
13279TIP3    H261329   1.965   1.881  16.505 -0.2156 -1.8658  1.3122
13280TIP3   OH261330   5.070   5.514  10.455 -0.0561 -0.2386  0.0424
13280TIP3    H161331   5.070   5.589  10.397  1.5880 -1.8240 -2.0852
13280TIP3    H261332   5.119   5.543  10.532 -1.4764  1.5757  0.2988
13281TIP3   OH261333   1.608   4.893   5.652 -0.2693  0.5474  0.1637
13281TIP3    H161334   1.680   4.951   5.627 -0.5178  1.7251  2.1057
13281TIP3    H261335   1.546   4.899   5.579  0.8638  0.7168 -0.8108
13282TIP3   OH261336   2.039   6.227  11.327 -0.2364 -0.4034  0.0275
13282TIP3    H161337   1.983   6.283  11.273  0.0819  0.4158  0.5288
13282TIP3    H261338   1.989   6.146  11.337 -1.2848  0.2590  0.3395
13283TIP3   OH261339   3.560   4.057   2.395  0.2119 -0.2017  0.7396
13283TIP3    H161340   3.504   4.120   2.439 -0.0452  0.4552 -0.5177
13283TIP3    H261341   3.502   4.011   2.335  0.5448 -1.1565  1.1309
13284TIP3   OH261342   2.374   2.496   4.516 -0.0272  1.1465 -0.8309
13284TIP3    H161343   2.283   2.469   4.525 -0.0686  1.4321 -0.4092
13284TIP3    H261344   2.416   2.421   4.473  0.1950 -0.3141  1.7850
13285TIP3   OH261345   4.001   1.586  16.922 -0.0865 -0.2368  0.6009
13285TIP3    H161346   4.056   1.519  16.964  0.4984 -0.2407 -0.1593
13285TIP3    H261347   3.912   1.564  16.949  0.1508 -1.0281  0.7600
13286TIP3   OH261348   1.767   0.197   3.178  0.9486 -0.0458 -0.4463
13286TIP3    H161349   1.786   0.140   3.103 -0.1541 -1.7592  0.5511
13286TIP3    H261350   1.851   0.203   3.224  1.1553 -0.6178 -0.7295
13287TIP3   OH261351   3.702   1.074   0.957  0.1873 -0.8785  0.4832
13287TIP3    H161352   3.714   1.076   0.862  0.0966 -0.6587  0.4763
13287TIP3    H261353   3.609   1.060   0.969  0.1002 -0.2512  0.5412
13288TIP3   OH261354   6.340   0.659   5.635 -0.2270  0.1240  0.1037
13288TIP3    H161355   6.339   0.749   5.603 -1.6366  0.8447  2.0580
13288TIP3    H261356   6.263   0.618   5.595  0.4386 -0.2433 -0.8192
13289TIP3   OH261357   3.413   4.620   5.915  0.1468 -0.2840 -1.1219
13289TIP3    H161358   3.460   4.703   5.914 -0.7438  0.2613  0.2935
13289TIP3    H261359   3.471   4.560   5.962  0.0344  0.0096 -0.6074
13290TIP3   OH261360   1.553   1.704  14.242  0.1827 -0.4516  0.7033
13290TIP3    H161361   1.601   1.742  14.169 -2.2364  1.1407 -0.1360
13290TIP3    H261362   1.557   1.610  14.227  2.2577 -0.3099  0.2046
13291TIP3   OH261363   4.838   3.314   0.768  0.3782  0.5348 -0.5865
13291TIP3    H161364   4.762   3.256   0.774  0.2238  0.8413  0.5871
13291TIP3    H261365   4.811   3.393   0.814  1.0755  1.0060 -0.9866
13292TIP3   OH261366   3.455   4.244   5.343  0.4114  0.2679  0.1234
13292TIP3    H161367   3.384   4.218   5.284  0.7336 -0.5997  0.1017
13292TIP3    H261368   3.473   4.165   5.395  0.9122  0.6792  0.5814
13293TIP3   OH261369   5.255   1.149   3.730 -0.6178  0.0507  0.1287
13293TIP3    H161370   5.177   1.098   3.708 -1.9052  1.6341  0.9089
13293TIP3    H261371   5.326   1.085   3.730 -1.6774 -1.1865 -1.9110
13294TIP3   OH261372   3.245   2.787   6.187  0.0535  0.3706  0.4312
13294TIP3    H161373   3.311   2.841   6.143 -0.0884 -0.1122 -0.3835
13294TIP3    H261374   3.187   2.757   6.117 -1.3652  1.2378  1.2120
13295TIP3   OH261375   5.485   6.202  11.643  0.1164  0.0345 -0.0863
13295TIP3    H161376   5.425   6.131  11.667  0.6337 -0.9557 -1.6335
13295TIP3    H261377   5.565   6.183  11.691  0.0095 -0.0317  0.0657
13296TIP3   OH261378   1.179   2.904   4.520 -0.3517 -0.1944  0.3794
13296TIP3    H161379   1.151   2.960   4.593 -1.0762  1.3866 -1.0739
13296TIP3    H261380   1.105   2.846   4.505 -2.3059  2.8359 -2.3353
13297TIP3   OH261381   4.695   0.284  14.356 -0.3269 -0.1614 -0.2178
13297TIP3    H161382   4.693   0.346  14.429 -1.5007 -0.0046 -0.3819
13297TIP3    H261383   4.780   0.241  14.365 -0.7408 -0.6462  1.6785
13298TIP3   OH261384   1.851   1.733   0.868 -0.5515 -0.4514  0.0108
13298TIP3    H161385   1.919   1.784   0.912 -0.3470 -0.6609 -0.0628
13298TIP3    H261386   1.836   1.780   0.786  0.1893 -0.9374 -0.4086
13299TIP3   OH261387   1.878   1.473  13.113  0.1212  0.7729  0.6660
13299TIP3    H161388   1.835   1.517  13.186 -2.4945  0.6805 -0.7504
13299TIP3    H261389   1.876   1.537  13.042 -3.4575 -1.3996 -1.3292
13300TIP3   OH261390   6.040   4.378  11.877 -0.5905 -0.0638  0.0149
13300TIP3    H161391   5.986   4.442  11.924  0.1101  1.4006 -1.1411
13300TIP3    H261392   6.130   4.405  11.895 -0.2245 -1.7117  0.8402
13301TIP3   OH261393   2.790   2.191   3.237  0.4754 -0.1581 -0.2726
13301TIP3    H161394   2.836   2.230   3.163  1.3643  0.7072  0.7205
13301TIP3    H261395   2.774   2.264   3.296 -0.8908 -0.7084  0.0665
13302TIP3   OH261396   5.628   6.037  15.665  0.0776  0.0723 -0.1703
13302TIP3    H161397   5.720   6.024  15.690 -0.2569 -1.3712  0.3334
13302TIP3    H261398   5.585   6.062  15.747  0.0685  1.0649 -0.4690
13303TIP3   OH261399   2.630   6.092   2.012 -0.2981 -0.0951  0.4533
13303TIP3    H161400   2.615   6.038   2.089  1.2031 -2.7536 -1.0459
13303TIP3    H261401   2.720   6.124   2.021  0.3357 -1.4564 -0.7544
13304TIP3   OH261402   4.155   0.952   0.494 -0.3552  0.4311  0.0223
13304TIP3    H161403   4.220   0.957   0.424 -1.1428  1.5654 -0.6327
13304TIP3    H261404   4.184   1.017   0.558  0.1414 -0.3237  0.5759
13305TIP3   OH261405   3.321   6.792   0.822 -0.1043 -0.0627 -0.1287
13305TIP3    H161406   3.401   6.765   0.779  0.3601  1.5604 -0.3239
13305TIP3    H261407   3.343   6.795   0.916 -1.0047 -3.2142  0.2317
13306TIP3   OH261408   0.584   6.478  13.252 -0.5565  0.3718 -0.5965
13306TIP3    H161409   0.627   6.462  13.335 -0.8791 -0.6980 -0.6343
13306TIP3    H261410   0.575   6.574  13.248  0.0849  0.4743  0.2687
13307TIP3   OH261411   1.809   5.526   0.916  0.1486 -0.3612  0.1511
13307TIP3    H161412   1.723   5.500   0.882 -0.0108  1.5193 -1.0180
13307TIP3    H261413   1.845   5.582   0.847  2.7298 -1.8899  0.2335
13308TIP3   OH261414   0.454   4.993   1.160  0.1155  0.5492  0.9352
13308TIP3    H161415   0.472   4.952   1.245 -0.3220 -0.4147  0.5775
13308TIP3    H261416   0.494   4.934   1.096 -1.3172  0.1774  0.3548
13309TIP3   OH261417   4.405   6.552   1.116  0.2992  0.4018 -0.2075
13309TIP3    H161418   4.490   6.510   1.125  1.1824  1.8913 -1.4183
13309TIP3    H261419   4.424   6.639   1.081 -1.9184 -0.3780 -3.6802
13310TIP3   OH261420   2.824   6.629  13.968 -0.0728 -0.3634  0.7881
13310TIP3    H161421   2.787   6.674  14.044  1.0256  1.1962  0.4310
13310TIP3    H261422   2.777   6.546  13.964 -0.9241  0.0067  2.5109
13311TIP3   OH261423   1.200   5.866   3.415 -0.6102  0.0238 -0.2711
13311TIP3    H161424   1.158   5.949   3.394 -0.7191  0.0269 -0.0368
13311TIP3    H261425   1.134   5.800   3.398 -0.8867  0.0671  0.6013
13312TIP3   OH261426   3.040   0.297   1.799  0.4957  0.1133  0.3962
13312TIP3    H161427   3.012   0.228   1.739  1.7647 -0.9012  0.9361
13312TIP3    H261428   2.970   0.302   1.864 -0.0609  0.0112 -0.1897
13313TIP3   OH261429   5.151   1.320  12.465  0.0997 -0.0297  0.1676
13313TIP3    H161430   5.108   1.352  12.544 -1.3762 -1.1727 -0.1677
13313TIP3    H261431   5.195   1.397  12.429 -3.3070  1.6543 -0.5758
13314TIP3   OH261432   1.226   2.137   1.424 -0.0536  0.0822  0.0514
13314TIP3    H161433   1.306   2.106   1.381  0.1036  0.0986  0.3297
13314TIP3    H261434   1.256   2.207   1.481 -0.0613 -0.8159  1.1725
13315TIP3   OH261435   2.075   2.324  15.554  0.7256  0.0946  0.2614
13315TIP3    H161436   2.103   2.390  15.618 -1.2389  0.4442  0.7824
13315TIP3    H261437   1.994   2.289  15.590  2.0343 -3.0685  0.2813
13316TIP3   OH261438   6.561   6.453   4.804  0.3622 -0.2050  0.9452
13316TIP3    H161439   6.552   6.374   4.858  0.2354  0.4120  1.8475
13316TIP3    H261440   6.582   6.421   4.717  0.1179 -1.2452  1.2642
13317TIP3   OH261441   1.021   2.181  14.180 -0.2513 -0.5526 -0.6690
13317TIP3    H161442   0.944   2.137  14.218  0.9714 -1.8316  0.3892
13317TIP3    H261443   1.035   2.257  14.237 -1.8270  0.7520 -1.9696
13318TIP3   OH261444   5.865   5.376  16.706 -0.6870  0.2256  0.5441
13318TIP3    H161445   5.909   5.453  16.670  0.6696 -0.3857  0.8550
13318TIP3    H261446   5.857   5.316  16.632 -2.9222  1.1532 -0.0073
13319TIP3   OH261447   3.481   2.751  13.864 -0.5784  0.2414 -0.0978
13319TIP3    H161448   3.495   2.706  13.780  0.7675  1.9261 -0.8266
13319TIP3    H261449   3.568   2.753  13.904 -1.1170 -0.0578  1.0892
13320TIP3   OH261450   4.199   5.206  12.629  0.2249 -0.1349  0.4979
13320TIP3    H161451   4.236   5.280  12.678 -2.1482  1.6799 -0.3326
13320TIP3    H261452   4.163   5.149  12.696 -2.2858  1.9319  0.9858
13321TIP3   OH261453   0.555   1.635  16.155 -0.3414 -0.0047 -0.8433
13321TIP3    H161454   0.647   1.646  16.177 -0.6754 -0.3435  0.8250
13321TIP3    H261455   0.554   1.572  16.083  0.7327  0.0246 -0.8835
13322TIP3   OH261456   1.257   1.833   4.787  0.4642  0.5204 -0.0165
13322TIP3    H161457   1.271   1.814   4.694 -1.6238  0.5843 -0.3584
13322TIP3    H261458   1.266   1.748   4.830  0.4546  0.3296 -0.3902
13323TIP3   OH261459   2.675   3.489   2.436  0.2237  0.8436 -0.2934
13323TIP3    H161460   2.705   3.574   2.468 -1.0992  1.2017  0.0011
13323TIP3    H261461   2.718   3.426   2.494  0.5643  1.3385  0.0040
13324TIP3   OH261462   0.477   3.695  14.026 -0.2324 -0.3720 -0.7635
13324TIP3    H161463   0.572   3.702  14.037 -0.1005 -1.8889 -0.7656
13324TIP3    H261464   0.440   3.750  14.095  0.6488 -1.9178  1.0007
13325TIP3   OH261465   6.586   4.852   5.357 -0.3214  0.6070  0.1565
13325TIP3    H161466   6.503   4.814   5.328  0.5283  0.3986 -2.1159
13325TIP3    H261467   6.568   4.886   5.445 -1.8736 -2.5050  1.1219
13326TIP3   OH261468   3.924   5.345   2.993 -0.0272 -0.0588  0.1416
13326TIP3    H161469   3.954   5.345   3.084 -1.0785 -0.8079  0.4921
13326TIP3    H261470   3.843   5.295   2.994 -0.3219  0.3671 -1.1234
13327TIP3   OH261471   0.217   4.675   2.936 -0.6591  0.6492 -0.4183
13327TIP3    H161472   0.286   4.652   2.872 -0.2992 -0.8216  0.4667
13327TIP3    H261473   0.145   4.615   2.914 -0.2424 -0.4039  1.0320
13328TIP3   OH261474   0.221   4.503  16.159  0.2595  0.1941 -0.0417
13328TIP3    H161475   0.217   4.416  16.119 -1.0769 -0.5899  1.7264
13328TIP3    H261476   0.257   4.559  16.090  2.2966 -1.9658 -0.8173
13329TIP3   OH261477   0.213   0.214   0.984 -0.1033 -0.4305 -0.2416
13329TIP3    H161478   0.158   0.229   1.062 -2.4288  0.8849 -2.0577
13329TIP3    H261479   0.290   0.270   0.998 -0.4319 -0.3175  1.1873
13330TIP3   OH261480   2.771   1.952  12.087 -0.0503  0.1709  1.4960
13330TIP3    H161481   2.817   1.993  12.015 -2.5335 -1.7123 -1.2997
13330TIP3    H261482   2.697   2.010  12.105  0.3635  0.4577  2.2729
13331TIP3   OH261483   4.077   1.852  16.902 -0.2527  0.3035 -0.7843
13331TIP3    H161484   4.130   1.895  16.835 -0.2192 -1.3929 -1.8771
13331TIP3    H261485   4.089   1.759  16.886 -2.0068 -0.1182  0.2093
13332TIP3   OH261486   0.954   4.628  14.361 -0.3411  0.1252  0.3111
13332TIP3    H161487   0.967   4.719  14.389  2.6083  0.4044 -1.6677
13332TIP3    H261488   1.011   4.577  14.418 -0.7701 -0.2774  0.3748
13333TIP3   OH261489   6.793   5.249  12.622 -0.0716  0.0283 -0.6614
13333TIP3    H161490   6.733   5.182  12.590 -0.1374 -0.9581  1.3919
13333TIP3    H261491   6.880   5.216  12.599 -0.1778 -0.0154 -1.0002
13334TIP3   OH261492   3.398   6.790  14.895 -0.2294  0.3175  0.1138
13334TIP3    H161493   3.375   6.871  14.940  1.8112  0.9004  0.1413
13334TIP3    H261494   3.314   6.751  14.872 -1.2987  0.9332  2.7766
13335TIP3   OH261495   5.355   4.276   0.994 -0.1805 -0.8287  0.4602
13335TIP3    H161496   5.319   4.242   0.912 -0.8273  0.9902 -0.0310
13335TIP3    H261497   5.293   4.246   1.061 -0.8503 -0.4393  0.0157
13336TIP3   OH261498   6.008   4.590   3.243 -0.4266  0.1838  0.2989
13336TIP3    H161499   5.915   4.610   3.231 -0.7170 -0.1525  1.9365
13336TIP3    H261500   6.053   4.671   3.220 -1.2524  0.9865  1.4970
13337TIP3   OH261501   5.925   2.435   2.861  0.2954 -0.2665 -0.8476
13337TIP3    H161502   5.832   2.438   2.883  0.2023  0.2118 -1.2947
13337TIP3    H261503   5.970   2.428   2.945 -0.1421 -0.4323 -0.6289
13338TIP3   OH261504   5.225   5.784   5.945  0.6734  0.0406  0.0223
13338TIP3    H161505   5.144   5.769   5.994  0.9431  0.9666  0.7626
13338TIP3    H261506   5.286   5.819   6.010  1.6416 -0.5486 -0.5569
13339TIP3   OH261507   4.145   3.815   2.227 -0.0366  0.3353 -0.4523
13339TIP3    H161508   4.095   3.864   2.161  0.7858  2.3884  0.4153
13339TIP3    H261509   4.235   3.818   2.196 -0.1537 -1.8145 -1.0711
13340TIP3   OH261510   0.390   2.058   4.035  0.0501  0.1793  0.9632
13340TIP3    H161511   0.446   2.003   3.981 -1.4075  0.2653 -0.6591
13340TIP3    H261512   0.442   2.137   4.051  0.7287 -0.1148  0.2329
13341TIP3   OH261513   6.065   3.876  14.145  0.2381  0.4316 -0.2789
13341TIP3    H161514   5.995   3.921  14.193 -2.4201 -1.3872 -2.2691
13341TIP3    H261515   6.093   3.939  14.079 -2.4873 -0.2202 -2.1419
13342TIP3   OH261516   2.223   5.131   0.024  0.1027  0.1100  0.0197
13342TIP3    H161517   2.275   5.137  -0.056 -0.0440 -0.1308 -0.0952
13342TIP3    H261518   2.258   5.200   0.081  0.5085 -0.0134 -0.0797
13343TIP3   OH261519   1.937   5.797   0.425  0.3875  0.2168  0.0479
13343TIP3    H161520   1.942   5.890   0.402 -0.1636  0.2322 -0.0333
13343TIP3    H261521   1.843   5.777   0.421  0.5306 -0.4040 -0.1698
13344TIP3   OH261522   0.563   4.852  16.695 -0.3492  0.2923 -0.0123
13344TIP3    H161523   0.595   4.797  16.767  0.1622 -1.7735 -1.7536
13344TIP3    H261524   0.642   4.871  16.643 -0.7117  1.7630 -0.0519
13345TIP3   OH261525   5.253   0.377   0.665 -0.0546  0.1676  0.4211
13345TIP3    H161526   5.317   0.333   0.721  0.1319 -1.7010 -1.2095
13345TIP3    H261527   5.266   0.471   0.681 -0.1745 -0.3283  3.6435
13346TIP3   OH261528   2.127   1.252   3.234 -0.4364  0.2041 -0.5601
13346TIP3    H161529   2.110   1.198   3.157 -1.9167  0.9223 -0.7414
13346TIP3    H261530   2.166   1.191   3.298  1.2792 -0.2891 -2.0203
13347TIP3   OH261531   6.506   1.252  10.514 -0.6238 -0.1098  0.2622
13347TIP3    H161532   6.573   1.234  10.448 -1.5154  1.4402 -1.0953
13347TIP3    H261533   6.545   1.222  10.596  1.0126 -0.8977 -0.7735
13348TIP3   OH261534   2.761   6.742  10.491 -0.2102  0.6710  0.2556
13348TIP3    H161535   2.727   6.653  10.498 -0.0267  0.4308 -1.6006
13348TIP3    H261536   2.847   6.732  10.449 -0.0237  1.6888  0.3751
13349TIP3   OH261537   5.708   1.567  14.953  0.3577  0.2599  0.6006
13349TIP3    H161538   5.644   1.622  14.909  0.4127  0.5725  0.9158
13349TIP3    H261539   5.771   1.544  14.884  1.0167  1.5978  0.7318
13350TIP3   OH261540   3.574   3.747   5.048  0.0283 -0.1277 -0.1430
13350TIP3    H161541   3.633   3.823   5.048 -2.5103  1.8878  0.2188
13350TIP3    H261542   3.540   3.743   4.958  1.1183 -1.6651 -0.5180
13351TIP3   OH261543   5.170   1.546  13.419  0.2197  0.3995 -0.1406
13351TIP3    H161544   5.098   1.501  13.462 -0.8373  1.2455 -0.9966
13351TIP3    H261545   5.234   1.561  13.488 -0.5011 -0.2196  0.6595
13352TIP3   OH261546   2.267   5.276   2.346  0.7884  0.4772 -0.3683
13352TIP3    H161547   2.359   5.267   2.369  0.9705 -2.1627 -1.9222
13352TIP3    H261548   2.268   5.324   2.262  0.7461  0.4125 -0.4056
13353TIP3   OH261549   6.815   3.455  11.785 -0.3452  0.5087  0.3473
13353TIP3    H161550   6.780   3.513  11.852 -0.0902  0.7727  0.2527
13353TIP3    H261551   6.817   3.507  11.706  1.1991  0.8267  0.5708
13354TIP3   OH261552   2.759   0.649   1.858 -0.3630  0.7397  0.1379
13354TIP3    H161553   2.796   0.564   1.879  0.2848  1.5203  2.2252
13354TIP3    H261554   2.800   0.673   1.774  0.2180 -0.5211  0.0590
13355TIP3   OH261555   2.201   1.321  13.785  0.0630 -0.3233 -0.1260
13355TIP3    H161556   2.244   1.345  13.702 -2.1768  1.0297 -0.9339
13355TIP3    H261557   2.113   1.357  13.778 -0.8293 -1.9567  2.0259
13356TIP3   OH261558   4.687   3.627  14.984  0.0760  0.0017  0.0237
13356TIP3    H161559   4.625   3.695  14.958  0.5235  0.9993  1.5203
13356TIP3    H261560   4.640   3.576  15.051  0.0672 -0.6129 -0.4506
13357TIP3   OH261561   2.746   5.786  15.789 -0.0353 -0.0655 -0.5444
13357TIP3    H161562   2.681   5.823  15.848 -0.5139 -1.0461 -0.4550
13357TIP3    H261563   2.754   5.695  15.816  1.8850  0.2184 -0.1066
13358TIP3   OH261564   3.785   3.901  16.253 -0.0654 -0.3301 -0.2228
13358TIP3    H161565   3.748   3.908  16.165 -1.1057 -1.0028  0.1586
13358TIP3    H261566   3.791   3.991  16.284  1.7985  0.0371 -1.5895
13359TIP3   OH261567   6.778   5.059   3.474  0.4856 -0.5077 -0.6440
13359TIP3    H161568   6.751   5.123   3.408  0.0483  0.3798  0.4032
13359TIP3    H261569   6.770   4.975   3.428  0.2431  0.1000 -1.7534
13360TIP3   OH261570   5.229   1.660  13.927 -0.1139 -0.1398 -0.3543
13360TIP3    H161571   5.145   1.615  13.933  0.4581 -1.1431  0.3140
13360TIP3    H261572   5.214   1.732  13.865 -0.3866 -2.6788 -3.3400
13361TIP3   OH261573   0.758   1.962  16.302  0.0881 -0.2357 -0.2609
13361TIP3    H161574   0.830   1.969  16.240 -0.4894 -3.0660 -1.3092
13361TIP3    H261575   0.776   1.882  16.351 -0.4147  1.0083  2.0454
13362TIP3   OH261576   6.767   0.031   3.747 -0.1507 -0.3018 -0.0649
13362TIP3    H161577   6.794  -0.060   3.756 -0.9623 -0.6786 -1.4207
13362TIP3    H261578   6.756   0.044   3.653  0.0549  1.2294  0.1123
13363TIP3   OH261579   3.716   4.761  14.000  0.0139  0.0052 -0.2715
13363TIP3    H161580   3.781   4.705  13.957 -0.6916 -0.5878 -0.5657
13363TIP3    H261581   3.755   4.849  13.998  0.4702 -0.2110 -1.1385
13364TIP3   OH261582   5.375   6.450   3.599 -0.4340 -0.0370 -0.5103
13364TIP3    H161583   5.327   6.530   3.576  0.2392  0.3678 -0.5154
13364TIP3    H261584   5.376   6.399   3.518  1.3699  1.0995 -1.2449
13365TIP3   OH261585   2.553   3.436  14.666 -0.3592 -0.4128 -0.0460
13365TIP3    H161586   2.592   3.445  14.578 -0.2304 -0.6074 -0.0095
13365TIP3    H261587   2.505   3.353  14.662 -0.0772 -0.5876  0.1728
13366TIP3   OH261588   5.674   2.959   5.607 -0.3312 -0.6257 -1.2021
13366TIP3    H161589   5.658   2.952   5.702  0.3174 -1.1918 -1.1284
13366TIP3    H261590   5.592   2.991   5.571 -0.3896  0.1825 -0.3675
13367TIP3   OH261591   3.129   0.147   1.244 -0.1164 -0.1142 -0.3445
13367TIP3    H161592   3.153   0.231   1.204  0.6974  0.9580  2.2449
13367TIP3    H261593   3.034   0.145   1.239 -0.2416  1.6275  0.7327
13368TIP3   OH261594   6.020   1.167   2.844  0.1684  0.0272 -0.1581
13368TIP3    H161595   6.108   1.131   2.850 -0.2566 -0.6955  2.3273
13368TIP3    H261596   6.033   1.259   2.823  1.4887 -0.2503 -0.5919
13369TIP3   OH261597   1.884   0.863   3.164  0.2546  0.0274  0.0585
13369TIP3    H161598   1.944   0.838   3.236  1.0300  0.8791 -0.2821
13369TIP3    H261599   1.845   0.945   3.193  0.9316  0.6213 -0.7079
13370TIP3   OH261600   5.757   2.361   4.776 -0.0892 -0.0320  0.2732
13370TIP3    H161601   5.814   2.354   4.852  0.5079  0.3494 -0.1349
13370TIP3    H261602   5.784   2.442   4.732  0.5497 -0.9726 -1.1238
13371TIP3   OH261603   0.216   2.405   5.676 -0.9116 -0.1744 -0.2775
13371TIP3    H161604   0.282   2.462   5.637 -0.6399 -0.0113  0.4226
13371TIP3    H261605   0.152   2.464   5.715  0.8237 -0.3418  2.9020
13372TIP3   OH261606   2.946   6.160  14.258  0.2496  0.4490 -0.0732
13372TIP3    H161607   2.877   6.205  14.307  1.3435  2.5596 -0.3743
13372TIP3    H261608   2.980   6.228  14.199  0.8767 -1.2562 -1.7045
13373TIP3   OH261609   0.616   0.635   5.437  0.3747  0.5169  0.0397
13373TIP3    H161610   0.626   0.550   5.395  0.6710  0.9693 -0.8246
13373TIP3    H261611   0.694   0.645   5.491  0.8365  0.6795 -0.6533
13374TIP3   OH261612   1.875   3.177  15.707 -0.0996  0.3144 -0.2684
13374TIP3    H161613   1.916   3.095  15.736 -1.7704 -0.1887  0.7559
13374TIP3    H261614   1.795   3.149  15.663  0.7063  1.2746 -2.4057
13375TIP3   OH261615   2.771   4.381  15.432  0.7963 -0.0519 -0.3658
13375TIP3    H161616   2.850   4.425  15.401 -0.7862  2.2770 -1.2863
13375TIP3    H261617   2.758   4.413  15.521  1.6582 -1.5263  0.2914
13376TIP3   OH261618   5.681   0.884   0.948 -0.5369  0.5467 -0.1709
13376TIP3    H161619   5.688   0.800   0.993  0.4500  1.5689  1.6698
13376TIP3    H261620   5.669   0.862   0.856 -2.5577 -1.6095  0.5823
13377TIP3   OH261621   3.821   6.329   1.106 -0.7788 -0.1130  0.1725
13377TIP3    H161622   3.870   6.410   1.094 -1.8615  0.5231 -0.0611
13377TIP3    H261623   3.868   6.264   1.053  0.3293  0.2534  0.6915
13378TIP3   OH261624   6.535   3.233   5.043  0.0455 -0.0163 -0.5800
13378TIP3    H161625   6.583   3.301   5.090  0.4702 -0.5699 -0.2141
13378TIP3    H261626   6.453   3.224   5.091  0.4154 -0.4753 -0.0249
13379TIP3   OH261627   4.986   0.648   3.547  0.1231 -0.0721  0.7291
13379TIP3    H161628   5.068   0.693   3.567  0.3066  0.2857 -0.7797
13379TIP3    H261629   5.010   0.556   3.542 -0.5665 -0.6308  5.5504
13380TIP3   OH261630   4.251   4.819   0.160  0.2888  0.4559 -0.5292
13380TIP3    H161631   4.187   4.883   0.191 -2.5206 -1.5145 -2.0175
13380TIP3    H261632   4.249   4.828   0.064  1.7235 -0.1400 -0.6338
13381TIP3   OH261633   6.419   3.145  12.019 -0.1286  0.3131 -0.3432
13381TIP3    H161634   6.510   3.127  12.038 -0.3652  0.2935  0.7762
13381TIP3    H261635   6.369   3.085  12.074 -0.8587  2.4466  1.3814
13382TIP3   OH261636   6.545   0.820   3.602 -0.8546  0.2066 -0.3970
13382TIP3    H161637   6.593   0.793   3.523 -1.0893  2.8401 -1.4845
13382TIP3    H261638   6.608   0.873   3.651 -1.2145 -0.1292  0.4350
13383TIP3   OH261639   6.759   2.203  16.317 -0.0964 -0.2553 -0.3285
13383TIP3    H161640   6.853   2.212  16.336 -0.4706 -0.5085  1.7137
13383TIP3    H261641   6.756   2.183  16.224  1.9231 -0.8871 -0.2923
13384TIP3   OH261642   3.545   2.938   4.871  0.3820  0.1191  0.7356
13384TIP3    H161643   3.632   2.972   4.891 -0.0280  2.0068 -0.4709
13384TIP3    H261644   3.522   2.980   4.787 -1.6098 -0.4514  0.9658
13385TIP3   OH261645   4.367   6.651   3.246  0.4815  0.2184 -0.1821
13385TIP3    H161646   4.372   6.669   3.340  2.8856  1.8418 -0.5827
13385TIP3    H261647   4.340   6.734   3.207 -2.9165 -1.0899 -0.7507
13386TIP3   OH261648   4.913   3.264  14.135  0.4352 -0.5234  0.0219
13386TIP3    H161649   4.903   3.354  14.168  3.2855 -0.2410  0.2324
13386TIP3    H261650   4.873   3.267  14.048 -0.3525  0.7181  0.4082
13387TIP3   OH261651   3.383   1.568   3.237 -0.0109  0.2732 -0.0575
13387TIP3    H161652   3.460   1.623   3.253 -0.3648  0.7470  0.0502
13387TIP3    H261653   3.311   1.631   3.227 -0.0876 -0.0763 -1.8729
13388TIP3   OH261654   1.928   0.378  16.484 -0.0051  0.3155 -0.2709
13388TIP3    H161655   2.006   0.416  16.524 -0.0368 -1.8104  1.9934
13388TIP3    H261656   1.962   0.307  16.429 -0.2634 -0.0258  0.0041
13389TIP3   OH261657   6.687   5.191   4.019 -0.1369 -0.4691 -0.3195
13389TIP3    H161658   6.738   5.115   3.990  1.9746  0.3766  1.1148
13389TIP3    H261659   6.674   5.242   3.939  1.4490 -0.5958 -0.6833
13390TIP3   OH261660   5.528   2.414  13.887  0.2732 -0.3088 -0.0631
13390TIP3    H161661   5.529   2.412  13.791 -0.6115  0.1159 -0.0806
13390TIP3    H261662   5.530   2.322  13.913  0.5410 -0.4240 -0.4827
13391TIP3   OH261663   5.219   0.917  12.796  0.7118 -0.5167  0.4111
13391TIP3    H161664   5.149   0.852  12.800  1.5721 -1.4482  0.5437
13391TIP3    H261665   5.295   0.869  12.764  1.2606  0.5154  0.1445
13392TIP3   OH261666   0.749   0.904   2.125 -0.0490 -0.0656  0.3523
13392TIP3    H161667   0.788   0.853   2.196 -1.8586 -0.7128  0.9072
13392TIP3    H261668   0.771   0.854   2.046 -0.4102 -0.8477  0.7358
13393TIP3   OH261669   3.130   6.733  14.491 -0.7010 -0.3825  0.2858
13393TIP3    H161670   3.060   6.790  14.524 -1.1411 -1.8464  2.0025
13393TIP3    H261671   3.092   6.691  14.414 -0.2546  1.8529 -1.1861
13394TIP3   OH261672   3.029   2.608  14.838  0.1530  0.0822 -0.4596
13394TIP3    H161673   3.077   2.669  14.782  0.9165 -2.1074 -2.2581
13394TIP3    H261674   3.096   2.549  14.872 -0.6342 -0.0326  0.9456
13395TIP3   OH261675   5.020   0.586  14.748  0.3844 -0.2443 -0.5237
13395TIP3    H161676   4.942   0.585  14.804  1.9764 -2.9221  1.7775
13395TIP3    H261677   5.090   0.616  14.805  1.8972 -2.2440 -1.2744
13396TIP3   OH261678   0.097   1.900   0.607  0.2717  0.2054 -0.5105
13396TIP3    H161679   0.006   1.896   0.636  0.4116  0.6507 -0.0009
13396TIP3    H261680   0.114   1.993   0.593  0.9398  0.2218  0.3493
13397TIP3   OH261681   5.743   5.343   4.293 -0.2890  0.4138 -0.3020
13397TIP3    H161682   5.688   5.266   4.307  0.5903  0.1011  1.5707
13397TIP3    H261683   5.754   5.381   4.380  1.6006  1.0579 -0.7895
13398TIP3   OH261684   4.958   4.322   1.372  0.2226  0.4179 -0.4478
13398TIP3    H161685   4.920   4.256   1.431  1.5046 -1.6503 -1.8677
13398TIP3    H261686   5.034   4.356   1.419 -0.2194  0.6256  0.1280
13399TIP3   OH261687   6.283   1.193   5.399  0.2129  0.1901  0.1680
13399TIP3    H161688   6.203   1.156   5.359  0.2133  0.6225 -0.2358
13399TIP3    H261689   6.282   1.285   5.372 -0.6645  0.9101  2.5544
13400TIP3   OH261690   2.428   5.816   5.734  0.1020 -0.7216  0.4397
13400TIP3    H161691   2.436   5.859   5.649  2.3345 -1.5010  0.2271
13400TIP3    H261692   2.500   5.851   5.786 -1.8735  0.5486  2.3997
13401TIP3   OH261693   4.013   2.520   2.276  0.4469 -0.1996  0.2107
13401TIP3    H161694   3.972   2.600   2.311  0.5070  0.8888 -2.1200
13401TIP3    H261695   4.093   2.510   2.328 -0.7662 -0.1369  2.1524
13402TIP3   OH261696   6.748   6.571   3.344 -0.1993  0.6827 -0.5694
13402TIP3    H161697   6.751   6.501   3.279  0.8227 -1.2618  1.5402
13402TIP3    H261698   6.837   6.604   3.348 -0.6711  2.1333 -1.5420
13403TIP3   OH261699   2.916   1.926   5.027 -0.4126  0.5834 -0.6417
13403TIP3    H161700   2.988   1.989   5.033  0.7269 -0.7485  0.2326
13403TIP3    H261701   2.913   1.901   4.935  0.4657  0.4357 -0.6361
13404TIP3   OH261702   2.379   3.266  11.345  0.2466  0.1101 -0.4828
13404TIP3    H161703   2.321   3.316  11.288  0.0996 -0.1228 -0.5407
13404TIP3    H261704   2.321   3.205  11.391  0.2304  0.9642  0.6522
13405TIP3   OH261705   1.070   5.803  12.532  0.1123  0.4041 -0.1757
13405TIP3    H161706   1.163   5.789  12.512  0.0777  0.8578 -0.6626
13405TIP3    H261707   1.065   5.795  12.627  0.6255  0.2169 -0.1621
13406TIP3   OH261708   0.492   0.635  14.152  0.2687 -0.6754  0.0637
13406TIP3    H161709   0.431   0.708  14.150 -1.8344 -2.3971 -1.6854
13406TIP3    H261710   0.553   0.652  14.080  0.4200 -0.1052  0.3311
13407TIP3   OH261711   1.643   2.848   0.349 -0.8417 -0.0010  0.2506
13407TIP3    H161712   1.552   2.836   0.377 -1.3109  0.6679 -0.9558
13407TIP3    H261713   1.639   2.920   0.286  0.5707  0.2074  0.3916
13408TIP3   OH261714   1.490   3.631  13.741 -0.3468 -0.2872  0.3151
13408TIP3    H161715   1.452   3.547  13.717  0.5671 -0.5010 -0.4023
13408TIP3    H261716   1.579   3.611  13.767 -0.1911  0.4393  0.3601
13409TIP3   OH261717   3.996   2.162   5.007  0.0864 -0.4183 -0.0381
13409TIP3    H161718   3.908   2.164   4.970  0.2313  0.1884 -0.3506
13409TIP3    H261719   4.007   2.248   5.048  0.6153 -0.4180 -0.1860
13410TIP3   OH261720   1.111   5.894  15.408 -0.1621  0.1516  0.5350
13410TIP3    H161721   1.023   5.857  15.412 -0.5675  1.0137 -0.4755
13410TIP3    H261722   1.147   5.864  15.325 -0.3333  1.6631 -0.0946
13411TIP3   OH261723   6.416   1.195  10.857  0.9906  0.3384 -0.2670
13411TIP3    H161724   6.481   1.174  10.789 -1.6675 -1.0746 -2.4942
13411TIP3    H261725   6.346   1.239  10.810  0.3130  1.8931  2.1124
13412TIP3   OH261726   4.393   3.191  13.974 -0.3072 -0.1265  0.3435
13412TIP3    H161727   4.344   3.122  13.931 -1.9602  0.5241  1.1216
13412TIP3    H261728   4.350   3.202  14.059 -0.2236  1.9888  0.1490
13413TIP3   OH261729   1.225   0.258   5.102 -0.3217  0.0077 -0.5777
13413TIP3    H161730   1.186   0.242   5.016 -0.3653  1.3467 -0.8148
13413TIP3    H261731   1.292   0.190   5.110 -0.4879 -0.2872 -1.5643
13414TIP3   OH261732   5.195   6.078   3.402  0.7242  0.0501 -0.1139
13414TIP3    H161733   5.173   6.048   3.313  1.1877  1.5998 -0.7735
13414TIP3    H261734   5.135   6.151   3.418  2.2577  1.3517 -0.1244
13415TIP3   OH261735   2.148   2.402   1.837 -0.5026  0.4696  1.0700
13415TIP3    H161736   2.091   2.431   1.908 -0.9855 -0.8746  1.2470
13415TIP3    H261737   2.140   2.307   1.838  0.2339  0.3928 -0.1715
13416TIP3   OH261738   2.191   3.404  12.145  0.5104  0.0358  0.4244
13416TIP3    H161739   2.210   3.480  12.090 -0.5555  0.9272  1.2566
13416TIP3    H261740   2.234   3.331  12.101 -0.4455  0.7035 -1.6853
13417TIP3   OH261741   1.250   3.770   6.451 -0.1646  0.1067  0.5211
13417TIP3    H161742   1.164   3.728   6.457 -0.3532  0.3286 -0.6643
13417TIP3    H261743   1.311   3.702   6.481 -0.7061 -0.1702  1.0267
13418TIP3   OH261744   3.197   0.129  12.306 -0.1323 -0.1209 -0.0251
13418TIP3    H161745   3.167   0.048  12.348 -1.8065 -0.0255 -0.9988
13418TIP3    H261746   3.117   0.170  12.274  0.8804  1.0917 -1.0267
13419TIP3   OH261747   0.054   3.309   1.982 -0.2380 -0.1914 -0.3137
13419TIP3    H161748   0.123   3.257   2.022  0.7670  1.1334 -0.2928
13419TIP3    H261749   0.099   3.384   1.944 -1.8220  1.4182  0.9067
13420TIP3   OH261750   0.497   2.768  11.310  0.7300  0.0269  0.1371
13420TIP3    H161751   0.466   2.844  11.359  1.3944 -0.4940  1.4253
13420TIP3    H261752   0.582   2.795  11.276  1.8124 -0.7006  2.1322
13421TIP3   OH261753   6.220   0.213  13.865 -0.5884 -0.6670 -0.3349
13421TIP3    H161754   6.159   0.171  13.805 -2.4505 -0.1914  1.1589
13421TIP3    H261755   6.173   0.216  13.949  1.3949 -0.0496  0.7923
13422TIP3   OH261756   4.736   3.111  12.041 -0.2105  0.3218  0.1877
13422TIP3    H161757   4.696   3.090  12.125  0.8965  1.0460  0.9078
13422TIP3    H261758   4.798   3.182  12.060 -0.6539  1.1689 -1.4006
13423TIP3   OH261759   1.356   4.052  14.179  0.1211 -0.4066 -0.2362
13423TIP3    H161760   1.360   4.077  14.271 -2.4587  1.0579 -0.4850
13423TIP3    H261761   1.419   4.109  14.135  1.2823 -1.0411  0.5650
13424TIP3   OH261762   0.099   0.974   0.426 -0.3004 -0.3649 -0.1940
13424TIP3    H161763   0.105   1.067   0.448  0.3400 -0.4035 -0.2060
13424TIP3    H261764   0.047   0.936   0.497 -0.1061 -0.0953  0.0925
13425TIP3   OH261765   0.243   6.249   0.375 -0.5342  0.1857  0.3492
13425TIP3    H161766   0.199   6.318   0.325 -1.5849 -0.2389  0.6725
13425TIP3    H261767   0.242   6.281   0.466  0.1894  0.3525  0.3039
13426TIP3   OH261768   6.763   3.295  15.263  0.0083 -0.1372  0.1976
13426TIP3    H161769   6.749   3.371  15.207 -0.0750 -1.5338 -1.7396
13426TIP3    H261770   6.694   3.234  15.237 -0.3929 -0.5903  2.2574
13427TIP3   OH261771   0.926   4.349   4.587  0.2956  0.8884  0.4695
13427TIP3    H161772   0.863   4.302   4.642  0.5359  0.8197  0.6901
13427TIP3    H261773   0.985   4.281   4.555  0.2033  0.9402  0.1860
13428TIP3   OH261774   4.132   6.209  16.293  0.0619  0.0074  0.3481
13428TIP3    H161775   4.130   6.301  16.266  1.4185 -0.4185 -1.2806
13428TIP3    H261776   4.092   6.162  16.220 -0.5874 -0.7133  1.1601
13429TIP3   OH261777   4.665   4.674   2.809 -0.3908  0.1508  0.2029
13429TIP3    H161778   4.629   4.612   2.873  0.1804  0.4060  0.7809
13429TIP3    H261779   4.597   4.741   2.800 -0.5459  0.0227  0.4126
13430TIP3   OH261780   4.040   4.505  11.640  0.4963  0.0633  0.2854
13430TIP3    H161781   4.101   4.479  11.710  1.2536 -0.8621 -0.7077
13430TIP3    H261782   4.077   4.586  11.605  0.1609  0.4839  0.8786
13431TIP3   OH261783   4.175   1.464   3.328  0.4159  0.0847 -0.8835
13431TIP3    H161784   4.135   1.384   3.294  1.2904 -0.2016 -1.2654
13431TIP3    H261785   4.233   1.493   3.257  0.0790  1.0669 -0.7562
13432TIP3   OH261786   2.879   5.047  16.553  0.0673  0.0505 -0.4057
13432TIP3    H161787   2.784   5.056  16.551 -0.0410 -0.6682  1.0025
13432TIP3    H261788   2.895   4.954  16.537  0.4088 -0.2598  1.5665
13433TIP3   OH261789   3.211   2.182  14.188 -0.8651  0.6320 -0.3661
13433TIP3    H161790   3.273   2.236  14.139 -2.9619  2.1472 -1.3990
13433TIP3    H261791   3.244   2.182  14.277  2.8616 -1.9038 -1.6107
13434TIP3   OH261792   1.703   6.206  17.043  1.0028  0.4616  0.8162
13434TIP3    H161793   1.648   6.197  16.965  1.3146 -0.9593  0.7451
13434TIP3    H261794   1.648   6.254  17.106 -0.1907 -0.6220  0.6217
13435TIP3   OH261795   5.804   3.675   1.900 -0.3841  0.3501 -0.1043
13435TIP3    H161796   5.868   3.631   1.844 -1.9507 -0.2968 -1.3885
13435TIP3    H261797   5.856   3.741   1.947  1.7893 -2.0354  1.0142
13436TIP3   OH261798   1.555   0.012   2.136  0.1705 -0.0436 -0.4820
13436TIP3    H161799   1.527   0.085   2.081 -0.0289  0.1103 -0.1770
13436TIP3    H261800   1.649   0.026   2.149 -0.1615  1.0650  0.9149
13437TIP3   OH261801   6.681   2.197  14.937  0.0119 -0.1576  0.1816
13437TIP3    H161802   6.623   2.126  14.962 -1.1827 -0.4610 -3.1055
13437TIP3    H261803   6.623   2.271  14.921  1.0206  0.9157  1.3227
13438TIP3   OH261804   3.663   2.515  11.847  0.7289 -0.3253  0.0909
13438TIP3    H161805   3.603   2.527  11.773  0.9516  0.3972  0.0194
13438TIP3    H261806   3.748   2.496  11.806  0.7958 -0.1892  0.1660
13439TIP3   OH261807   5.941   2.648  12.474  0.4729  0.0819  0.1388
13439TIP3    H161808   6.012   2.601  12.430 -0.7466 -0.8171 -0.8906
13439TIP3    H261809   5.926   2.597  12.554  0.6023 -0.0605  0.0756
13440TIP3   OH261810   2.967   3.384   5.142 -0.3007  0.4885  0.5059
13440TIP3    H161811   3.001   3.461   5.096  1.1311  0.0499  0.7997
13440TIP3    H261812   3.030   3.315   5.121 -1.6678 -0.6422  0.1168
13441TIP3   OH261813   3.065   0.456   2.197  0.6273  0.3130 -0.2557
13441TIP3    H161814   3.014   0.528   2.160 -1.0090 -0.7376 -0.1113
13441TIP3    H261815   3.043   0.455   2.290  1.6976  0.4687  0.0094
13442TIP3   OH261816   0.263   2.186  13.631  0.5922  0.1431  0.0922
13442TIP3    H161817   0.204   2.138  13.573 -0.7713  0.0671  1.5180
13442TIP3    H261818   0.329   2.122  13.657  0.6823 -0.0607 -0.6232
13443TIP3   OH261819   3.451   0.715  16.333 -0.2114 -0.1621  0.0251
13443TIP3    H161820   3.367   0.715  16.379 -0.2441  1.1913 -0.0247
13443TIP3    H261821   3.434   0.757  16.249  0.2894 -0.8516 -0.4359
13444TIP3   OH261822   1.158   3.065  13.329 -0.3347 -0.2376  0.5072
13444TIP3    H161823   1.155   2.969  13.333 -1.1178 -0.2085  0.8919
13444TIP3    H261824   1.070   3.089  13.298  0.3440  0.2950 -1.0214
13445TIP3   OH261825   5.844   4.708   3.879 -0.5968 -0.0540  0.4460
13445TIP3    H161826   5.824   4.617   3.901 -1.3760  0.2711  1.1082
13445TIP3    H261827   5.940   4.713   3.882 -0.6302 -0.2446  2.9665
13446TIP3   OH261828   2.322   5.698  16.842  0.5331 -0.5114  0.4410
13446TIP3    H161829   2.350   5.729  16.928  1.4678 -0.9501  0.2953
13446TIP3    H261830   2.285   5.776  16.799  3.1002  0.4954 -0.0131
13447TIP3   OH261831   3.526   4.472   0.905  0.1076 -0.1176 -0.6464
13447TIP3    H161832   3.480   4.389   0.890 -0.7824  0.4272 -0.9329
13447TIP3    H261833   3.613   4.457   0.868  0.0649 -1.0427 -0.3990
13448TIP3   OH261834   4.845   3.883   5.936 -0.2670 -0.5760 -0.0493
13448TIP3    H161835   4.899   3.933   5.997  0.3753 -1.5158  0.1694
13448TIP3    H261836   4.874   3.792   5.947  0.3012 -0.6913 -2.1818
13449TIP3   OH261837   1.658   1.200  16.432 -0.3999 -0.3756  0.1798
13449TIP3    H161838   1.565   1.182  16.415 -0.0691 -1.3194 -0.6760
13449TIP3    H261839   1.667   1.294  16.418 -1.1954 -0.3042  0.1116
13450TIP3   OH261840   4.961   4.821  12.006 -0.4535 -0.0733 -0.0851
13450TIP3    H161841   4.890   4.773  11.963 -0.8213  0.0374  0.3909
13450TIP3    H261842   5.020   4.752  12.037 -1.5729 -0.3014  1.6347
13451TIP3   OH261843   2.593   0.854  14.455 -0.1804 -0.5779 -0.0125
13451TIP3    H161844   2.588   0.949  14.443 -3.1833 -0.5462  1.1005
13451TIP3    H261845   2.587   0.841  14.549 -1.1998 -1.9297 -0.2454
13452TIP3   OH261846   2.407   6.512  14.144 -0.1743  0.0690 -0.2338
13452TIP3    H161847   2.404   6.607  14.135  2.0970  0.3578  1.5877
13452TIP3    H261848   2.315   6.485  14.147 -0.8732  1.9172 -3.1441
13453TIP3   OH261849   2.022   4.205   2.400  0.4618 -0.2125  0.2865
13453TIP3    H161850   2.000   4.172   2.312  0.4125 -0.7912  0.5172
13453TIP3    H261851   1.970   4.152   2.459  1.1799 -0.4266  0.7282
13454TIP3   OH261852   0.688   1.636   5.964 -0.1301  0.0385 -0.0708
13454TIP3    H161853   0.777   1.663   5.985 -0.1671  0.3758 -0.3380
13454TIP3    H261854   0.676   1.662   5.873  0.1996 -1.8562 -0.6757
13455TIP3   OH261855   5.200   3.054   3.715  0.1382  0.1168  0.3470
13455TIP3    H161856   5.204   2.963   3.688  0.1304  0.1842  0.1111
13455TIP3    H261857   5.285   3.071   3.756  1.3658  0.8418 -2.3602
13456TIP3   OH261858   1.917   1.884  16.180  0.1532 -0.0748 -0.2322
13456TIP3    H161859   1.971   1.898  16.101  0.6954 -2.2282 -0.2705
13456TIP3    H261860   1.839   1.838  16.148 -1.0080  1.6506  0.0659
13457TIP3   OH261861   1.064   3.508  11.890  0.5665  0.1844  0.5385
13457TIP3    H161862   1.046   3.423  11.932  0.9896  0.4441  1.2596
13457TIP3    H261863   1.123   3.552  11.951 -0.0398  1.2005  0.3934
13458TIP3   OH261864   3.645   2.314   1.402  0.2424  0.3745  0.8475
13458TIP3    H161865   3.559   2.316   1.359  0.6519 -1.5432 -0.1274
13458TIP3    H261866   3.630   2.269   1.485  0.2408  0.3854  0.8532
13459TIP3   OH261867   2.511   2.041   1.675  0.1059  0.4212 -0.4484
13459TIP3    H161868   2.549   2.128   1.663 -0.4327  0.6117 -0.7712
13459TIP3    H261869   2.566   2.000   1.742  0.4180  0.9720 -0.3658
13460TIP3   OH261870   4.781   6.130  13.456  0.0736 -0.5452  0.0657
13460TIP3    H161871   4.850   6.108  13.518 -0.4922  0.2662  1.0015
13460TIP3    H261872   4.767   6.224  13.468 -1.1896 -0.6954 -0.1023
13461TIP3   OH261873   3.964   5.877  17.019 -0.0424  0.1005  0.0536
13461TIP3    H161874   3.977   5.844  16.930  1.6634 -0.8071  0.6277
13461TIP3    H261875   4.015   5.818  17.075  0.7149  1.9639  1.3938
13462TIP3   OH261876   3.007   2.957   0.890  0.7219  0.4622  0.3555
13462TIP3    H161877   3.002   2.953   0.794  0.3759  0.2397  0.3826
13462TIP3    H261878   2.964   2.877   0.920  0.6786  0.6152  0.7036
13463TIP3   OH261879   6.377   1.374   5.085 -0.5274 -0.0810  0.3466
13463TIP3    H161880   6.428   1.385   5.166  0.5117 -0.1659 -0.2895
13463TIP3    H261881   6.335   1.459   5.072 -0.6337 -0.0377  0.9244
13464TIP3   OH261882   2.114   5.559  12.335  0.0828 -0.2111  0.5241
13464TIP3    H161883   2.157   5.637  12.300 -1.3321  0.0243 -0.7063
13464TIP3    H261884   2.186   5.498  12.351  1.0247  0.7161 -0.1140
13465TIP3   OH261885   0.199   3.464   0.043 -0.1347 -0.2537  0.0097
13465TIP3    H161886   0.223   3.499  -0.043 -0.7042  0.0438 -0.0307
13465TIP3    H261887   0.172   3.374   0.026  1.4980 -0.7916  0.1357
13466TIP3   OH261888   0.412   3.930   2.831  0.1584 -0.2289 -0.0483
13466TIP3    H161889   0.359   3.910   2.754  0.3384  0.1207 -0.2677
13466TIP3    H261890   0.378   4.014   2.862  0.1685 -0.3097  0.1779
13467TIP3   OH261891   4.313   1.329   5.866 -0.0049 -0.2582 -0.3250
13467TIP3    H161892   4.381   1.353   5.804  0.7415 -0.4721  0.3937
13467TIP3    H261893   4.336   1.375   5.947 -1.1267  0.2548 -0.2824
13468TIP3   OH261894   3.298   1.565  16.065  0.2279 -0.3563  0.3374
13468TIP3    H161895   3.299   1.519  15.981 -0.6811 -1.0470  0.6901
13468TIP3    H261896   3.235   1.637  16.052  0.8525  0.1617  0.1188
13469TIP3   OH261897   2.691   4.951   3.296 -0.8408  0.5219  0.4759
13469TIP3    H161898   2.701   4.936   3.390 -0.0178 -0.4875  0.2339
13469TIP3    H261899   2.664   4.866   3.261  0.0206  0.5942 -0.3725
13470TIP3   OH261900   0.749   1.416   3.016  0.2254 -0.3793  0.5752
13470TIP3    H161901   0.823   1.391   3.070  0.0228 -1.0442  0.5514
13470TIP3    H261902   0.672   1.384   3.063  0.0106 -0.4419  0.1895
13471TIP3   OH261903   3.031   3.348  14.486 -0.3201  0.1761 -0.0796
13471TIP3    H161904   3.004   3.295  14.411  0.0601  0.7755 -0.6393
13471TIP3    H261905   3.019   3.290  14.561  1.3817 -1.1734 -0.8207
13472TIP3   OH261906   3.532   1.869  13.001  0.2726  0.3084 -0.3741
13472TIP3    H161907   3.546   1.782  12.964 -1.0476 -0.3177  0.5209
13472TIP3    H261908   3.575   1.866  13.087 -1.5277 -0.1819  0.5411
13473TIP3   OH261909   0.815   4.372  15.836 -0.3516 -0.4348 -0.0248
13473TIP3    H161910   0.895   4.422  15.824  0.4131 -2.0341 -1.8979
13473TIP3    H261911   0.756   4.432  15.883  1.1625  1.5344 -0.5619
13474TIP3   OH261912   3.404   0.076   1.067  0.2713  0.6445 -0.3808
13474TIP3    H161913   3.485   0.092   1.116 -0.3428  0.4023  0.7323
13474TIP3    H261914   3.358   0.160   1.069  0.4244  0.7439 -0.8958
13475TIP3   OH261915   6.349   5.610   6.047  0.4824 -0.5593  0.2678
13475TIP3    H161916   6.386   5.695   6.071  0.7412 -1.0116  1.5387
13475TIP3    H261917   6.421   5.549   6.062 -1.0860 -1.6579  4.0857
13476TIP3   OH261918   6.289   6.145  13.706 -0.3656 -0.1473 -0.0614
13476TIP3    H161919   6.340   6.226  13.717  0.2201 -0.2453 -1.9092
13476TIP3    H261920   6.212   6.158  13.761 -0.7745  2.1176 -1.1092
13477TIP3   OH261921   0.846   3.650  16.157 -0.7313  0.1310 -0.1467
13477TIP3    H161922   0.852   3.591  16.082  0.1127  1.6106 -1.2772
13477TIP3    H261923   0.761   3.694  16.147 -1.4562 -1.0110  0.8088
13478TIP3   OH261924   4.197   2.632   3.539 -0.1201 -0.1367 -0.4291
13478TIP3    H161925   4.246   2.682   3.474  1.4902  0.2170  1.0499
13478TIP3    H261926   4.230   2.543   3.530  1.9628  0.3913  1.6302
13479TIP3   OH261927   3.411   2.968  13.325 -0.7639 -0.7997 -0.9306
13479TIP3    H161928   3.472   3.014  13.383 -2.2162 -2.3992  1.9735
13479TIP3    H261929   3.355   3.037  13.290 -0.3454  0.1099  0.1625
13480TIP3   OH261930   5.622   3.654   0.938  0.8009 -0.3598  0.6845
13480TIP3    H161931   5.675   3.578   0.962 -1.4576 -1.5167  2.1514
13480TIP3    H261932   5.627   3.712   1.014  1.7065  0.5454 -0.0423
13481TIP3   OH261933   4.429   3.432   6.146 -0.5639 -0.2664 -0.3915
13481TIP3    H161934   4.349   3.399   6.186  1.4199 -1.5109  2.7518
13481TIP3    H261935   4.478   3.472   6.218  2.2194 -0.7331 -1.9422
13482TIP3   OH261936   3.404   2.269  16.754  0.0320 -0.4277  0.2598
13482TIP3    H161937   3.472   2.202  16.761  0.4871 -0.2973 -2.4078
13482TIP3    H261938   3.450   2.352  16.769 -0.0687 -0.5278  1.1457
13483TIP3   OH261939   6.328   1.637  15.452  0.0340  0.4443  0.1079
13483TIP3    H161940   6.345   1.727  15.480 -1.9458  0.5096  1.1766
13483TIP3    H261941   6.320   1.588  15.534  2.3707 -0.9748 -0.4715
13484TIP3   OH261942   2.046   2.180   5.225 -0.3283  0.1408 -0.5971
13484TIP3    H161943   1.978   2.235   5.186 -1.4582 -0.5831  0.3381
13484TIP3    H261944   2.013   2.091   5.217  0.6005 -0.2356 -0.3041
13485TIP3   OH261945   1.946   0.764  14.980 -0.4801 -0.4904 -0.2691
13485TIP3    H161946   2.009   0.692  14.985 -0.9567 -0.8357  1.0582
13485TIP3    H261947   1.954   0.796  14.890  2.5965  0.3854  0.2399
13486TIP3   OH261948   3.960   0.049   3.931 -0.9522 -0.2685  0.1630
13486TIP3    H161949   4.036   0.101   3.956  0.2758 -1.8165 -0.3098
13486TIP3    H261950   3.954  -0.019   3.998 -3.0623  0.9287  1.2580
13487TIP3   OH261951   5.504   3.807  16.574  0.5065  0.0033  0.9437
13487TIP3    H161952   5.453   3.726  16.564 -1.2972  1.1875  0.2862
13487TIP3    H261953   5.476   3.842  16.658  0.2033  0.6885  0.5575
13488TIP3   OH261954   4.868   0.555  13.438 -0.4754 -0.1337 -0.2368
13488TIP3    H161955   4.780   0.543  13.475  0.3427 -0.4368  1.6920
13488TIP3    H261956   4.927   0.522  13.506  1.1452  0.2714 -1.4195
13489TIP3   OH261957   3.418   3.920   3.506 -0.1268  0.3319 -0.1338
13489TIP3    H161958   3.405   3.975   3.584 -2.1742 -0.6309  0.2484
13489TIP3    H261959   3.368   3.963   3.437 -0.8835 -0.4859 -0.1024
13490TIP3   OH261960   3.084   3.369  15.313 -1.0099 -0.0170  0.2870
13490TIP3    H161961   2.998   3.405  15.287 -0.3621  1.7315  0.5060
13490TIP3    H261962   3.114   3.427  15.382  0.0509 -1.0520  0.7007
13491TIP3   OH261963   4.843   5.252  14.815  0.3809  0.3856  0.1497
13491TIP3    H161964   4.868   5.255  14.907  0.4385 -0.7859  0.1787
13491TIP3    H261965   4.911   5.198  14.774 -0.1789  0.0928 -0.3980
13492TIP3   OH261966   3.652   4.640   0.671 -0.2227 -0.8725 -0.4047
13492TIP3    H161967   3.710   4.670   0.601 -0.7754  0.0247 -0.4854
13492TIP3    H261968   3.707   4.636   0.749  0.3528 -1.6979 -0.8426
13493TIP3   OH261969   0.746   2.407   1.366  0.0138  0.0136  0.1647
13493TIP3    H161970   0.660   2.372   1.342 -0.2171  0.1603  0.7520
13493TIP3    H261971   0.796   2.330   1.396 -0.3304  0.0993  0.9909
13494TIP3   OH261972   2.748   1.982  12.672 -0.2119 -0.1430  0.0264
13494TIP3    H161973   2.792   2.024  12.746  1.0461 -0.9652 -0.2226
13494TIP3    H261974   2.685   2.047  12.641 -0.2949  0.4534  1.4076
13495TIP3   OH261975   6.703   0.597   2.181  0.1789 -0.5759  0.0359
13495TIP3    H161976   6.618   0.643   2.177 -0.0341 -0.9600  0.1564
13495TIP3    H261977   6.697   0.530   2.113  0.9767  0.3944 -1.0075
13496TIP3   OH261978   6.237   2.910   2.736 -0.0095  0.2762 -0.2356
13496TIP3    H161979   6.145   2.935   2.743 -0.2493 -0.4541 -0.7012
13496TIP3    H261980   6.235   2.814   2.731  0.7426  0.2844 -0.7404
13497TIP3   OH261981   3.771   3.392  14.301  0.3142 -0.4496 -0.2725
13497TIP3    H161982   3.867   3.393  14.304  0.2734 -1.3785  1.9515
13497TIP3    H261983   3.747   3.483  14.285  1.5750 -0.3009 -1.4022
13498TIP3   OH261984   3.469   2.047   3.951  0.2006 -0.1886 -0.3419
13498TIP3    H161985   3.547   2.004   3.917 -0.4581 -1.1354 -0.6951
13498TIP3    H261986   3.399   2.021   3.891 -0.0067  2.4284 -1.3069
13499TIP3   OH261987   3.230   4.570   0.859 -0.4223  0.2122 -0.2937
13499TIP3    H161988   3.324   4.587   0.853 -0.4447  0.9073  1.0387
13499TIP3    H261989   3.221   4.510   0.933 -0.9855 -0.2808 -0.7545
13500TIP3   OH261990   5.793   4.033  14.056  0.2506  0.1435  0.8321
13500TIP3    H161991   5.732   4.088  14.106 -0.7307  0.7855 -1.0171
13500TIP3    H261992   5.746   3.950  14.045 -0.0292  0.3984  0.0161
13501TIP3   OH261993   5.037   3.871  13.867 -0.0471  0.7657  0.3896
13501TIP3    H161994   4.962   3.864  13.809  2.1463  2.8443 -2.9061
13501TIP3    H261995   5.043   3.786  13.910 -3.2866  0.0561 -0.4696
13502TIP3   OH261996   2.516   3.742   6.395  0.0421  0.7788 -0.2935
13502TIP3    H161997   2.549   3.830   6.375 -0.0996  1.0967  0.8569
13502TIP3    H261998   2.439   3.733   6.338  0.2270  1.2765 -0.6342
13503TIP3   OH261999   6.702   0.467   2.407 -0.2591 -0.2533 -0.5995
13503TIP3    H162000   6.703   0.533   2.337 -0.1924 -1.2166 -1.5374
13503TIP3    H262001   6.761   0.399   2.374 -0.3511 -0.7842  0.3425
13504TIP3   OH262002   4.829   6.659  15.190 -0.4186 -0.2057 -0.1173
13504TIP3    H162003   4.846   6.691  15.102 -1.0124 -0.3818 -0.2976
13504TIP3    H262004   4.875   6.575  15.195  0.2104  0.1392 -0.0166
13505TIP3   OH262005   0.229   1.363   3.778 -0.2185 -0.4141  0.8013
13505TIP3    H162006   0.315   1.376   3.818 -0.0496  1.1488 -0.0097
13505TIP3    H262007   0.248   1.321   3.694 -0.0186  2.0145 -0.4096
13506TIP3   OH262008   5.429   5.445  16.220  0.3891  0.2341  0.0119
13506TIP3    H162009   5.517   5.482  16.218  0.1605  0.7394 -0.7080
13506TIP3    H262010   5.377   5.503  16.165 -0.1668 -0.6606 -0.4209
13507TIP3   OH262011   5.548   5.785  15.588  0.4288 -0.1146 -0.4929
13507TIP3    H162012   5.618   5.728  15.621  0.2012 -0.2690 -0.2751
13507TIP3    H262013   5.588   5.871  15.582  0.9452 -0.4099 -1.3812
13508TIP3   OH262014   1.112   0.006  14.903 -0.1316  0.0319 -0.4206
13508TIP3    H162015   1.059   0.064  14.848 -0.9710  0.4547  0.8256
13508TIP3    H262016   1.163   0.066  14.958 -0.2036 -0.3985  0.1118
13509TIP3   OH262017   0.501   2.967  15.071 -0.2957  0.5568 -0.2036
13509TIP3    H162018   0.463   3.000  15.152 -0.8751  0.6302 -0.5038
13509TIP3    H262019   0.435   2.907  15.036  0.1475  0.1695 -0.3873
13510TIP3   OH262020   2.207   3.006   5.817  0.6093  0.1019  0.0521
13510TIP3    H162021   2.156   2.929   5.795  0.8805 -0.1349  0.2423
13510TIP3    H262022   2.293   2.971   5.843  0.3072  0.3597  1.4792
13511TIP3   OH262023   6.662   5.804  16.469  0.2133 -0.3564  0.2319
13511TIP3    H162024   6.599   5.819  16.539 -0.1521  0.0729 -0.1904
13511TIP3    H262025   6.724   5.741  16.506 -0.6134 -0.9889  0.5505
13512TIP3   OH262026   6.180   2.900   3.599 -0.2157  0.1209  0.1523
13512TIP3    H162027   6.253   2.864   3.549  0.1483 -0.6697  1.2441
13512TIP3    H262028   6.112   2.833   3.594 -0.1603  0.0190  0.7596
13513TIP3   OH262029   6.580   5.927   6.603  0.0006 -0.4926 -0.1579
13513TIP3    H162030   6.530   5.880   6.536 -0.2741  0.1093 -0.3827
13513TIP3    H262031   6.656   5.871   6.620 -0.3563 -1.0438 -0.3722
13514TIP3   OH262032   3.825   5.524  16.977 -0.1047  0.6150  0.5354
13514TIP3    H162033   3.891   5.584  17.009 -1.5491  1.6677  1.6249
13514TIP3    H262034   3.787   5.486  17.057 -0.8649  0.0988 -0.0636
13515TIP3   OH262035   5.197   4.103   0.055  0.0342 -0.5084  0.3127
13515TIP3    H162036   5.226   4.158   0.128 -2.0140 -0.8325  1.3955
13515TIP3    H262037   5.150   4.163  -0.003  0.4623 -0.5304 -0.0655
13516TIP3   OH262038   6.189   3.845  16.848 -0.2905 -0.3779  0.4079
13516TIP3    H162039   6.113   3.793  16.822 -0.4370 -0.2088  0.4996
13516TIP3    H262040   6.195   3.833  16.942 -0.1332 -0.4854  0.3832
13517TIP3   OH262041   4.887   5.838   2.841  0.3102  0.1116 -0.1787
13517TIP3    H162042   4.933   5.912   2.881  0.1319  0.0964  0.0552
13517TIP3    H262043   4.857   5.786   2.915  1.0022 -0.5474 -0.3479
13518TIP3   OH262044   1.432   5.005  15.393 -0.5521 -0.2047  0.5565
13518TIP3    H162045   1.482   4.937  15.346  1.6936  1.1783  0.8351
13518TIP3    H262046   1.460   5.087  15.352 -0.0342  0.8756  2.9984
13519TIP3   OH262047   2.804   6.579  14.338 -0.6454 -0.6012  0.2265
13519TIP3    H162048   2.737   6.534  14.391 -0.6985  0.0576  0.7330
13519TIP3    H262049   2.754   6.633  14.276 -0.6469  1.6911  2.1265
13520TIP3   OH262050   2.367   3.968  17.134 -0.8893  0.2278 -0.0111
13520TIP3    H162051   2.343   4.022  17.059  0.7752  2.0987  0.7485
13520TIP3    H262052   2.409   4.029  17.195  0.1660 -1.7542  1.2993
13521TIP3   OH262053   0.512   4.756   3.883 -0.7267 -0.9413  0.1376
13521TIP3    H162054   0.598   4.738   3.845 -1.3485 -1.5674 -0.9969
13521TIP3    H262055   0.531   4.789   3.970  0.8002  1.3129 -0.9851
13522TIP3   OH262056   1.464   6.594  15.307 -0.3449 -0.2393 -0.6975
13522TIP3    H162057   1.426   6.512  15.341  0.5717  0.4375  2.0711
13522TIP3    H262058   1.394   6.658  15.318 -0.1744 -0.0985 -0.4379
13523TIP3   OH262059   4.930   0.263  14.838 -0.3998 -0.1678  0.2874
13523TIP3    H162060   5.003   0.267  14.775 -1.6662  0.2919 -1.1958
13523TIP3    H262061   4.899   0.173  14.832 -1.0130  0.0792 -0.3388
13524TIP3   OH262062   3.658   4.840  12.166 -0.1087 -0.3279 -0.5551
13524TIP3    H162063   3.712   4.838  12.245  1.9037  2.2358 -1.7842
13524TIP3    H262064   3.626   4.931  12.162 -0.7342 -0.6125 -2.3271
13525TIP3   OH262065   5.389   5.375  17.214  0.1236 -0.4921 -0.6613
13525TIP3    H162066   5.377   5.366  17.119  0.8269 -0.1614 -0.7862
13525TIP3    H262067   5.313   5.426  17.243  1.0684  1.3910 -1.4061
13526TIP3   OH262068   4.512   5.214   4.383 -0.5446  0.2554  0.0562
13526TIP3    H162069   4.521   5.120   4.397  0.3322 -0.2536 -3.4665
13526TIP3    H262070   4.418   5.226   4.365 -0.7145  0.1285  0.8270
13527TIP3   OH262071   1.541   3.552   5.865 -0.0090 -0.3287  0.6250
13527TIP3    H162072   1.551   3.458   5.880 -0.5259 -0.3499  0.8600
13527TIP3    H262073   1.565   3.565   5.773 -1.5092 -0.9389  0.1364
13528TIP3   OH262074   1.208   0.816  16.974  0.6158  0.2410 -0.3935
13528TIP3    H162075   1.268   0.884  16.943  1.3909 -0.7836 -1.1774
13528TIP3    H262076   1.143   0.808  16.904 -0.5593  1.4777  0.5359
13529TIP3   OH262077   4.955   6.713   5.878  0.2735  0.5992 -0.1907
13529TIP3    H162078   4.875   6.662   5.891  0.7959 -0.6157 -1.5841
13529TIP3    H262079   4.987   6.686   5.792  0.0979  3.9190 -1.3954
13530TIP3   OH262080   6.302   1.414   6.040 -0.1783  0.1955  0.1783
13530TIP3    H162081   6.346   1.350   6.096 -1.3386  0.5467  1.5373
13530TIP3    H262082   6.219   1.432   6.085 -0.0860  2.2813 -0.4302
13531TIP3   OH262083   3.580   1.436   4.043  0.4548  0.2267 -0.5791
13531TIP3    H162084   3.659   1.440   3.989  1.4472 -0.4692  0.7774
13531TIP3    H262085   3.545   1.348   4.028  2.1525 -0.9345  1.7777
13532TIP3   OH262086   0.774   2.450  16.761  0.1924 -0.2192  0.5886
13532TIP3    H162087   0.742   2.461  16.850 -1.0061  0.0331  0.1516
13532TIP3    H262088   0.777   2.355  16.748  1.8038 -0.2847  1.3784
13533TIP3   OH262089   3.925   1.828   5.984  0.6002 -0.2628 -0.2788
13533TIP3    H162090   3.939   1.735   5.970 -0.0980 -0.2565 -1.0897
13533TIP3    H262091   3.990   1.871   5.928 -0.7540 -0.2568 -1.8963
13534TIP3   OH262092   4.340   0.629   5.217  0.2424  0.4337  0.7880
13534TIP3    H162093   4.418   0.678   5.242 -1.1645  2.5564  1.1476
13534TIP3    H262094   4.275   0.652   5.284 -0.0574 -3.0571  1.7714
13535TIP3   OH262095   1.611   4.507   1.984  0.2311 -0.2775 -0.8352
13535TIP3    H162096   1.646   4.532   1.898  2.2934 -0.4604 -0.0649
13535TIP3    H262097   1.523   4.473   1.964 -0.3088  1.9985 -2.5681
13536TIP3   OH262098   2.848   2.869  17.088 -0.6206 -0.4324 -0.5096
13536TIP3    H162099   2.754   2.886  17.092 -0.9120 -2.3823  2.0031
13536TIP3    H262100   2.855   2.777  17.066  0.6640 -0.6213  0.6133
13537TIP3   OH262101   3.348   6.523   5.194  0.5545 -0.3914 -0.2927
13537TIP3    H162102   3.384   6.468   5.263  1.6365  0.6755  0.0093
13537TIP3    H262103   3.401   6.501   5.117  0.3881 -0.4411 -0.3908
13538TIP3   OH262104   2.261   1.462  17.135 -0.2079  1.0746 -0.3019
13538TIP3    H162105   2.258   1.397  17.206  0.5642  1.0943 -0.2509
13538TIP3    H262106   2.169   1.479  17.115 -0.4386 -1.1190 -1.3237
13539TIP3   OH262107   6.751   2.596  12.769 -0.3113  0.4328  0.2308
13539TIP3    H162108   6.709   2.513  12.747 -0.6578  0.2015  1.7038
13539TIP3    H262109   6.830   2.571  12.816 -0.8272  0.9532  1.3805
13540TIP3   OH262110   4.811   6.438  14.593 -0.9361  0.4728  0.2482
13540TIP3    H162111   4.831   6.387  14.672 -1.0042  0.5857  0.3388
13540TIP3    H262112   4.773   6.375  14.532 -0.0518  0.1927 -0.0249
13541TIP3   OH262113   4.963   4.548   3.131 -0.2936  0.5283  0.6120
13541TIP3    H162114   5.019   4.596   3.192 -0.5765  1.1905  0.3565
13541TIP3    H262115   4.979   4.589   3.046  0.3527 -0.6118  0.1636
13542TIP3   OH262116   4.064   5.036   0.140 -0.4404  0.5357 -0.4472
13542TIP3    H162117   4.066   5.015   0.047 -1.0301  2.1623 -0.8465
13542TIP3    H262118   3.989   4.988   0.175  1.2924 -2.1390 -0.2637
13543TIP3   OH262119   0.026   2.477   0.948 -0.4493  0.8925 -0.4497
13543TIP3    H162120   0.070   2.473   1.033 -0.7445  0.1711 -0.3298
13543TIP3    H262121  -0.006   2.567   0.942 -0.8008  0.8315  0.3864
13544TIP3   OH262122   2.394   0.611  16.353 -0.3928  0.0077  0.5315
13544TIP3    H162123   2.479   0.595  16.314 -1.4051 -0.2608 -1.6596
13544TIP3    H262124   2.410   0.677  16.421  1.5302  0.0210  0.0709
13545TIP3   OH262125   1.517   5.861  15.350  0.2122  0.0421 -0.3754
13545TIP3    H162126   1.548   5.807  15.423  0.2680  1.6571  0.8146
13545TIP3    H262127   1.431   5.825  15.329  0.8430 -1.4163 -0.5441
13546TIP3   OH262128   1.366   4.584   1.494  0.0894  0.2631  0.3218
13546TIP3    H162129   1.288   4.546   1.454  0.0390  0.3504  0.3367
13546TIP3    H262130   1.428   4.512   1.498 -0.1786  0.0592  0.8051
13547TIP3   OH262131   2.986   5.773   6.446  0.7779 -0.1709 -0.4813
13547TIP3    H162132   2.989   5.867   6.432 -1.4261 -0.1277 -0.7913
13547TIP3    H262133   2.929   5.761   6.522  0.9083 -1.2713 -0.5380
13548TIP3   OH262134   0.049   2.180  15.149 -0.1135 -0.6220  0.3788
13548TIP3    H162135  -0.007   2.155  15.075  1.5134  0.1566 -1.1664
13548TIP3    H262136   0.133   2.203  15.108  0.3607  1.2711  2.3280
13549TIP3   OH262137   1.748   0.925  11.161  0.6226  0.3710 -0.0124
13549TIP3    H162138   1.684   0.995  11.168 -0.5611 -0.6834 -0.1189
13549TIP3    H262139   1.706   0.859  11.106  0.8744 -1.3085  1.7411
13550TIP3   OH262140   3.560   4.199   5.050  0.4144  0.1427 -0.1344
13550TIP3    H162141   3.533   4.260   5.119 -0.2762  0.9493 -1.1162
13550TIP3    H262142   3.570   4.253   4.972 -0.2383 -1.0049 -1.0230
13551TIP3   OH262143   0.811   3.693  13.195  0.5091  0.6587  0.1946
13551TIP3    H162144   0.856   3.609  13.188  0.3068  0.7791 -3.2020
13551TIP3    H262145   0.760   3.686  13.276  2.9150 -1.2457  1.6492
13552TIP3   OH262146   2.049   1.388   5.045  0.0209  0.4719  0.3319
13552TIP3    H162147   2.113   1.452   5.014 -1.0220  0.7794 -1.2461
13552TIP3    H262148   1.972   1.440   5.067 -0.4364 -0.1238  0.1355
13553TIP3   OH262149   5.952   0.311   3.843  0.1617 -0.4856  0.3217
13553TIP3    H162150   6.040   0.347   3.854 -1.3016  2.6626  2.3236
13553TIP3    H262151   5.950   0.235   3.902  1.5026 -0.5754  0.2685
13554TIP3   OH262152   0.929   4.765   5.579  0.0615 -0.3046 -0.4819
13554TIP3    H162153   0.872   4.804   5.513  0.9929 -2.4509 -2.6486
13554TIP3    H262154   1.009   4.819   5.577 -1.0396  1.4675  1.1199
13555TIP3   OH262155   0.404   0.740   2.172 -0.5113  0.6847  0.2708
13555TIP3    H162156   0.320   0.696   2.162 -0.7957  1.2132  0.3331
13555TIP3    H262157   0.468   0.677   2.139 -0.7927 -0.2857  1.5301
13556TIP3   OH262158   5.831   0.745  15.555  0.3881 -0.2889 -0.2409
13556TIP3    H162159   5.882   0.825  15.540  2.0443 -0.5674  3.3914
13556TIP3    H262160   5.740   0.774  15.553  0.6101  0.4941 -5.3357
13557TIP3   OH262161   0.054   2.491   6.264 -0.0452  0.2797 -0.6262
13557TIP3    H162162   0.031   2.568   6.316 -0.1397  0.0945 -0.3925
13557TIP3    H262163   0.149   2.497   6.252  0.2434 -0.5993  1.0578
13558TIP3   OH262164   1.729   2.608   5.328 -0.0984 -0.3263 -0.1070
13558TIP3    H162165   1.776   2.534   5.367 -0.1522  0.3098  1.1837
13558TIP3    H262166   1.698   2.659   5.402  0.0039  1.0495 -0.9807
13559TIP3   OH262167   1.682   0.636   4.280 -0.2615  0.2128  0.1553
13559TIP3    H162168   1.708   0.608   4.193  0.1896 -0.2795  0.4475
13559TIP3    H262169   1.664   0.555   4.328 -2.6304  0.5467 -0.1185
13560TIP3   OH262170   4.625   3.762   0.446  0.2559 -0.4695 -0.3512
13560TIP3    H162171   4.713   3.798   0.430  0.3884 -0.4549  0.3687
13560TIP3    H262172   4.641   3.685   0.500 -0.1548 -0.6201 -0.4495
13561TIP3   OH262173   1.210   3.378   2.407  0.0871  0.3687 -0.2051
13561TIP3    H162174   1.292   3.422   2.386  0.5254  0.1942  1.0681
13561TIP3    H262175   1.198   3.393   2.501  0.7142 -2.9668  0.4803
13562TIP3   OH262176   3.832   4.529  15.133 -0.0659 -0.7170 -0.8008
13562TIP3    H162177   3.838   4.484  15.049  0.4189 -0.3808 -0.9458
13562TIP3    H262178   3.782   4.609  15.115  0.9444 -0.1228 -0.9871
13563TIP3   OH262179   4.397   4.451   2.705  0.0827  0.2768 -0.0780
13563TIP3    H162180   4.442   4.388   2.760 -0.8309  0.2985  0.7005
13563TIP3    H262181   4.350   4.508   2.766 -0.8810  0.3436 -0.8597
13564TIP3   OH262182   3.708   3.133  14.405  0.8416  0.3050 -0.4073
13564TIP3    H162183   3.714   3.223  14.371 -0.2509  0.8511  0.8072
13564TIP3    H262184   3.669   3.083  14.333  0.8316  0.9434 -0.8492
13565TIP3   OH262185   3.104   6.577  12.965  0.3693 -0.0382  0.3257
13565TIP3    H162186   3.134   6.563  12.875  1.9102 -0.2977  0.8758
13565TIP3    H262187   3.037   6.509  12.979 -1.3397  1.2673 -1.2817
13566TIP3   OH262188   1.199   5.553   3.888  0.1285  0.0759  0.0562
13566TIP3    H162189   1.265   5.617   3.860  0.5028 -1.0090 -1.6337
13566TIP3    H262190   1.209   5.480   3.827 -1.5565 -0.7991  0.7844
13567TIP3   OH262191   0.417   1.809  10.542  0.7305  0.3616 -0.1069
13567TIP3    H162192   0.390   1.901  10.549  1.7821  0.7385 -0.9112
13567TIP3    H262193   0.508   1.813  10.514  0.7856 -0.9332 -0.1222
13568TIP3   OH262194   3.021   3.037  11.952 -0.3988  0.0369  0.1495
13568TIP3    H162195   2.963   2.999  12.019  0.4445  1.2259  1.5773
13568TIP3    H262196   3.103   3.054  11.999  0.2982  0.6334 -1.2714
13569TIP3   OH262197   6.083   3.006   5.176  0.0734  0.6554 -0.3174
13569TIP3    H162198   6.094   3.095   5.141 -1.7551  1.6279  1.4694
13569TIP3    H262199   6.014   2.968   5.123  0.8789  0.2768 -1.1048
13570TIP3   OH262200   0.599   5.282   1.371 -0.2147  0.1802 -0.4066
13570TIP3    H162201   0.599   5.357   1.430  1.9497 -1.6412  2.0317
13570TIP3    H262202   0.519   5.234   1.394  1.7487 -1.7396  2.8044
13571TIP3   OH262203   6.109   4.295  16.648  0.0393 -0.5576 -0.5420
13571TIP3    H162204   6.158   4.365  16.690 -0.2717 -1.6433  1.6893
13571TIP3    H262205   6.055   4.340  16.582 -0.6045  1.3937  1.2551
13572TIP3   OH262206   2.143   6.793  17.086 -0.1672  0.0753 -0.2771
13572TIP3    H162207   2.089   6.719  17.114 -0.4638  0.8671  1.3261
13572TIP3    H262208   2.090   6.870  17.106  0.2807  0.7458 -1.6062
13573TIP3   OH262209   0.495   4.259  13.892  0.1114  0.2897 -0.2113
13573TIP3    H162210   0.527   4.331  13.946 -1.4192  1.1346 -0.4086
13573TIP3    H262211   0.458   4.197  13.954  0.1086  0.3565 -0.1478
13574TIP3   OH262212   0.679   1.688   2.578 -0.2493 -0.3720 -0.1537
13574TIP3    H162213   0.715   1.775   2.592  1.8992 -1.0543 -1.2762
13574TIP3    H262214   0.658   1.687   2.484 -2.4190 -0.3059  0.2911
13575TIP3   OH262215   4.266   0.296   0.986 -0.1128 -0.0034 -0.2782
13575TIP3    H162216   4.325   0.236   1.031  1.1641  1.7213  0.4096
13575TIP3    H262217   4.321   0.371   0.964 -2.2331  2.0397  1.1429
13576TIP3   OH262218   2.846   4.297  14.972  0.4567 -0.4492 -0.2919
13576TIP3    H162219   2.798   4.227  15.017  1.2032 -1.7283 -1.4651
13576TIP3    H262220   2.785   4.329  14.905  0.2009 -0.1251  0.0939
13577TIP3   OH262221   6.659   6.141  10.676  0.3660  0.1951  0.7603
13577TIP3    H162222   6.664   6.237  10.680  0.4751  0.2455 -0.5152
13577TIP3    H262223   6.744   6.114  10.641  1.1349 -0.5128  3.0505
13578TIP3   OH262224   6.618   2.815   1.155 -0.3519  0.0940 -0.0698
13578TIP3    H162225   6.653   2.843   1.240  0.4083 -0.4622 -0.1968
13578TIP3    H262226   6.694   2.809   1.098 -1.0798  2.2068 -1.3044
13579TIP3   OH262227   2.725   1.734   1.195  0.0695  0.0273 -0.8881
13579TIP3    H162228   2.721   1.782   1.278  2.1798  0.0146 -0.7469
13579TIP3    H262229   2.662   1.662   1.206  0.5613 -0.1576  0.8283
13580TIP3   OH262230   1.550   5.879  14.664 -0.3835 -0.6097  0.1094
13580TIP3    H162231   1.472   5.877  14.720 -0.2870 -0.6550  0.2443
13580TIP3    H262232   1.623   5.860  14.724 -0.1466  0.5503  0.1894
13581TIP3   OH262233   6.005   3.509  13.347  0.1395 -0.1528 -0.3616
13581TIP3    H162234   6.064   3.525  13.273  1.1636 -0.9705  0.2736
13581TIP3    H262235   5.918   3.516  13.309  0.6412  0.3683 -1.4547
13582TIP3   OH262236   5.929   4.067   4.329  0.5487 -0.5595  0.3137
13582TIP3    H162237   5.989   4.108   4.392  0.6129 -0.1651 -0.0020
13582TIP3    H262238   5.842   4.078   4.368  0.4129  1.1083 -0.4079
13583TIP3   OH262239   2.729   6.574  16.153 -0.0804  0.6852  0.2923
13583TIP3    H162240   2.639   6.541  16.157 -0.4817  1.6689 -0.4739
13583TIP3    H262241   2.777   6.505  16.106 -1.0797  1.5091 -1.9791
13584TIP3   OH262242   4.733   2.825  10.891 -0.5456  0.1228  0.2245
13584TIP3    H162243   4.753   2.732  10.879  2.5093  0.8318 -0.6888
13584TIP3    H262244   4.781   2.850  10.970 -0.4390  1.1804 -0.1705
13585TIP3   OH262245   0.730   0.257  11.097  0.4431 -0.0380 -0.2284
13585TIP3    H162246   0.678   0.333  11.071  1.1215  0.8041  0.8033
13585TIP3    H262247   0.806   0.258  11.038  0.4140  0.0407 -0.2636
13586TIP3   OH262248   4.432   3.171   3.025  0.7798  0.4585  0.0319
13586TIP3    H162249   4.497   3.235   2.996  0.9340  0.5529  0.5791
13586TIP3    H262250   4.450   3.159   3.119 -0.5898  1.2021  0.4058
13587TIP3   OH262251   2.959   0.752  12.198 -0.3131  0.5408  0.3166
13587TIP3    H162252   3.000   0.839  12.202  0.7741 -0.0097  1.3048
13587TIP3    H262253   2.930   0.735  12.287  0.7882 -0.7175  0.4538
13588TIP3   OH262254   5.232   6.357   5.654  0.5259  0.2284 -0.2036
13588TIP3    H162255   5.284   6.389   5.729 -1.8648  1.3139  1.0597
13588TIP3    H262256   5.275   6.394   5.577  1.4295  1.3935  0.8447
13589TIP3   OH262257   4.686   6.540  13.460  0.3477 -0.1621 -0.5983
13589TIP3    H162258   4.765   6.514  13.507  1.1698  2.3053 -0.5465
13589TIP3    H262259   4.669   6.630  13.489 -2.3630 -0.5698 -0.7636
13590TIP3   OH262260   6.785   3.642   2.214 -0.1573  0.4051  0.8003
13590TIP3    H162261   6.841   3.720   2.210  0.5713 -0.1269  0.3860
13590TIP3    H262262   6.779   3.612   2.123  0.7067 -0.8057  1.1289
13591TIP3   OH262263   2.458   5.695  11.064  0.0401 -0.4396  0.4913
13591TIP3    H162264   2.484   5.709  11.155  0.7250  0.0604  0.2225
13591TIP3    H262265   2.481   5.776  11.019  0.9675 -1.1714 -0.3997
13592TIP3   OH262266   1.469   2.397   2.381 -0.5359  0.2906  0.1578
13592TIP3    H162267   1.482   2.356   2.295  2.1947  1.1425  0.1160
13592TIP3    H262268   1.511   2.337   2.443  0.6735  1.4222  0.4574
13593TIP3   OH262269   3.400   1.777  11.911  0.4642  0.1294  0.0471
13593TIP3    H162270   3.323   1.800  11.859 -0.3736  0.5659  1.4644
13593TIP3    H262271   3.462   1.741  11.847 -1.2834 -1.1672 -0.9480
13594TIP3   OH262272   2.773   1.292   5.944  0.2173 -0.0718 -0.9009
13594TIP3    H162273   2.709   1.281   5.874  0.1191 -0.7771 -0.6998
13594TIP3    H262274   2.806   1.204   5.960  0.0140  0.0377  0.1512
13595TIP3   OH262275   1.373   0.395   0.877 -0.3680  0.5249 -0.1946
13595TIP3    H162276   1.412   0.457   0.815 -0.7747  1.3102  0.3300
13595TIP3    H262277   1.384   0.437   0.962  1.4423 -1.1581  0.4593
13596TIP3   OH262278   0.734   4.233   4.771 -0.1118 -0.2610  0.3905
13596TIP3    H162279   0.682   4.309   4.797  0.1052 -0.5287  1.6481
13596TIP3    H262280   0.672   4.160   4.776  0.3213 -0.5469  1.6755
13597TIP3   OH262281   2.391   2.765  13.079  0.5094  0.0106  0.3748
13597TIP3    H162282   2.321   2.764  13.014 -1.2343 -1.5525  2.1993
13597TIP3    H262283   2.437   2.681  13.066  0.1760 -0.2903  1.1422
13598TIP3   OH262284   5.321   5.812  15.971 -0.8101  0.0886  0.5328
13598TIP3    H162285   5.389   5.874  15.999  0.9541 -1.9091  0.8592
13598TIP3    H262286   5.262   5.806  16.046 -1.1718  1.5793  0.3848
13599TIP3   OH262287   2.263   6.664   2.807 -0.0534 -0.6098  0.3640
13599TIP3    H162288   2.193   6.730   2.811  1.4534  0.9863  0.8883
13599TIP3    H262289   2.329   6.703   2.751  0.5646 -1.9839  0.1288
13600TIP3   OH262290   4.845   2.980  10.434  0.1785 -1.0900  0.6511
13600TIP3    H162291   4.853   3.006  10.526  0.4710  1.0120  0.0564
13600TIP3    H262292   4.762   2.932  10.430  0.2044 -1.2767  2.0223
13601TIP3   OH262293   3.018   5.029  11.406 -0.1449  0.0461 -0.5441
13601TIP3    H162294   2.994   4.939  11.387 -2.3737  0.5457 -0.2641
13601TIP3    H262295   3.110   5.036  11.380  0.3320 -2.5410  0.3452
13602TIP3   OH262296   3.124   0.329  15.160 -0.2360 -0.2706  0.2840
13602TIP3    H162297   3.061   0.340  15.089 -0.9069  1.3855  1.1084
13602TIP3    H262298   3.074   0.288  15.230  0.1455 -0.8678  0.2172
13603TIP3   OH262299   6.236   4.485   5.984 -0.4336 -0.3473  0.3054
13603TIP3    H162300   6.217   4.413   6.044 -3.1871 -0.1954 -0.3406
13603TIP3    H262301   6.248   4.442   5.899  1.5147 -0.3585  0.5494
13604TIP3   OH262302   5.560   3.965   2.032 -0.3476 -0.3845  0.2175
13604TIP3    H162303   5.503   3.971   2.109  0.3871  1.3774  0.6614
13604TIP3    H262304   5.623   4.036   2.044  0.0538 -0.3785 -1.8071
13605TIP3   OH262305   3.770   1.337   0.954 -0.2373 -0.8940 -0.2578
13605TIP3    H162306   3.764   1.243   0.968 -0.7866 -0.6880  0.9161
13605TIP3    H262307   3.700   1.357   0.892  0.1642 -1.3228 -0.8514
13606TIP3   OH262308   4.546   1.781   5.563 -0.1813 -0.0284  0.4561
13606TIP3    H162309   4.534   1.760   5.656 -1.4480  1.1833  0.5984
13606TIP3    H262310   4.528   1.699   5.517 -1.0785 -0.2546  1.1957
13607TIP3   OH262311   6.489   4.436  14.238  0.5034 -0.5986 -0.3608
13607TIP3    H162312   6.483   4.490  14.159  0.0577  1.6350  1.1714
13607TIP3    H262313   6.562   4.377  14.221 -0.1591 -0.7629 -2.8140
13608TIP3   OH262314   2.025   5.888   0.010 -0.1979  0.2094 -0.1581
13608TIP3    H162315   2.016   5.975   0.050 -0.7650 -0.0628  0.3077
13608TIP3    H262316   2.019   5.827   0.084  2.6988 -0.1250 -0.1474
13609TIP3   OH262317   0.710   1.770  11.397 -0.0790  0.8225 -0.2455
13609TIP3    H162318   0.752   1.789  11.313  0.7687 -0.2888 -0.0950
13609TIP3    H262319   0.653   1.695  11.379  1.4509 -0.5794  0.5275
13610TIP3   OH262320   2.320   2.841   1.509 -1.0003 -0.3269  0.1786
13610TIP3    H162321   2.416   2.837   1.507 -0.8674  1.6890  1.2793
13610TIP3    H262322   2.294   2.758   1.549  0.2605 -0.9407 -0.2176
13611TIP3   OH262323   2.228   5.370  14.081  0.6583  0.0429 -0.2645
13611TIP3    H162324   2.287   5.343  14.152  0.5863  0.4782 -0.0388
13611TIP3    H262325   2.242   5.304  14.013 -0.5585 -1.3684  0.8297
13612TIP3   OH262326   6.392   0.060   2.777 -0.0617 -0.1711 -0.2678
13612TIP3    H162327   6.454   0.058   2.704 -0.2837  0.6790 -0.4803
13612TIP3    H262328   6.347   0.144   2.768 -0.7610 -0.4825  0.2868
13613TIP3   OH262329   3.756   1.587  17.056 -0.7313 -0.1967  0.1591
13613TIP3    H162330   3.686   1.625  17.002 -0.2781 -0.6424 -0.7530
13613TIP3    H262331   3.724   1.499  17.077 -0.1103 -0.6744 -0.8921
13614TIP3   OH262332   3.083   5.676  16.347  0.2123  0.4942 -0.0565
13614TIP3    H162333   3.110   5.612  16.281 -0.3870 -0.7082  0.8482
13614TIP3    H262334   3.057   5.754  16.297 -1.4453 -0.8407 -1.3102
13615TIP3   OH262335   0.369   6.695   4.997 -0.6485 -0.3852  0.3676
13615TIP3    H162336   0.371   6.601   4.979  3.7669 -0.4295  0.4978
13615TIP3    H262337   0.351   6.735   4.912 -1.0881 -1.2767  0.0301
13616TIP3   OH262338   6.349   4.792  13.661 -0.6816 -0.0440  0.0141
13616TIP3    H162339   6.359   4.798  13.566 -1.3576 -0.0201 -0.0553
13616TIP3    H262340   6.312   4.706  13.676 -0.0012 -0.2871  0.3045
13617TIP3   OH262341   3.675   2.634  10.830  0.5027 -0.4192  0.2585
13617TIP3    H162342   3.647   2.705  10.772 -0.9352 -1.3360 -0.1876
13617TIP3    H262343   3.717   2.570  10.772 -2.5963 -2.2068 -0.1093
13618TIP3   OH262344   4.042   3.977  11.500  0.6738 -0.1475  0.0856
13618TIP3    H162345   4.074   3.917  11.432 -0.0165 -0.9827  0.4922
13618TIP3    H262346   4.103   3.965  11.572  0.0890 -0.9461  0.4573
13619TIP3   OH262347   2.266   5.324   2.618  0.4441 -0.3451 -0.4992
13619TIP3    H162348   2.230   5.303   2.532 -0.6648  0.0327 -0.1320
13619TIP3    H262349   2.190   5.332   2.675  1.1059  0.5670  0.2686
13620TIP3   OH262350   6.177   2.242  14.783  0.4009 -0.3788  0.1198
13620TIP3    H162351   6.171   2.298  14.705 -0.1110  0.8404  1.0320
13620TIP3    H262352   6.133   2.291  14.852  2.8404 -0.4278  1.7759
13621TIP3   OH262353   6.272   1.175  12.551  0.2171 -0.2123 -0.1313
13621TIP3    H162354   6.201   1.233  12.524 -1.2951 -1.4058  1.0957
13621TIP3    H262355   6.256   1.160  12.645  0.7859 -2.2554 -0.3242
13622TIP3   OH262356   2.129   3.174  14.805 -0.1001 -0.2695 -0.0273
13622TIP3    H162357   2.046   3.160  14.761 -0.2040 -1.7793  0.6042
13622TIP3    H262358   2.144   3.094  14.855  1.6873  0.0103 -0.0592
13623TIP3   OH262359   2.744   6.270   2.860  0.3999 -0.3434  0.0429
13623TIP3    H162360   2.840   6.273   2.857  0.3411  1.5441 -0.6446
13623TIP3    H262361   2.717   6.308   2.776 -0.9621 -0.7879  0.2692
13624TIP3   OH262362   6.246   3.345   3.830 -0.0363  0.0040 -0.2903
13624TIP3    H162363   6.339   3.350   3.811  0.1417 -0.6381  0.4034
13624TIP3    H262364   6.224   3.252   3.821 -0.2955 -0.0721  0.9418
13625TIP3   OH262365   3.621   3.105  13.450 -0.1827 -0.0190  0.2463
13625TIP3    H162366   3.716   3.094  13.448 -0.1830  0.0820 -2.5552
13625TIP3    H262367   3.605   3.188  13.405 -1.6563 -0.6152 -0.3626
13626TIP3   OH262368   6.758   6.235   2.060  0.7334 -0.0287  0.1028
13626TIP3    H162369   6.743   6.244   1.965 -0.3549 -0.1016  0.2535
13626TIP3    H262370   6.688   6.176   2.089  0.6429  0.5451  1.0583
13627TIP3   OH262371   5.720   4.781  14.697  0.7790 -0.2738  0.2303
13627TIP3    H162372   5.788   4.848  14.709  1.3940 -0.5739 -1.4011
13627TIP3    H262373   5.756   4.702  14.738  0.8571 -0.0933  0.5113
13628TIP3   OH262374   1.617   2.966   2.881  0.6698 -0.1430 -0.3356
13628TIP3    H162375   1.598   3.001   2.968 -1.1643 -1.1455 -0.3166
13628TIP3    H262376   1.533   2.969   2.835  1.1024 -1.8516 -1.2688
13629TIP3   OH262377   4.683   3.480  17.290 -0.3712  0.0831 -0.3006
13629TIP3    H162378   4.638   3.560  17.317  0.7789  1.1833 -1.5514
13629TIP3    H262379   4.776   3.496  17.309  0.1245 -0.1724 -2.3170
13630TIP3   OH262380   0.724   6.567   4.722 -0.0930 -0.1118 -0.4251
13630TIP3    H162381   0.660   6.499   4.744  0.5235 -0.9733 -1.2407
13630TIP3    H262382   0.732   6.618   4.802 -0.6596 -0.9313  0.1728
13631TIP3   OH262383   5.996   3.521   2.271  0.3074 -0.2924 -0.6154
13631TIP3    H162384   6.078   3.528   2.319  0.3766 -0.4490 -0.7112
13631TIP3    H262385   5.933   3.572   2.323  0.2979 -0.7457 -0.1804
13632TIP3   OH262386   2.464   4.988   4.310 -0.5197  0.3812 -0.2348
13632TIP3    H162387   2.432   4.899   4.323  1.3186 -0.3434 -0.5110
13632TIP3    H262388   2.493   5.016   4.397 -0.6603  0.5219 -0.2344
13633TIP3   OH262389   3.756   0.317   4.430  0.3304 -0.1060 -0.2620
13633TIP3    H162390   3.755   0.413   4.432 -3.6306 -0.1104  1.1617
13633TIP3    H262391   3.706   0.294   4.352 -2.6396 -0.9972  1.8547
13634TIP3   OH262392   4.621   5.890  12.163  0.1408  0.2007  0.1583
13634TIP3    H162393   4.601   5.974  12.123 -0.7652 -0.8153 -1.5710
13634TIP3    H262394   4.537   5.846  12.171  0.7188 -0.9310  0.1561
13635TIP3   OH262395   0.931   6.071  14.550  0.0908 -0.7462  0.3903
13635TIP3    H162396   0.882   6.153  14.546  2.1366  0.4615 -0.5617
13635TIP3    H262397   0.900   6.029  14.630 -1.4766  0.6301  0.5383
13636TIP3   OH262398   4.386   5.865   1.371  0.0509  0.2949  0.3532
13636TIP3    H162399   4.478   5.841   1.385 -0.3705 -1.8894 -0.5174
13636TIP3    H262400   4.362   5.913   1.450  0.4181 -3.7559  3.0473
13637TIP3   OH262401   5.387   1.273   2.913  0.1737 -0.4434  0.2684
13637TIP3    H162402   5.314   1.211   2.911  0.2546 -0.5484  0.5192
13637TIP3    H262403   5.351   1.353   2.873 -0.4486 -0.1162  1.4367
13638TIP3   OH262404   5.553   1.602  11.657 -0.3639  0.1476 -0.0289
13638TIP3    H162405   5.615   1.532  11.673  1.4634  1.8932  0.7691
13638TIP3    H262406   5.559   1.619  11.563 -1.0993 -0.9829 -0.2940
13639TIP3   OH262407   3.054   5.054   2.751  0.9570 -0.0043  0.3800
13639TIP3    H162408   3.147   5.073   2.740  0.7528  0.3137 -0.9104
13639TIP3    H262409   3.015   5.076   2.666 -0.3638  0.3134  1.0545
13640TIP3   OH262410   0.369   1.666  16.373 -0.5520  0.4363  0.0440
13640TIP3    H162411   0.382   1.755  16.407 -0.6580  1.0984 -1.5970
13640TIP3    H262412   0.437   1.655  16.307 -1.1212 -0.3671 -0.4191
13641TIP3   OH262413   2.325   4.103  13.817  0.4494 -0.0549 -0.3550
13641TIP3    H162414   2.290   4.014  13.806 -0.7314  0.3167  0.3491
13641TIP3    H262415   2.356   4.104  13.908 -0.5738  0.6042 -0.0058
13642TIP3   OH262416   5.199   2.573  12.323 -0.4883  0.2726  0.6342
13642TIP3    H162417   5.188   2.600  12.414  0.4929  0.3492  0.7457
13642TIP3    H262418   5.292   2.591  12.305 -0.7826  0.6243 -0.5000
13643TIP3   OH262419   0.678   4.381   4.043 -0.4115 -0.4939  0.0103
13643TIP3    H162420   0.618   4.383   3.968  0.3018  1.2172 -0.5413
13643TIP3    H262421   0.649   4.306   4.095 -1.2815 -1.3602 -1.6802
13644TIP3   OH262422   0.094   1.997  11.940  0.8635  0.1691 -0.6383
13644TIP3    H162423   0.032   1.929  11.913  2.2988 -0.8945 -1.3398
13644TIP3    H262424   0.158   2.000  11.869  2.2360  0.4296  0.5958
13645TIP3   OH262425   5.804   6.327  12.445 -0.0079  0.0823  0.1075
13645TIP3    H162426   5.773   6.381  12.518  1.1410  0.4049  0.3699
13645TIP3    H262427   5.769   6.240  12.463 -1.8746  0.7270 -0.3208
13646TIP3   OH262428   2.889   4.559   6.625  0.1982  0.7047 -0.1562
13646TIP3    H162429   2.800   4.593   6.623 -0.9644 -2.2919 -2.5495
13646TIP3    H262430   2.904   4.537   6.717 -1.6445  0.9499  0.2233
13647TIP3   OH262431   3.183   2.117  10.974 -0.1974 -0.0548  0.0955
13647TIP3    H162432   3.151   2.136  11.062  1.0873 -0.0157  0.5593
13647TIP3    H262433   3.144   2.032  10.952  0.3550 -0.5893  1.1444
13648TIP3   OH262434   4.915   3.677  11.102  0.1540 -0.2740  0.3360
13648TIP3    H162435   4.989   3.662  11.043  0.6381  0.8762  0.6414
13648TIP3    H262436   4.838   3.654  11.051  0.6102  0.1353 -0.5405
13649TIP3   OH262437   2.911   5.243  12.754  0.2643  0.3581  0.1790
13649TIP3    H162438   2.950   5.327  12.781  0.7820 -0.4450  2.0483
13649TIP3    H262439   2.904   5.193  12.836 -2.6343 -0.3717 -0.4571
13650TIP3   OH262440   3.696   2.194   4.992 -0.1534  0.2466  0.1044
13650TIP3    H162441   3.627   2.167   4.931  0.4487 -0.8699 -0.0956
13650TIP3    H262442   3.660   2.175   5.079 -0.9333  1.6549  0.1033
13651TIP3   OH262443   6.627   1.811   3.809 -0.8181 -0.3429 -0.2633
13651TIP3    H162444   6.691   1.756   3.764 -1.7865 -0.4869 -1.4839
13651TIP3    H262445   6.546   1.761   3.805 -0.9182 -0.3531  1.6567
13652TIP3   OH262446   1.704   5.593  14.526  0.1960 -0.2884 -0.0158
13652TIP3    H162447   1.791   5.586  14.486 -0.3214 -0.8930 -1.0760
13652TIP3    H262448   1.719   5.578  14.619  1.0813 -1.5790 -0.3415
13653TIP3   OH262449   0.170   6.764  17.097 -0.1635 -0.0929  0.1853
13653TIP3    H162450   0.130   6.707  17.163 -0.9813  0.2210 -0.0423
13653TIP3    H262451   0.153   6.853  17.128 -0.8916  0.0611 -0.6470
13654TIP3   OH262452   3.383   2.129   2.214 -0.1370  0.2981  0.4315
13654TIP3    H162453   3.294   2.096   2.230 -0.7649  2.5342  1.8673
13654TIP3    H262454   3.440   2.053   2.227 -1.8325 -1.1598 -0.4685
13655TIP3   OH262455   4.235   4.306  16.288  0.2292  0.2208 -0.2191
13655TIP3    H162456   4.164   4.244  16.274 -0.2146  0.4851  0.8312
13655TIP3    H262457   4.253   4.342  16.201  0.7940 -1.6813 -0.9076
13656TIP3   OH262458   2.717   6.372   5.405 -0.5158 -0.0305  0.2842
13656TIP3    H162459   2.784   6.416   5.456 -0.7201 -0.0220  0.5453
13656TIP3    H262460   2.639   6.426   5.415 -1.3479 -1.5658  2.3491
13657TIP3   OH262461   1.903   6.371  16.707 -0.1773 -0.2100 -0.0549
13657TIP3    H162462   1.820   6.417  16.723 -0.6364 -1.8234  2.4651
13657TIP3    H262463   1.969   6.440  16.713 -1.3025  1.0821 -2.0174
13658TIP3   OH262464   6.685   3.373  16.498  0.1768  0.1952 -0.2848
13658TIP3    H162465   6.645   3.289  16.476  2.1943 -0.6205 -0.9727
13658TIP3    H262466   6.664   3.386  16.591 -3.5371  0.8967 -1.1463
13659TIP3   OH262467   2.106   0.994  14.479  0.5896  0.1855  0.1019
13659TIP3    H162468   2.179   1.039  14.437 -0.1053 -0.1493 -1.5233
13659TIP3    H262469   2.138   0.905  14.494  0.8590  0.3203  0.3198
13660TIP3   OH262470   5.525   5.614  13.334  0.0377 -0.8008 -0.1852
13660TIP3    H162471   5.562   5.700  13.317 -0.5185 -0.8013 -1.4665
13660TIP3    H262472   5.469   5.626  13.410  1.4963 -0.4746  0.8612
13661TIP3   OH262473   1.457   6.452  15.795 -0.4965  0.4614  0.3004
13661TIP3    H162474   1.501   6.378  15.752 -0.0394  0.2682  1.0972
13661TIP3    H262475   1.523   6.521  15.798 -0.4672  0.4071  0.8738
13662TIP3   OH262476   6.138   5.989   0.247  0.4383 -0.3785 -0.1177
13662TIP3    H162477   6.224   5.948   0.257  0.8153  1.1078  3.3283
13662TIP3    H262478   6.157   6.080   0.225 -0.1985  0.3284  2.1657
13663TIP3   OH262479   3.393   1.987  11.503 -0.2682 -0.2129 -0.1332
13663TIP3    H162480   3.394   2.060  11.565  0.3630 -1.6612  1.5732
13663TIP3    H262481   3.462   2.008  11.440  0.7982  0.0123  1.1059
13664TIP3   OH262482   1.591   0.681   5.411 -0.0333  0.2703  0.3782
13664TIP3    H162483   1.571   0.631   5.333 -3.2701  1.9006  0.0759
13664TIP3    H262484   1.648   0.752   5.381 -0.2895  0.1968 -0.2753
13665TIP3   OH262485   2.448   2.204  17.256  0.3850 -0.0071 -0.0889
13665TIP3    H162486   2.384   2.162  17.314  1.0028  0.0492  0.6440
13665TIP3    H262487   2.522   2.143  17.254  0.2615 -0.1296 -1.0332
13666TIP3   OH262488   5.456   1.444   2.624  0.4156 -0.3187  0.2089
13666TIP3    H162489   5.429   1.360   2.588  0.5010 -0.6870  1.0094
13666TIP3    H262490   5.382   1.472   2.678  0.5397 -0.0479  0.2431
13667TIP3   OH262491   3.527   6.638   3.240 -0.5230  0.2828 -0.4432
13667TIP3    H162492   3.518   6.728   3.272  0.6062  0.0374  0.6260
13667TIP3    H262493   3.508   6.584   3.317 -0.8702 -0.3883 -0.9972
13668TIP3   OH262494   1.308   4.369  11.359  0.2129  0.4035  0.1279
13668TIP3    H162495   1.293   4.278  11.382  1.3258 -0.4987 -2.5515
13668TIP3    H262496   1.223   4.402  11.331  0.0818 -0.2053 -0.1865
13669TIP3   OH262497   3.596   5.194  11.442 -0.3197  0.3307  0.2375
13669TIP3    H162498   3.644   5.276  11.450  0.2900 -0.2090  2.3177
13669TIP3    H262499   3.505   5.217  11.461 -0.1703  0.5375  0.6967
13670TIP3   OH262500   1.331   0.569  16.959  0.8068 -0.3322 -0.5638
13670TIP3    H162501   1.306   0.548  16.870  1.3574  0.1174 -0.8242
13670TIP3    H262502   1.296   0.658  16.973  0.9740 -0.2863 -0.4348
13671TIP3   OH262503   0.540   2.617  13.483  0.4641 -0.1276  0.1756
13671TIP3    H162504   0.576   2.636  13.569  0.0919  1.1543  0.0531
13671TIP3    H262505   0.501   2.530  13.492 -0.4869  0.4265  1.5889
13672TIP3   OH262506   4.164   1.827   5.082  0.1611 -0.1997  0.2463
13672TIP3    H162507   4.093   1.769   5.057 -1.6001  0.6759  2.9970
13672TIP3    H262508   4.148   1.907   5.032 -0.3710 -0.2608  0.3167
13673TIP3   OH262509   2.488   2.099  16.615  0.4764 -0.0274  0.4678
13673TIP3    H162510   2.408   2.143  16.583  0.5902 -0.2866 -0.1893
13673TIP3    H262511   2.543   2.171  16.647 -0.4337  0.0592  1.8590
13674TIP3   OH262512   4.662   1.979  10.764  0.1860  0.4498  0.0097
13674TIP3    H162513   4.694   1.891  10.742 -0.1844 -0.1354  1.7443
13674TIP3    H262514   4.741   2.032  10.772  0.4637  0.0569 -0.0974
13675TIP3   OH262515   6.319   4.201  13.769  0.1992 -0.3457 -0.1220
13675TIP3    H162516   6.391   4.153  13.811  1.9048  2.1085 -0.1426
13675TIP3    H262517   6.282   4.253  13.840 -1.3131 -1.2551 -0.2193
13676TIP3   OH262518   5.460   0.788  10.739 -0.5685  0.5936  0.2689
13676TIP3    H162519   5.473   0.855  10.806  0.6047 -0.9103  1.6042
13676TIP3    H262520   5.518   0.813  10.667 -0.9744  1.5971  0.2835
13677TIP3   OH262521   2.954   0.197  16.946 -0.0267 -0.4015 -0.2263
13677TIP3    H162522   2.964   0.160  16.858 -3.7792  0.5190 -1.1101
13677TIP3    H262523   3.020   0.151  16.998  1.9068 -1.3634 -3.3599
13678TIP3   OH262524   2.959   1.911   4.740  0.6186 -0.6509 -0.4726
13678TIP3    H162525   3.022   1.840   4.727  1.4565  0.2938 -1.7441
13678TIP3    H262526   2.942   1.945   4.652  1.4590  1.7569  0.2327
13679TIP3   OH262527   2.727   1.104  11.707  0.2353 -0.3067  0.0121
13679TIP3    H162528   2.712   1.197  11.692  1.4351 -0.4824 -2.7489
13679TIP3    H262529   2.808   1.101  11.759 -0.4543  0.2086  1.1219
13680TIP3   OH262530   0.440   2.755   3.033  0.1927  0.4261  0.6143
13680TIP3    H162531   0.494   2.745   3.111  0.1703  1.9529  0.8387
13680TIP3    H262532   0.412   2.847   3.035 -1.4777 -0.0538 -0.1012
13681TIP3   OH262533   6.378   5.582  12.212 -0.1938  0.0896 -0.0874
13681TIP3    H162534   6.359   5.630  12.292  0.6416 -0.0115  0.1730
13681TIP3    H262535   6.299   5.530  12.196 -0.7735  0.8996  0.0898
13682TIP3   OH262536   0.404   0.570   0.076  0.0718 -0.5683  0.7417
13682TIP3    H162537   0.314   0.599   0.091 -0.0997  0.8058 -2.4816
13682TIP3    H262538   0.396   0.506   0.005  1.8109  1.0084 -0.9200
13683TIP3   OH262539   4.961   1.986  17.225  0.3610  0.1704  0.3375
13683TIP3    H162540   5.012   1.922  17.177 -0.4246  0.9149 -1.5424
13683TIP3    H262541   5.021   2.022  17.289  1.6122 -0.3926 -0.5109
13684TIP3   OH262542   4.705   2.640  16.113 -0.2468  0.5626 -0.3163
13684TIP3    H162543   4.615   2.621  16.142 -0.3733 -0.7903 -1.5398
13684TIP3    H262544   4.696   2.719  16.060 -0.6949  0.4905 -0.3531
13685TIP3   OH262545   1.829   3.986  15.357  0.2079  0.1779  0.4692
13685TIP3    H162546   1.808   3.914  15.298 -2.2701  1.6688 -0.5723
13685TIP3    H262547   1.805   3.953  15.444  1.6314 -1.1784  0.3699
13686TIP3   OH262548   1.143   0.395  15.503  0.0565 -0.6208  1.2035
13686TIP3    H162549   1.194   0.362  15.577  0.7447 -0.3902  0.8381
13686TIP3    H262550   1.199   0.462  15.464 -0.3567 -0.6600  0.5418
13687TIP3   OH262551   1.362   0.104   1.221 -0.1625 -0.6641 -0.8070
13687TIP3    H162552   1.291   0.051   1.255  0.3051 -0.9247 -0.2279
13687TIP3    H262553   1.424   0.111   1.294  0.0411  0.2035 -1.0543
13688TIP3   OH262554   4.431   5.535   0.164 -0.4674 -0.1220 -0.0135
13688TIP3    H162555   4.401   5.576   0.245  1.9944 -0.3250  1.0195
13688TIP3    H262556   4.436   5.607   0.101 -1.5671  0.1781  0.2333
13689TIP3   OH262557   3.227   1.561  13.489 -0.4622 -0.1632  0.3899
13689TIP3    H162558   3.160   1.512  13.538  1.0055 -1.5409  1.0765
13689TIP3    H262559   3.301   1.567  13.550 -0.1261  1.7826 -0.1884
13690TIP3   OH262560   3.334   1.772   2.202 -0.1928  0.3836 -0.1901
13690TIP3    H162561   3.244   1.744   2.184 -0.1562  1.1312 -1.5911
13690TIP3    H262562   3.388   1.709   2.154  0.0033  0.4351 -0.0352
13691TIP3   OH262563   0.831   3.410  15.989 -0.2713  0.3001 -0.0151
13691TIP3    H162564   0.758   3.424  16.050 -1.9685 -0.9141 -1.6895
13691TIP3    H262565   0.790   3.369  15.913  2.4191 -1.7728 -0.4018
13692TIP3   OH262566   5.119   5.099   2.758 -0.0903 -0.2163  0.4574
13692TIP3    H162567   5.184   5.125   2.692 -0.1255 -1.0236  0.0996
13692TIP3    H262568   5.060   5.040   2.711  0.6757 -1.9010  1.5508
13693TIP3   OH262569   1.924   3.242  14.159 -0.4913  0.0696  0.4205
13693TIP3    H162570   1.949   3.333  14.179 -0.6669  0.4908 -1.1861
13693TIP3    H262571   1.877   3.248  14.076 -0.8108 -1.4562  0.4831
13694TIP3   OH262572   5.486   2.683   0.248  0.1169 -0.5947 -0.4250
13694TIP3    H162573   5.540   2.610   0.220  1.5940 -0.1030  1.0327
13694TIP3    H262574   5.534   2.722   0.321 -2.6992 -0.7658  1.6199
13695TIP3   OH262575   6.338   4.256   1.787 -0.5082 -0.1627  0.3142
13695TIP3    H162576   6.246   4.248   1.812 -0.2844  0.2340  1.2815
13695TIP3    H262577   6.387   4.228   1.864  0.1915 -0.4773 -0.2309
13696TIP3   OH262578   3.356   3.437   2.977  0.0294 -0.3285 -0.1943
13696TIP3    H162579   3.310   3.483   2.907 -0.8165 -1.2100 -0.2260
13696TIP3    H262580   3.440   3.483   2.985 -0.0780  0.0890 -1.4365
13697TIP3   OH262581   6.303   1.858   1.851  0.3217  0.3448 -0.2475
13697TIP3    H162582   6.393   1.873   1.823  0.7235 -1.8782 -0.3060
13697TIP3    H262583   6.301   1.888   1.942  1.1883  0.2032 -0.1754
13698TIP3   OH262584   1.324   2.402   1.261  0.0966  0.4397  0.2441
13698TIP3    H162585   1.370   2.485   1.274 -1.2551  1.2487 -0.0999
13698TIP3    H262586   1.259   2.399   1.330  0.0200 -0.2545  0.1458
13699TIP3   OH262587   0.598   2.712  14.117  0.0728 -0.4959  0.2933
13699TIP3    H162588   0.629   2.630  14.156  2.3741  0.0910 -0.2216
13699TIP3    H262589   0.584   2.691  14.025 -0.0605 -0.4976  0.3143
13700TIP3   OH262590   6.311   0.381  15.939  0.2664 -0.2568 -0.3568
13700TIP3    H162591   6.373   0.431  15.991  1.5828 -0.6106 -1.5602
13700TIP3    H262592   6.347   0.381  15.850 -0.6246 -1.8198 -0.7560
13701TIP3   OH262593   1.181   2.816  12.287 -0.0788 -0.7006 -0.7587
13701TIP3    H162594   1.136   2.782  12.364 -0.2144 -1.8496 -1.3374
13701TIP3    H262595   1.182   2.911  12.300 -0.3443 -0.8598  0.5194
13702TIP3   OH262596   4.657   2.893   0.558  0.0118  0.2096  0.9381
13702TIP3    H162597   4.749   2.913   0.540 -0.5320  2.7870  0.8612
13702TIP3    H262598   4.656   2.799   0.572  2.8096  0.2287  1.6958
13703TIP3   OH262599   6.666   1.574  11.562 -0.2089 -0.2418  0.1818
13703TIP3    H162600   6.653   1.547  11.652 -0.0382  0.6055  0.4663
13703TIP3    H262601   6.750   1.620  11.562  0.1473 -0.8850 -0.5523
13704TIP3   OH262602   4.416   4.859  15.079  0.0344 -0.1402  0.2365
13704TIP3    H162603   4.351   4.821  15.139 -0.7705  0.3048 -0.3449
13704TIP3    H262604   4.381   4.840  14.991  1.3472 -1.0472 -0.1046
13705TIP3   OH262605   0.466   5.399  13.446 -0.1003  0.3930  0.4173
13705TIP3    H162606   0.508   5.323  13.406 -2.1503 -0.3768 -0.3668
13705TIP3    H262607   0.537   5.461  13.460  1.5506 -1.5056  0.7162
13706TIP3   OH262608   3.153   5.269  13.604 -0.3264  0.2335 -0.0858
13706TIP3    H162609   3.182   5.344  13.655 -0.6295  0.6275 -0.4876
13706TIP3    H262610   3.072   5.298  13.562  0.7122  0.4368 -2.0149
13707TIP3   OH262611   5.247   6.133   1.908 -0.1833  0.4425 -0.2947
13707TIP3    H162612   5.228   6.045   1.875 -0.9391 -0.4955  2.5320
13707TIP3    H262613   5.314   6.120   1.974 -0.2679  2.0066  0.1217
13708TIP3   OH262614   6.602   6.348  14.013  0.3394  0.1916  0.4404
13708TIP3    H162615   6.641   6.429  14.045 -1.1305  0.9374  0.3668
13708TIP3    H262616   6.508   6.363  14.018  0.0675 -0.5963 -1.9418
13709TIP3   OH262617   3.788   5.164   3.642 -0.6014  1.5254  0.1177
13709TIP3    H162618   3.841   5.107   3.587 -0.6558  2.8878 -1.3793
13709TIP3    H262619   3.840   5.176   3.722 -0.8031 -0.9764  0.6857
13710TIP3   OH262620   1.329   0.085  11.960  0.0111 -0.0500  0.3073
13710TIP3    H162621   1.372   0.009  11.923 -2.3793 -1.1572 -0.3090
13710TIP3    H262622   1.392   0.156  11.951  2.5579 -2.0695  1.5083
13711TIP3   OH262623   0.334   0.141  14.041 -0.3252 -0.1406  0.5140
13711TIP3    H162624   0.349   0.219  13.987 -0.0809 -0.1025  0.6355
13711TIP3    H262625   0.378   0.160  14.123 -4.1077  1.5048  2.2832
13712TIP3   OH262626   3.092   5.451   2.780 -0.1869 -0.1011  0.7398
13712TIP3    H162627   3.160   5.432   2.844  0.8854 -0.4258 -0.4832
13712TIP3    H262628   3.120   5.532   2.738  0.0115 -0.8060 -0.5151
13713TIP3   OH262629   1.900   4.227   0.099  0.1515  0.2695 -0.4024
13713TIP3    H162630   1.923   4.155   0.040  2.3955  0.5262  0.1103
13713TIP3    H262631   1.893   4.303   0.042  1.9680  0.4474 -0.4200
13714TIP3   OH262632   4.519   1.795  12.351 -0.0221  0.2024  0.4538
13714TIP3    H162633   4.424   1.792  12.366 -0.0397  0.7015  0.4452
13714TIP3    H262634   4.532   1.871  12.294  0.1615 -1.0964 -1.2475
13715TIP3   OH262635   2.882   4.661   2.276 -0.2192 -0.0604 -0.1234
13715TIP3    H162636   2.899   4.646   2.183  2.2981 -0.9640  0.4295
13715TIP3    H262637   2.876   4.756   2.285  1.1840  0.1214 -0.9606
13716TIP3   OH262638   5.429   2.106  16.559 -0.0835 -0.2868 -0.6650
13716TIP3    H162639   5.403   2.015  16.551  0.8297 -0.6889  0.7402
13716TIP3    H262640   5.376   2.152  16.494 -1.0017 -1.7174 -0.9522
13717TIP3   OH262641   6.301   0.976   2.098 -0.6619 -0.1524 -0.0740
13717TIP3    H162642   6.318   0.955   2.190  0.2783 -1.2942 -0.4949
13717TIP3    H262643   6.387   0.995   2.062 -1.0069  0.0876 -0.7745
13718TIP3   OH262644   0.027   2.501  13.297 -0.5086  0.1895  0.3308
13718TIP3    H162645  -0.066   2.508  13.279 -0.7834 -2.2074  0.6044
13718TIP3    H262646   0.033   2.434  13.366  1.3506  0.8042  0.7919
13719TIP3   OH262647   0.841   4.908   2.101 -0.2558 -0.0093  0.2200
13719TIP3    H162648   0.871   4.992   2.066 -0.3281  0.5367  1.4572
13719TIP3    H262649   0.914   4.875   2.153 -0.9692  0.2632  1.4131
13720TIP3   OH262650   2.835   1.479  11.424 -0.7054  0.2264 -0.0971
13720TIP3    H162651   2.765   1.514  11.479 -0.1757  1.2786 -0.0839
13720TIP3    H262652   2.913   1.527  11.451  0.1094 -1.2307  0.1688
13721TIP3   OH262653   2.009   5.707  11.132  0.2008 -0.0661 -0.1001
13721TIP3    H162654   2.080   5.644  11.121  0.1989  0.1322 -1.3681
13721TIP3    H262655   2.051   5.793  11.126 -0.2756  0.0595 -2.0162
13722TIP3   OH262656   2.897   2.652   6.279  0.4789  0.0476  0.4228
13722TIP3    H162657   2.964   2.677   6.216  1.5504  1.0369  1.9100
13722TIP3    H262658   2.933   2.576   6.324 -0.5147 -0.9832 -0.5221
13723TIP3   OH262659   1.198   6.161  11.456 -0.0399 -0.1270  0.1910
13723TIP3    H162660   1.257   6.120  11.519 -0.2665  0.2568  0.6476
13723TIP3    H262661   1.237   6.247  11.438 -0.2475 -0.0331  0.1907
13724TIP3   OH262662   6.092   1.564   5.170 -0.0550  0.2755 -0.2081
13724TIP3    H162663   6.131   1.640   5.128 -1.3668  0.2731 -1.4584
13724TIP3    H262664   6.053   1.514   5.098 -0.4842 -0.8186  0.7661
13725TIP3   OH262665   0.634   5.647   3.665 -0.1347 -0.1186  0.2571
13725TIP3    H162666   0.616   5.612   3.752 -0.6319 -1.1312 -0.2410
13725TIP3    H262667   0.559   5.619   3.612  1.0454 -1.1344 -0.9393
13726TIP3   OH262668   5.443   2.355   4.112  0.6354 -0.1772 -0.2393
13726TIP3    H162669   5.484   2.271   4.132  0.2526 -0.0638  1.0494
13726TIP3    H262670   5.376   2.365   4.179 -0.2782  0.4967 -1.2438
13727TIP3   OH262671   0.918   6.157  11.442 -0.6654  0.6041 -0.2301
13727TIP3    H162672   1.010   6.147  11.464 -0.9133 -0.4060  0.3461
13727TIP3    H262673   0.918   6.195  11.354  0.3023  1.8790  0.3060
13728TIP3   OH262674   5.849   6.052  11.351 -0.2754  0.1069  0.6707
13728TIP3    H162675   5.834   5.975  11.295 -0.5087 -0.5771  1.6563
13728TIP3    H262676   5.764   6.095  11.356 -0.2900  0.0830  0.6346
13729TIP3   OH262677   0.483   5.911   1.735  0.4246 -0.3506 -0.5441
13729TIP3    H162678   0.420   5.975   1.769  0.9122 -0.1220 -0.0626
13729TIP3    H262679   0.532   5.882   1.812  2.0262  0.7097 -1.1277
13730TIP3   OH262680   0.099   6.582  16.289 -0.6663 -0.0972 -0.6363
13730TIP3    H162681   0.068   6.542  16.208  1.7071 -0.9554 -1.1399
13730TIP3    H262682   0.182   6.622  16.266  0.0077 -0.2948  1.3513
13731TIP3   OH262683   1.613   3.437   3.616 -0.0166  0.3534  0.2410
13731TIP3    H162684   1.605   3.358   3.671  0.6112  0.0065 -0.1679
13731TIP3    H262685   1.683   3.487   3.656  0.6724 -0.0599 -0.4345
13732TIP3   OH262686   2.325   1.211  14.015  0.7027 -0.2324  0.1322
13732TIP3    H162687   2.311   1.116  14.011  1.6772 -0.3705 -0.1994
13732TIP3    H262688   2.282   1.246  13.938  1.9679 -0.6222 -0.7642
13733TIP3   OH262689   1.504   2.686   4.387 -0.2446  0.5227 -0.1508
13733TIP3    H162690   1.433   2.654   4.331  0.1297 -0.9176  0.1833
13733TIP3    H262691   1.463   2.753   4.442 -1.0074  0.7162 -0.9312
13734TIP3   OH262692   4.642   1.264   6.157  0.7984 -0.2259  0.2470
13734TIP3    H162693   4.595   1.219   6.087 -0.6383  2.5045 -0.6204
13734TIP3    H262694   4.723   1.294   6.115  2.6683 -3.5745  1.3292
13735TIP3   OH262695   3.814   2.505  14.562 -0.1376 -0.0173 -0.5429
13735TIP3    H162696   3.831   2.595  14.589  0.2763  0.3068 -1.8450
13735TIP3    H262697   3.882   2.486  14.497 -2.4835  0.0280 -3.0796
13736TIP3   OH262698   4.815   2.193  16.203  0.0462  0.2696  0.0296
13736TIP3    H162699   4.855   2.235  16.278 -0.4588  0.4956  0.1728
13736TIP3    H262700   4.867   2.222  16.128  0.8334 -0.3236  0.3379
13737TIP3   OH262701   3.988   2.413  16.742  0.3080 -0.3696 -1.0611
13737TIP3    H162702   3.951   2.487  16.694  0.9763  0.6960  0.0387
13737TIP3    H262703   3.921   2.391  16.807  0.7032  0.1888 -0.4597
13738TIP3   OH262704   6.102   0.240   6.065  0.2727  0.0711 -0.0496
13738TIP3    H162705   6.052   0.159   6.067  0.4502 -0.0328  0.2200
13738TIP3    H262706   6.059   0.296   6.130 -2.0766  1.5222 -2.7604
13739TIP3   OH262707   5.911   2.541  12.718 -0.1396  0.3797  0.7688
13739TIP3    H162708   5.970   2.467  12.702  0.2976  0.2789  2.7791
13739TIP3    H262709   5.849   2.509  12.784 -0.3121  1.6060  1.2147
13740TIP3   OH262710   0.955   2.857  11.991  0.2254 -0.3775  0.3746
13740TIP3    H162711   0.934   2.894  12.077 -1.3330  0.7339 -0.4468
13740TIP3    H262712   0.878   2.805  11.969 -0.8835  2.0891 -1.8048
13741TIP3   OH262713   0.848   4.926  16.872  0.1713  0.3492  0.3345
13741TIP3    H162714   0.778   4.898  16.931 -0.2147  2.5820  0.9917
13741TIP3    H262715   0.922   4.869  16.893 -0.0770  0.8534  2.7333
13742TIP3   OH262716   6.206   4.853  16.521 -0.3835  0.3504 -0.0773
13742TIP3    H162717   6.260   4.888  16.592  3.1385  0.1593 -2.5597
13742TIP3    H262718   6.190   4.927  16.464 -2.0912  0.2109  0.1950
13743TIP3   OH262719   1.019   5.912  12.121 -0.0840  0.3419 -0.2822
13743TIP3    H162720   1.004   5.823  12.153  0.5981  0.4396  0.3174
13743TIP3    H262721   1.032   5.902  12.027  1.6606 -0.4036  0.0197
13744TIP3   OH262722   5.590   2.473  11.778  0.2731 -0.7829  0.2163
13744TIP3    H162723   5.535   2.543  11.812 -0.1943  0.2917 -2.6162
13744TIP3    H262724   5.639   2.441  11.854  0.4792  2.5869  1.5587
13745TIP3   OH262725   5.180   6.600   3.452  0.5779 -0.5820  0.0566
13745TIP3    H162726   5.187   6.667   3.384  2.1650  0.0322  0.8001
13745TIP3    H262727   5.101   6.623   3.501  0.4269  0.0254 -0.4702
13746TIP3   OH262728   0.367   0.938  16.852 -0.0851  0.2905 -0.1492
13746TIP3    H162729   0.457   0.916  16.876 -0.3305 -0.0504  0.4566
13746TIP3    H262730   0.376   1.012  16.792  0.4800  1.9084  1.8776
13747TIP3   OH262731   2.790   3.613  13.917  0.0686 -0.1556  0.3417
13747TIP3    H162732   2.713   3.646  13.871 -0.4822  0.7505  1.8733
13747TIP3    H262733   2.857   3.604  13.849 -0.9849  0.3170 -0.7696
13748TIP3   OH262734   4.072   6.610   2.989  0.3289  0.1119  0.5202
13748TIP3    H162735   4.000   6.653   2.941 -0.8491 -0.4308  1.7844
13748TIP3    H262736   4.050   6.622   3.081  1.5605 -0.5889  0.9120
13749TIP3   OH262737   0.036   2.294   0.748  0.0871  0.1519  0.2690
13749TIP3    H162738   0.035   2.345   0.828  0.7077 -0.1898  0.5027
13749TIP3    H262739  -0.040   2.236   0.754 -1.2444  1.7854 -0.4928
13750TIP3   OH262740   1.036   1.254  13.290 -0.4406  0.5234 -0.2793
13750TIP3    H162741   0.991   1.170  13.278  1.4085 -0.7218  1.2092
13750TIP3    H262742   1.110   1.233  13.347  0.8921  2.9135 -1.1020
13751TIP3   OH262743   5.052   4.577   5.098 -0.0601 -0.0487  0.0517
13751TIP3    H162744   4.986   4.536   5.042 -0.6763 -0.7953  1.3066
13751TIP3    H262745   5.135   4.542   5.068 -0.3635 -0.1833 -0.6226
13752TIP3   OH262746   3.526   3.646   3.749  0.2260  0.0388  0.2394
13752TIP3    H162747   3.575   3.726   3.763 -0.4418  0.4370  0.3147
13752TIP3    H262748   3.512   3.642   3.655 -2.0615  1.4100  0.4824
13753TIP3   OH262749   6.193   0.513   6.546 -0.0736  0.1895  0.1073
13753TIP3    H162750   6.205   0.419   6.535 -1.4875 -0.0258  0.3216
13753TIP3    H262751   6.107   0.531   6.508 -1.6053  0.7340  3.6035
13754TIP3   OH262752   4.049   5.250  13.852  0.1204  0.2176  0.1743
13754TIP3    H162753   3.993   5.187  13.806  0.1646 -0.4079  0.9710
13754TIP3    H262754   4.118   5.271  13.789 -1.9367  2.3441 -1.4854
13755TIP3   OH262755   5.435   4.641   2.172  0.2793  0.0204  0.1689
13755TIP3    H162756   5.476   4.656   2.257 -0.4732 -2.3994  0.9685
13755TIP3    H262757   5.426   4.546   2.165 -1.8378  0.3166 -1.5970
13756TIP3   OH262758   4.334   6.754  11.933  0.3074 -0.1432  0.4795
13756TIP3    H162759   4.403   6.820  11.926  1.1991 -0.8084  2.6325
13756TIP3    H262760   4.378   6.671  11.920 -0.4295 -0.4614 -0.0300
13757TIP3   OH262761   5.727   0.163   0.405 -0.7548 -0.0759  0.3103
13757TIP3    H162762   5.656   0.219   0.372 -2.1021 -0.3439  2.6203
13757TIP3    H262763   5.793   0.225   0.436 -0.6885  0.1915 -0.3488
13758TIP3   OH262764   6.780   5.409  15.154 -0.5152 -0.2157 -0.1340
13758TIP3    H162765   6.775   5.481  15.092 -1.0105  1.6526  2.0116
13758TIP3    H262766   6.703   5.419  15.209  0.9184 -0.6372  2.0110
13759TIP3   OH262767   4.112   6.509  13.820 -0.4634  0.0207  0.7094
13759TIP3    H162768   4.073   6.464  13.745 -3.5785  2.0904  1.0119
13759TIP3    H262769   4.179   6.565  13.783 -1.1342  0.1011 -0.3903
13760TIP3   OH262770   4.774   0.648  16.341  0.1682  0.5090  0.7596
13760TIP3    H162771   4.755   0.598  16.261 -0.9269  3.6911 -1.0820
13760TIP3    H262772   4.819   0.586  16.399 -0.1830 -2.2454 -1.8165
13761TIP3   OH262773   4.240   6.536   2.303 -0.1542  0.6546  0.2576
13761TIP3    H162774   4.170   6.557   2.365 -0.0173 -0.7521  0.9087
13761TIP3    H262775   4.207   6.566   2.219 -1.0466  1.0732  0.7519
13762TIP3   OH262776   6.387   4.187   2.057 -0.1608 -0.4386 -0.1899
13762TIP3    H162777   6.341   4.258   2.102  0.1666  0.2467 -0.9219
13762TIP3    H262778   6.473   4.184   2.100  0.0636  0.0530 -0.5950
13763TIP3   OH262779   4.446   4.109   2.494 -0.2617  0.7753  0.3911
13763TIP3    H162780   4.420   4.185   2.441 -0.5143 -0.4124 -1.2159
13763TIP3    H262781   4.378   4.102   2.561  0.1352  2.3761  0.9805
13764TIP3   OH262782   3.413   6.716  15.534 -0.0469  0.2211 -0.4001
13764TIP3    H162783   3.504   6.719  15.564 -0.3018 -0.0971  0.4254
13764TIP3    H262784   3.362   6.740  15.610 -0.6218  1.2279 -1.1001
13765TIP3   OH262785   4.883   0.384   2.838  0.2506  0.5482 -0.2863
13765TIP3    H162786   4.963   0.434   2.817  1.2451 -1.1158 -0.5405
13765TIP3    H262787   4.844   0.364   2.753  0.1699  0.3874 -0.2117
13766TIP3   OH262788   0.035   1.668   1.760 -0.0983 -0.0652 -0.3768
13766TIP3    H162789   0.124   1.669   1.723 -0.4221 -2.5631 -1.3495
13766TIP3    H262790  -0.022   1.682   1.685 -0.5157  3.8703  0.5800
13767TIP3   OH262791   3.464   0.411   5.381  0.0661 -0.1550  0.1537
13767TIP3    H162792   3.397   0.442   5.321  0.9713 -1.3123 -1.4746
13767TIP3    H262793   3.539   0.469   5.366 -0.2004  0.4889  1.2394
13768TIP3   OH262794   3.588   3.653   0.748  0.9755  0.0155  0.4451
13768TIP3    H162795   3.590   3.577   0.689  0.0712 -0.0506  0.4937
13768TIP3    H262796   3.673   3.652   0.792  1.4736 -0.2101 -0.5151
13769TIP3   OH262797   1.842   3.114   0.946  0.2936  0.1306 -0.3392
13769TIP3    H162798   1.895   3.090   0.871  0.6518  1.2567 -0.4464
13769TIP3    H262799   1.902   3.160   1.005 -0.0052 -0.6535  0.5889
13770TIP3   OH262800   6.721   5.007  14.539  0.1051 -0.0319 -0.3712
13770TIP3    H162801   6.745   5.055  14.460 -0.9201  1.6884  0.3365
13770TIP3    H262802   6.627   5.022  14.549  0.5100  1.1978  2.0704
13771TIP3   OH262803   6.299   1.543  16.748  0.3577 -0.6047  0.6492
13771TIP3    H162804   6.335   1.515  16.663 -0.4567 -0.2312  0.1779
13771TIP3    H262805   6.316   1.637  16.751  1.2351 -0.7709  1.3294
13772TIP3   OH262806   5.438   5.053  13.277 -0.1577 -0.3949  0.2406
13772TIP3    H162807   5.357   5.097  13.252 -0.5177 -0.7026  0.8621
13772TIP3    H262808   5.434   5.048  13.372 -0.1616 -1.8502  0.1742
13773TIP3   OH262809   6.478   0.314  17.203  0.2660 -0.1533 -0.1098
13773TIP3    H162810   6.416   0.369  17.251  0.3650  1.3603 -1.6585
13773TIP3    H262811   6.439   0.227  17.204  0.5687 -0.3170  3.2219
13774TIP3   OH262812   1.910   3.027  11.249  0.1036 -0.3253  0.3391
13774TIP3    H162813   1.926   2.988  11.164 -0.0471  1.9075 -0.7640
13774TIP3    H262814   1.841   3.092  11.233  1.1785  1.2466  1.8036
13775TIP3   OH262815   4.281   5.250  13.672 -0.4338  0.4441  0.0513
13775TIP3    H162816   4.343   5.308  13.717 -0.9627  1.2861 -0.2775
13775TIP3    H262817   4.319   5.238  13.585 -0.9507  1.3413 -0.3089
13776TIP3   OH262818   5.075   3.098  12.490  0.5093 -0.3397  0.6022
13776TIP3    H162819   5.036   3.014  12.511 -0.0644 -0.1891  0.1413
13776TIP3    H262820   5.060   3.152  12.568  1.9752 -1.0337  1.4010
13777TIP3   OH262821   5.984   2.081   2.693  0.4623 -0.0426 -0.4589
13777TIP3    H162822   5.970   2.165   2.650 -0.8642  0.8409  1.6257
13777TIP3    H262823   6.069   2.091   2.737 -0.0336  0.5040  0.3994
13778TIP3   OH262824   2.793   5.616   6.303 -0.0696 -1.1899  0.0536
13778TIP3    H162825   2.855   5.674   6.346 -1.9526 -0.6094  2.1049
13778TIP3    H262826   2.791   5.537   6.359 -1.0233 -1.2629 -0.0683
13779TIP3   OH262827   4.032   2.933  16.960 -0.1219  0.5114  0.1459
13779TIP3    H162828   4.096   2.946  16.889 -1.4087  0.2448 -1.0839
13779TIP3    H262829   4.085   2.928  17.039  1.2250  2.4628 -0.5959
13780TIP3   OH262830   5.001   3.428  13.647 -0.0194 -0.2119  0.0542
13780TIP3    H162831   4.920   3.383  13.626 -0.4286 -0.2657  1.7081
13780TIP3    H262832   5.070   3.364  13.628 -0.3768 -0.2827 -1.0117
13781TIP3   OH262833   0.406   1.052   4.866 -0.2813  0.2222  0.0860
13781TIP3    H162834   0.456   1.003   4.801 -0.9212 -0.1355 -0.1422
13781TIP3    H262835   0.406   0.995   4.943 -0.8430 -0.0603 -0.1109
13782TIP3   OH262836   5.321   4.168   3.296  0.2510 -0.6021 -0.7332
13782TIP3    H162837   5.398   4.162   3.352 -0.2656 -0.1329  0.0347
13782TIP3    H262838   5.262   4.228   3.342  1.6054  3.4326 -3.8357
13783TIP3   OH262839   0.262   3.172  16.090  0.1169  0.2533  0.0627
13783TIP3    H162840   0.345   3.208  16.121  0.9111 -0.3239 -1.3527
13783TIP3    H262841   0.268   3.078  16.106 -0.3148  0.2281  0.0844
13784TIP3   OH262842   3.441   2.552  14.907 -0.1099 -0.5718 -0.2720
13784TIP3    H162843   3.357   2.512  14.930  1.5604 -3.3987  1.2027
13784TIP3    H262844   3.466   2.509  14.825  0.9608 -1.4886  0.5095
13785TIP3   OH262845   4.912   6.014   4.293 -0.1490  0.6940 -0.2164
13785TIP3    H162846   4.935   6.105   4.309  2.5409 -0.3191  1.9757
13785TIP3    H262847   4.893   5.978   4.380  1.7124 -1.5741 -0.7066
13786TIP3   OH262848   3.284   6.592   5.873  0.0602  0.3014 -0.0441
13786TIP3    H162849   3.327   6.678   5.875  0.0776  0.2781  0.7323
13786TIP3    H262850   3.194   6.610   5.898  0.5206 -0.1603  2.0633
13787TIP3   OH262851   2.578   2.081   1.967 -0.3426  0.6158 -0.1768
13787TIP3    H162852   2.668   2.056   1.946  0.0839  3.3123 -1.9441
13787TIP3    H262853   2.565   2.162   1.917 -3.0619  1.3642  1.6870
13788TIP3   OH262854   2.563   0.317  15.127  0.4766 -0.0523 -0.0184
13788TIP3    H162855   2.644   0.286  15.086 -0.0185 -2.2709  0.6177
13788TIP3    H262856   2.494   0.292  15.066  0.1224  0.5037  0.1495
13789TIP3   OH262857   3.418   5.573   2.529  0.3950  0.6572 -0.3770
13789TIP3    H162858   3.482   5.556   2.598 -0.6942 -0.5510  0.3398
13789TIP3    H262859   3.460   5.640   2.474  1.9468  0.4406  0.5136
13790TIP3   OH262860   1.492   5.135  16.184 -0.0975 -0.3267  0.0705
13790TIP3    H162861   1.581   5.112  16.157 -0.3689 -2.3934  0.8584
13790TIP3    H262862   1.436   5.100  16.115 -0.3298  0.9174 -0.3957
13791TIP3   OH262863   0.973   4.745   1.009  0.2796 -0.1036  0.0360
13791TIP3    H162864   0.946   4.809   1.074  1.3005 -1.1702  1.5522
13791TIP3    H262865   1.043   4.787   0.960  0.2468  0.3072  0.3461
13792TIP3   OH262866   1.796   4.964  12.097 -0.3037 -0.0401 -0.5118
13792TIP3    H162867   1.870   4.987  12.154  0.0021 -1.0342 -0.4937
13792TIP3    H262868   1.835   4.954  12.010 -0.5980  0.4728 -0.7030
13793TIP3   OH262869   5.953   3.567  17.015 -0.4033 -0.6309 -0.4352
13793TIP3    H162870   5.879   3.506  17.017 -0.6461 -0.3220  0.1156
13793TIP3    H262871   5.967   3.586  16.923 -0.9671 -0.7425 -0.5449
13794TIP3   OH262872   4.436   2.439   0.755  0.2980  0.3089 -0.3284
13794TIP3    H162873   4.362   2.381   0.740 -0.3877  0.4019  2.5193
13794TIP3    H262874   4.505   2.383   0.792  0.6211  0.7732 -0.2159
13795TIP3   OH262875   5.884   3.950   4.751  0.2389  0.3680  0.0107
13795TIP3    H162876   5.917   4.039   4.762  1.3399 -0.1530  1.1687
13795TIP3    H262877   5.959   3.901   4.715  0.3475 -0.5338  1.3841
13796TIP3   OH262878   5.201   2.978   0.816 -0.7173 -0.2503  0.2586
13796TIP3    H162879   5.114   2.946   0.840 -2.0183  1.7353 -1.5763
13796TIP3    H262880   5.185   3.067   0.784  2.0226  0.2000  0.0569
13797TIP3   OH262881   5.340   1.211   2.515  0.2042 -0.0534  0.0990
13797TIP3    H162882   5.264   1.166   2.552  0.0300  0.0073 -0.1819
13797TIP3    H262883   5.405   1.142   2.500 -0.5679 -0.4321 -1.6176
13798TIP3   OH262884   1.928   1.709  12.382  0.1763 -0.4505 -0.1284
13798TIP3    H162885   1.881   1.626  12.377  1.9951 -1.4017 -1.6932
13798TIP3    H262886   1.917   1.748  12.295  0.7156  0.1926  0.0816
13799TIP3   OH262887   1.542   2.904  14.573 -0.0375 -0.4780 -0.5941
13799TIP3    H162888   1.545   2.994  14.539  0.1316 -0.6987 -1.1645
13799TIP3    H262889   1.448   2.885  14.581 -0.0695 -0.0769 -0.0117
13800TIP3   OH262890   2.733   6.662  12.761  0.2850  0.5729  0.3643
13800TIP3    H162891   2.646   6.649  12.798 -0.8883  0.1543 -2.4424
13800TIP3    H262892   2.726   6.741  12.708  1.2556 -0.1155 -0.8439
13801TIP3   OH262893   4.192   0.660  10.493  0.2859  0.1969 -0.4373
13801TIP3    H162894   4.145   0.591  10.540 -0.4409  0.5381 -0.6572
13801TIP3    H262895   4.254   0.695  10.556  1.5472 -1.5228 -0.6935
13802TIP3   OH262896   2.033   4.829   4.190  0.0274  0.5379  0.0948
13802TIP3    H162897   2.014   4.827   4.096 -1.1823 -0.4744  0.3546
13802TIP3    H262898   1.980   4.902   4.223 -1.5232 -0.6852  0.3908
13803TIP3   OH262899   6.453   0.787  13.966 -0.1138 -0.0117 -1.0379
13803TIP3    H162900   6.422   0.841  14.039 -1.8860  0.4547 -2.1024
13803TIP3    H262901   6.510   0.721  14.007 -1.9214 -0.4169  0.9145
13804TIP3   OH262902   0.410   4.237   3.421 -0.1427 -0.0616 -0.3683
13804TIP3    H162903   0.496   4.206   3.392 -1.0842 -2.6945 -0.5455
13804TIP3    H262904   0.393   4.189   3.502 -1.9583 -0.5629 -0.9999
13805TIP3   OH262905   6.353   1.727  12.760  0.1674  0.0366 -0.4599
13805TIP3    H162906   6.313   1.771  12.836  0.4086  0.6227 -0.6680
13805TIP3    H262907   6.341   1.634  12.777 -1.5826  0.1976 -0.6538
13806TIP3   OH262908   1.793   2.558  14.601  0.4996 -0.1368 -0.1549
13806TIP3    H162909   1.838   2.486  14.644 -0.3343 -1.0146 -0.7265
13806TIP3    H262910   1.859   2.597  14.544  1.4048  0.5837  1.3675
13807TIP3   OH262911   0.302   6.668   5.952  0.2697  0.1818 -0.1104
13807TIP3    H162912   0.356   6.596   5.983 -0.1935  0.3878  1.2089
13807TIP3    H262913   0.267   6.708   6.032 -0.7965  0.8451 -0.8962
13808TIP3   OH262914   6.400   0.731  12.706  0.2471  0.0823 -0.4319
13808TIP3    H162915   6.319   0.748  12.755 -0.8710 -3.0171 -1.0483
13808TIP3    H262916   6.370   0.704  12.619  1.9223 -1.4634 -0.5531
13809TIP3   OH262917   5.718   3.771  17.167 -0.5646 -0.5008  0.0986
13809TIP3    H162918   5.744   3.819  17.089 -0.3853 -0.1695  0.3619
13809TIP3    H262919   5.651   3.710  17.137  0.8283 -1.6884 -0.6957
13810TIP3   OH262920   0.895   2.697  13.365 -0.3697 -0.8282 -0.6944
13810TIP3    H162921   0.934   2.655  13.441  1.4812  2.0886  0.0329
13810TIP3    H262922   0.813   2.735  13.398  1.9899  3.2569  0.7493
13811TIP3   OH262923   1.763   1.663   2.951 -0.3707  0.7060  0.4646
13811TIP3    H162924   1.730   1.747   2.983 -0.5763  1.9063 -2.6796
13811TIP3    H262925   1.685   1.612   2.933 -0.3115  0.6987  0.2259
13812TIP3   OH262926   2.510   1.455   6.385 -0.0919  0.8041 -0.2487
13812TIP3    H162927   2.494   1.532   6.439 -0.4093 -0.1973  1.1189
13812TIP3    H262928   2.588   1.476   6.334 -0.4185  2.1760 -0.1901
13813TIP3   OH262929   2.849   0.056   0.948  0.2236 -0.5447 -0.2275
13813TIP3    H162930   2.811   0.065   1.035 -0.5936 -2.5682 -0.3658
13813TIP3    H262931   2.924  -0.002   0.959  1.7707  1.3295 -0.4328
13814TIP3   OH262932   6.375   5.472  14.180  0.3185  0.7655 -0.0277
13814TIP3    H162933   6.447   5.460  14.241  1.3438 -0.5050 -1.4428
13814TIP3    H262934   6.417   5.501  14.099 -0.8766  1.0725 -0.5423
13815TIP3   OH262935   1.049   5.992  14.087  0.2404  0.2187  0.0601
13815TIP3    H162936   1.099   5.911  14.079  0.5232  0.1942  1.9468
13815TIP3    H262937   1.104   6.058  14.044  0.9247 -0.2029  0.2800
13816TIP3   OH262938   3.401   0.852   2.783  0.1004 -0.0411  0.0238
13816TIP3    H162939   3.332   0.807   2.734 -0.2072 -1.0638  1.3485
13816TIP3    H262940   3.354   0.911   2.842  0.2303 -1.9202  2.0889
13817TIP3   OH262941   4.365   6.593   4.276 -0.2106  0.2211 -0.3345
13817TIP3    H162942   4.348   6.647   4.199  0.7025 -0.6967 -1.2014
13817TIP3    H262943   4.409   6.651   4.338  1.8803  0.1761 -1.7327
13818TIP3   OH262944   4.171   0.184  13.673 -0.2605 -0.0097 -0.2404
13818TIP3    H162945   4.088   0.220  13.705 -0.5807 -1.5274  0.7245
13818TIP3    H262946   4.157   0.170  13.580 -0.5586  1.1598 -0.3777
13819TIP3   OH262947   2.282   0.366   4.637 -0.2011  0.2590 -0.2672
13819TIP3    H162948   2.253   0.444   4.589 -1.6225 -0.2146 -0.2166
13819TIP3    H262949   2.206   0.340   4.689  0.3509 -0.9793 -0.0448
13820TIP3   OH262950   1.630   5.324   5.120  0.1688 -0.1074 -0.3609
13820TIP3    H162951   1.574   5.399   5.102  1.7803  1.2662  0.2484
13820TIP3    H262952   1.711   5.342   5.073  0.8521 -1.1006  0.3974
13821TIP3   OH262953   3.755   4.608   4.660 -0.2698  0.4836 -0.3499
13821TIP3    H162954   3.754   4.514   4.677  2.0716  0.2477 -1.3438
13821TIP3    H262955   3.730   4.616   4.568  0.7787  0.7262 -0.6195
13822TIP3   OH262956   1.201   6.199   2.263  0.0979  0.1737  0.1941
13822TIP3    H162957   1.233   6.269   2.320 -0.8773 -0.1943  1.2114
13822TIP3    H262958   1.158   6.246   2.191  0.9623  0.6365 -0.0286
13823TIP3   OH262959   4.028   1.540  14.096  0.0490  0.2772  0.0457
13823TIP3    H162960   4.106   1.556  14.044  0.7366 -0.5592  0.7973
13823TIP3    H262961   4.057   1.549  14.187 -0.8415  0.4530  0.3183
13824TIP3   OH262962   4.635   3.852   1.460 -0.3895 -0.0118 -0.0630
13824TIP3    H162963   4.716   3.801   1.449  0.1078  1.2184 -2.3802
13824TIP3    H262964   4.653   3.911   1.533  0.2822 -0.7107  0.3470
13825TIP3   OH262965   6.508   1.416  11.415  0.0620  0.3459  0.3809
13825TIP3    H162966   6.564   1.474  11.465 -0.1312  1.9381 -1.2056
13825TIP3    H262967   6.420   1.435  11.445  0.1271 -0.2315  0.9505
13826TIP3   OH262968   5.858   0.617   2.136 -0.1952 -0.0224 -0.1388
13826TIP3    H162969   5.916   0.657   2.071 -0.7674 -0.2108 -0.7674
13826TIP3    H262970   5.836   0.688   2.195 -1.1356  0.5918 -1.2005
13827TIP3   OH262971   3.850   2.979   4.759 -0.0137  0.1360 -0.6447
13827TIP3    H162972   3.945   2.985   4.774 -0.0883  1.7780 -0.6766
13827TIP3    H262973   3.821   3.070   4.758 -1.6204 -0.3663 -0.5313
13828TIP3   OH262974   3.551   1.081  16.730  0.2144 -0.0945 -0.0868
13828TIP3    H162975   3.583   1.167  16.703  0.6654 -0.2191  0.0438
13828TIP3    H262976   3.507   1.046  16.653 -0.5194  0.5179  0.0492
13829TIP3   OH262977   1.433   2.951  14.985  0.0991  0.3566 -0.3489
13829TIP3    H162978   1.446   3.038  14.947 -1.0261  0.4328 -0.5696
13829TIP3    H262979   1.522   2.914  14.992  0.7384  2.1111  1.1676
13830TIP3   OH262980   3.362   4.826   3.393 -0.2440  0.5917 -0.3909
13830TIP3    H162981   3.277   4.848   3.357  0.1079 -0.5284 -1.9715
13830TIP3    H262982   3.411   4.908   3.393  0.0163  0.4645 -3.2824
13831TIP3   OH262983   3.115   0.832   0.702  0.2628  0.0116  0.2966
13831TIP3    H162984   3.108   0.738   0.716  2.0201 -0.1917 -0.0280
13831TIP3    H262985   3.174   0.862   0.772  2.1103  0.3799 -1.3666
13832TIP3   OH262986   0.003   0.855   2.168 -0.7661  0.0747  0.0169
13832TIP3    H162987   0.064   0.905   2.114 -1.3019  0.5014 -0.2021
13832TIP3    H262988  -0.039   0.794   2.106 -1.5355  0.7117 -0.0937
13833TIP3   OH262989   4.072   0.283  16.406  0.2731 -0.0088  0.3745
13833TIP3    H162990   4.003   0.251  16.348 -0.2577  1.9185 -0.1012
13833TIP3    H262991   4.105   0.362  16.364  3.0005 -1.0537  0.4776
13834TIP3   OH262992   6.204   0.463  15.504 -0.1979 -0.0716 -0.3157
13834TIP3    H162993   6.231   0.408  15.577 -2.2584 -0.8580 -0.1180
13834TIP3    H262994   6.215   0.553  15.536  3.0040 -0.3321 -0.5867
13835TIP3   OH262995   3.184   6.274   5.345  0.0604 -0.0156  0.2043
13835TIP3    H162996   3.140   6.350   5.308 -0.0744 -0.1591  0.0701
13835TIP3    H262997   3.139   6.199   5.306 -0.0098 -0.1650  0.5724
13836TIP3   OH262998   1.227   1.716  16.854 -1.0953  0.3844  0.0424
13836TIP3    H162999   1.292   1.648  16.868 -0.6933  0.9912  1.1747
13836TIP3    H263000   1.171   1.713  16.931 -2.1963  0.1236 -0.7444
13837TIP3   OH263001   4.031   4.737   1.813 -0.0293 -0.0271 -0.1436
13837TIP3    H163002   4.060   4.794   1.884 -0.0334 -1.2708  0.8816
13837TIP3    H263003   4.039   4.648   1.849 -0.2644 -0.6562 -1.6171
13838TIP3   OH263004   1.802   5.951   2.496  0.0016 -0.1870 -0.5753
13838TIP3    H163005   1.718   5.993   2.476 -0.1269 -0.2147 -0.0830
13838TIP3    H263006   1.868   6.009   2.458 -0.2222 -0.0138 -0.6956
13839TIP3   OH263007   0.005   6.363   1.172 -0.1793  0.2831 -0.2942
13839TIP3    H163008  -0.008   6.269   1.160 -0.4785  0.4522 -1.4372
13839TIP3    H263009  -0.023   6.380   1.262 -2.0411 -0.4042 -0.7119
13840TIP3   OH263010   6.532   5.247   5.195 -0.0343 -0.2835 -0.0687
13840TIP3    H163011   6.591   5.299   5.140 -0.2305  0.2180  0.1889
13840TIP3    H263012   6.445   5.282   5.177 -0.0292  0.3224  1.0417
13841TIP3   OH263013   3.438   1.869  15.147 -0.0230 -0.2587 -0.1314
13841TIP3    H163014   3.489   1.919  15.083  0.5118  0.9226  1.1977
13841TIP3    H263015   3.351   1.908  15.145  0.2463  0.3861  0.5160
13842TIP3   OH263016   4.313   3.777   2.453 -0.9268  0.3611 -0.1595
13842TIP3    H163017   4.243   3.801   2.392 -0.7384 -0.8332 -0.8539
13842TIP3    H263018   4.359   3.705   2.410 -0.7101 -0.4139  1.3413
13843TIP3   OH263019   1.098   3.120  14.981 -0.4891  0.1920  0.1094
13843TIP3    H163020   1.171   3.172  15.016 -0.1574 -0.7994  0.8956
13843TIP3    H263021   1.121   3.030  15.001 -0.2832 -0.4425 -2.6752
13844TIP3   OH263022   2.727   4.118   1.328  0.4387 -0.0774  0.1931
13844TIP3    H163023   2.682   4.103   1.410  0.3557  1.3968  0.4278
13844TIP3    H263024   2.660   4.105   1.261  0.7293 -2.2031  0.2893
13845TIP3   OH263025   5.398   1.269  12.081 -0.1927  0.0197 -0.1945
13845TIP3    H163026   5.320   1.303  12.124 -0.0875  0.9829 -0.7511
13845TIP3    H263027   5.461   1.341  12.085  0.8220 -0.9021  0.6346
13846TIP3   OH263028   0.212   1.359   3.177  0.6780 -0.3089  0.2836
13846TIP3    H163029   0.229   1.311   3.258 -1.4695 -0.3775  0.7226
13846TIP3    H263030   0.132   1.321   3.143 -0.1159  1.7741 -0.2701
13847TIP3   OH263031   6.069   3.809   6.125  0.6790 -0.0472 -0.6965
13847TIP3    H163032   6.045   3.867   6.197 -1.7553 -2.2173  0.3077
13847TIP3    H263033   6.044   3.856   6.046  0.5590  1.0717  0.0099
13848TIP3   OH263034   4.434   3.169   1.806  0.4386 -0.2881  0.1376
13848TIP3    H163035   4.473   3.089   1.769  1.9652 -0.4224  1.9629
13848TIP3    H263036   4.415   3.146   1.897 -1.8312  0.5373 -0.0970
13849TIP3   OH263037   4.892   4.872   1.849  0.6492 -0.0935 -0.4056
13849TIP3    H163038   4.847   4.838   1.927  0.3911  2.3416  0.5623
13849TIP3    H263039   4.966   4.921   1.884  0.1480  1.5948 -1.6416
13850TIP3   OH263040   3.777   4.459  13.126 -0.0215  0.0132  0.1583
13850TIP3    H163041   3.772   4.553  13.140 -0.3169 -0.0742  0.6690
13850TIP3    H263042   3.804   4.449  13.035 -2.3951  0.5937 -0.6589
13851TIP3   OH263043   6.054   1.842  14.346 -0.0553  0.5091  0.1226
13851TIP3    H163044   6.064   1.894  14.266  0.3020  0.7860  0.3453
13851TIP3    H263045   6.143   1.817  14.369 -0.3733 -1.9854 -1.1403
13852TIP3   OH263046   0.747   4.343   0.166  0.2832 -0.1363  0.4890
13852TIP3    H163047   0.823   4.394   0.139  1.9425 -2.2525  1.0336
13852TIP3    H263048   0.674   4.405   0.162  2.4249  2.6600  2.4410
13853TIP3   OH263049   6.745   5.590   3.621 -0.3398  0.4882 -0.2161
13853TIP3    H163050   6.709   5.676   3.642 -0.7165  0.5431 -1.0794
13853TIP3    H263051   6.837   5.595   3.649 -0.7463  0.6637  1.1126
13854TIP3   OH263052   2.936   2.660   3.210  0.3051  0.0548  0.1123
13854TIP3    H163053   2.847   2.691   3.190  0.2279  0.1599  0.6125
13854TIP3    H263054   2.958   2.703   3.292 -0.1481 -1.9448  1.3026
13855TIP3   OH263055   3.379   2.296  11.066 -0.1547  0.2374 -0.7648
13855TIP3    H163056   3.309   2.245  11.025 -1.7415  1.5281  0.2694
13855TIP3    H263057   3.439   2.231  11.102 -1.8747 -0.8833  0.1169
13856TIP3   OH263058   6.294   6.777  16.243 -0.1170 -0.3562  0.0449
13856TIP3    H163059   6.304   6.693  16.200 -0.1565 -0.1407 -0.3897
13856TIP3    H263060   6.349   6.837  16.192 -1.8596  0.3555 -1.0392
13857TIP3   OH263061   1.717   5.399  11.050 -0.5332  0.3376  0.2440
13857TIP3    H163062   1.694   5.326  11.107  0.3749  0.2717  0.5370
13857TIP3    H263063   1.666   5.385  10.970  0.7772 -1.4666 -0.3085
13858TIP3   OH263064   3.224   6.706   0.283 -0.2795  0.0218  0.2858
13858TIP3    H163065   3.211   6.787   0.331  1.8517 -0.0259  0.9774
13858TIP3    H263066   3.287   6.728   0.214  0.9922 -1.2414  1.0179
13859TIP3   OH263067   3.665   1.455   5.455 -0.1094  0.5368  0.5635
13859TIP3    H163068   3.690   1.363   5.463  0.0461  0.4654 -0.6079
13859TIP3    H263069   3.595   1.467   5.519  0.8340 -0.0404  1.7038
13860TIP3   OH263070   0.410   3.423   5.485  0.0449 -0.5970 -0.3741
13860TIP3    H163071   0.366   3.340   5.499 -0.5378 -0.4401 -1.2244
13860TIP3    H263072   0.342   3.480   5.448  0.2221  0.4924  0.9519
13861TIP3   OH263073   6.044   2.595   2.497 -0.5322 -0.7429  0.1666
13861TIP3    H163074   6.092   2.656   2.443  0.2477 -1.6699 -0.1999
13861TIP3    H263075   6.069   2.617   2.587 -0.1761 -0.5866  0.0289
13862TIP3   OH263076   4.898   6.723  14.609 -0.0375  0.4805 -0.3123
13862TIP3    H163077   4.929   6.753  14.694  1.3808  0.9945 -1.0003
13862TIP3    H263078   4.862   6.636  14.625 -0.1014  0.7222  0.8710
13863TIP3   OH263079   4.080   3.655  17.092  0.1162 -0.6903 -0.7855
13863TIP3    H163080   4.003   3.690  17.137 -0.2378 -2.1922 -0.2118
13863TIP3    H263081   4.123   3.601  17.158  1.7965  0.3062 -1.0226
13864TIP3   OH263082   4.171   4.823  13.915  0.2334  0.5038 -0.3448
13864TIP3    H163083   4.105   4.780  13.860 -0.0067 -1.1275  1.1566
13864TIP3    H263084   4.128   4.833  14.000  1.4809  0.5944  0.2832
13865TIP3   OH263085   2.313   4.945   6.487  0.2057  0.1257  0.7279
13865TIP3    H163086   2.356   4.868   6.449  0.6381  1.1517 -0.9575
13865TIP3    H263087   2.383   4.991   6.534  0.9556  1.6443 -1.7728
13866TIP3   OH263088   2.736   0.035   4.707 -0.4260  0.3721  0.1795
13866TIP3    H163089   2.662  -0.005   4.752 -1.0050  1.4134  0.1574
13866TIP3    H263090   2.728   0.004   4.617  1.2628 -2.4709  0.9169
13867TIP3   OH263091   3.663   5.234   2.924  0.8984 -0.2719 -0.0359
13867TIP3    H163092   3.601   5.180   2.972 -2.2764 -0.0183 -3.6144
13867TIP3    H263093   3.622   5.321   2.922  2.8042  0.6536  0.0536
13868TIP3   OH263094   0.278   5.096   2.403 -0.0271  0.7117  0.2936
13868TIP3    H163095   0.255   5.181   2.364  1.1052  0.6678 -0.4924
13868TIP3    H263096   0.327   5.119   2.482 -0.8936  0.7938  0.8093
13869TIP3   OH263097   2.874   5.870   2.797  0.5342  0.6276 -0.1955
13869TIP3    H163098   2.918   5.844   2.716  0.9650  1.1435 -0.1363
13869TIP3    H263099   2.897   5.802   2.860 -0.9922 -0.5393 -0.8888
13870TIP3   OH263100   0.050   1.541  11.094  0.0400 -0.2940 -0.1481
13870TIP3    H163101   0.055   1.529  11.189 -0.5152 -1.3293 -0.2456
13870TIP3    H263102   0.140   1.531  11.064 -0.2294 -3.4757 -0.1185
13871TIP3   OH263103   3.171   4.551   3.238 -0.0629 -0.4374 -0.0508
13871TIP3    H163104   3.241   4.560   3.303 -0.7387  0.2224  0.6058
13871TIP3    H263105   3.092   4.579   3.285 -1.0517 -2.7752 -0.2476
13872TIP3   OH263106   1.805   2.497   3.800  0.3602  0.2310 -0.2445
13872TIP3    H163107   1.757   2.577   3.777 -0.8124 -0.5696 -0.6079
13872TIP3    H263108   1.844   2.516   3.886  1.5883  1.8439 -1.1185
13873TIP3   OH263109   1.386   3.903  14.751 -0.2409 -0.1995 -0.3575
13873TIP3    H163110   1.443   3.980  14.760 -1.5220  0.8730 -1.1848
13873TIP3    H263111   1.388   3.882  14.657  2.0740 -2.7334  0.2291
13874TIP3   OH263112   0.624   5.616  13.536  0.0343 -0.3873  0.6149
13874TIP3    H163113   0.608   5.683  13.602  1.0892 -0.0611  0.5361
13874TIP3    H263114   0.718   5.616  13.523 -0.0107 -1.5053  0.2117
13875TIP3   OH263115   2.105   2.900   2.762  0.2610 -0.5919 -0.0116
13875TIP3    H163116   2.043   2.907   2.834 -1.0981  0.9359 -1.2873
13875TIP3    H263117   2.093   2.980   2.711  1.0745 -1.6784 -2.0085
13876TIP3   OH263118   5.713   6.034   1.792 -0.3702  0.0433 -0.0208
13876TIP3    H163119   5.782   5.976   1.823 -1.2675 -0.7142  0.5761
13876TIP3    H263120   5.738   6.055   1.701  0.3223 -0.6926  0.0001
13877TIP3   OH263121   1.292   0.377  14.664 -0.0177 -0.0824  0.1210
13877TIP3    H163122   1.248   0.448  14.617 -0.1362 -0.1388  0.1450
13877TIP3    H263123   1.249   0.375  14.749 -0.0564 -0.2224  0.0983
13878TIP3   OH263124   2.291   0.034   4.416 -0.8427  0.1884  1.2221
13878TIP3    H163125   2.199   0.027   4.440 -0.9669 -1.2180  0.4608
13878TIP3    H263126   2.331  -0.047   4.450 -0.2185  0.0673  0.2454
13879TIP3   OH263127   0.286   2.981   4.929  0.0830 -0.6521 -0.2719
13879TIP3    H163128   0.292   2.920   4.856  0.3349  1.8445 -2.3905
13879TIP3    H263129   0.208   3.033   4.910  1.1033  1.1287  0.3808
13880TIP3   OH263130   2.761   1.161  12.919  0.3385 -0.0717  0.3358
13880TIP3    H163131   2.739   1.086  12.865 -1.6015  0.7615 -0.0926
13880TIP3    H263132   2.758   1.236  12.859  0.3465  0.5817  1.1346
13881TIP3   OH263133   3.873   2.666  13.779 -0.5225  0.0519  0.4738
13881TIP3    H163134   3.900   2.643  13.689 -3.0650 -0.3685 -0.2275
13881TIP3    H263135   3.901   2.591  13.832  0.6085  0.1066 -0.0234
13882TIP3   OH263136   4.920   4.901  12.823 -0.3483  0.7191  0.8127
13882TIP3    H163137   4.844   4.925  12.876 -0.7784 -1.3021  1.1658
13882TIP3    H263138   4.884   4.853  12.749  0.4495  1.4657 -0.0804
13883TIP3   OH263139   3.724   2.459  16.775 -0.1453  0.1650  0.1146
13883TIP3    H163140   3.663   2.484  16.844  0.8074 -0.9415  1.3734
13883TIP3    H263141   3.738   2.540  16.725 -0.6962  1.0225  1.3252
13884TIP3   OH263142   4.698   1.317   0.403  0.6009 -0.0419  0.3034
13884TIP3    H163143   4.699   1.388   0.340  0.6064  0.4163  0.8123
13884TIP3    H263144   4.780   1.270   0.388  0.7927  0.3115  0.2463
13885TIP3   OH263145   1.160   4.620  15.042  0.1153  0.1834 -0.3180
13885TIP3    H163146   1.105   4.697  15.029  1.0386  0.5400 -2.3059
13885TIP3    H263147   1.130   4.557  14.977 -1.6132 -1.7413  2.2473
13886TIP3   OH263148   3.566   5.895   1.694  0.0271  0.1337 -0.4505
13886TIP3    H163149   3.650   5.929   1.664 -0.9906  1.0109 -2.3989
13886TIP3    H263150   3.565   5.803   1.666 -0.1029  0.4191 -1.3897
13887TIP3   OH263151   0.922   3.454  13.190 -0.1707  0.0150  0.2240
13887TIP3    H163152   0.966   3.424  13.269  2.3945 -1.6132 -1.7513
13887TIP3    H263153   0.944   3.389  13.123 -2.6069  1.1197 -1.7484
13888TIP3   OH263154   2.808   0.316  12.491 -0.2341  0.1396 -0.6743
13888TIP3    H163155   2.854   0.234  12.474  0.7079  0.6283 -0.5009
13888TIP3    H263156   2.753   0.329  12.414  0.8606  0.1919 -1.4625
13889TIP3   OH263157   4.106   0.231   2.422 -0.0260 -0.1936  0.3195
13889TIP3    H163158   4.033   0.173   2.402 -0.2929 -0.1801  1.2319
13889TIP3    H263159   4.079   0.278   2.500  0.6406  0.3786  0.2127
13890TIP3   OH263160   1.061   0.432   0.088  0.2198 -0.2741  0.5335
13890TIP3    H163161   1.125   0.501   0.072  0.3522 -0.5725 -0.2364
13890TIP3    H263162   1.090   0.359   0.033 -2.5862  0.7030 -2.3959
13891TIP3   OH263163   3.534   4.985   4.764 -0.0051 -0.0084  0.5938
13891TIP3    H163164   3.464   4.923   4.786  0.1953 -0.2474  0.5672
13891TIP3    H263165   3.614   4.935   4.778  0.1129 -0.3145 -1.1110
13892TIP3   OH263166   5.255   6.426  13.351 -0.4264 -0.1859  0.0017
13892TIP3    H163167   5.256   6.349  13.408  0.4508 -1.1692 -1.3060
13892TIP3    H263168   5.225   6.393  13.266  2.5008  0.3353 -1.2994
13893TIP3   OH263169   1.061   6.124   2.973 -0.3122 -0.0996 -0.2574
13893TIP3    H163170   1.018   6.182   2.910 -0.9762 -0.9391 -0.5871
13893TIP3    H263171   1.002   6.048   2.980 -0.1095 -0.1339  1.1667
13894TIP3   OH263172   4.485   3.016  15.745 -0.0531 -0.1056  0.7425
13894TIP3    H163173   4.446   2.929  15.745  1.4053 -0.7796 -1.2564
13894TIP3    H263174   4.425   3.069  15.798 -1.1452 -2.2192  1.6702
13895TIP3   OH263175   1.898   0.969   4.820  0.2841 -0.4339  0.4392
13895TIP3    H163176   1.899   0.880   4.855  2.0880  0.0431  1.6714
13895TIP3    H263177   1.902   1.026   4.897  2.3471  0.6723 -0.4306
13896TIP3   OH263178   1.528   6.140   2.079  0.1023 -0.5433 -0.1642
13896TIP3    H163179   1.601   6.153   2.019  0.5312 -0.0493  0.4450
13896TIP3    H263180   1.450   6.162   2.028  0.4008 -0.8163 -0.7401
13897TIP3   OH263181   4.800   4.290  13.924 -0.1945  0.3492 -0.4399
13897TIP3    H163182   4.760   4.294  13.837 -2.1379 -0.3527  0.3844
13897TIP3    H263183   4.894   4.299  13.908 -0.6021  1.2543 -2.5153
13898TIP3   OH263184   5.961   4.120   0.538  0.1552  0.1961  0.3835
13898TIP3    H163185   6.025   4.088   0.475 -0.3743 -0.3802  0.1293
13898TIP3    H263186   5.939   4.208   0.507 -1.3630 -0.7156 -1.2309
13899TIP3   OH263187   0.579   4.074  11.882  0.3120 -0.3166  0.9747
13899TIP3    H163188   0.507   4.056  11.821  1.0826 -1.1709  0.3115
13899TIP3    H263189   0.571   4.008  11.949 -1.0692  1.1561  2.3040
13900TIP3   OH263190   5.037   0.679  11.323  0.5115  0.0083  0.0146
13900TIP3    H163191   4.987   0.631  11.389  0.6808  1.1305  0.9728
13900TIP3    H263192   5.103   0.617  11.292 -1.3576 -1.4571 -1.1753
13901TIP3   OH263193   3.748   6.723  14.324  0.0613 -0.3224  0.0719
13901TIP3    H163194   3.784   6.807  14.355 -0.8859 -0.5690  1.8958
13901TIP3    H263195   3.825   6.668  14.309  0.6435  0.5746 -0.2662
13902TIP3   OH263196   5.811   2.081  16.184  0.3450 -0.2664  0.0588
13902TIP3    H163197   5.834   2.164  16.142 -1.0147  0.5319  0.8445
13902TIP3    H263198   5.717   2.088  16.199 -0.2338 -2.9068 -1.9513
13903TIP3   OH263199   0.483   2.807  13.736 -0.0298 -0.3718 -0.0505
13903TIP3    H163200   0.464   2.893  13.774  2.9757  0.7670 -1.0268
13903TIP3    H263201   0.412   2.794  13.673  1.0159  2.7408 -2.0075
13904TIP3   OH263202   4.215   5.292  15.509  0.1579 -0.0847 -0.3844
13904TIP3    H163203   4.247   5.314  15.596 -2.5255 -1.0008  0.8790
13904TIP3    H263204   4.248   5.204  15.493  0.6802  0.0964 -0.3194
13905TIP3   OH263205   1.450   4.581   2.512 -0.4938  0.1643  0.0003
13905TIP3    H163206   1.505   4.638   2.565 -2.2310  0.6562  1.3489
13905TIP3    H263207   1.480   4.493   2.531  3.2878  0.5877 -3.3085
13906TIP3   OH263208   0.988   0.720   6.455  0.5042  0.1777  0.6242
13906TIP3    H163209   0.911   0.747   6.505  0.9102 -1.1278  1.9894
13906TIP3    H263210   0.952   0.684   6.373 -0.2151  1.4242  0.3771
13907TIP3   OH263211   5.145   1.692  13.178  0.5388 -0.6122 -0.1138
13907TIP3    H163212   5.062   1.735  13.195  0.4824 -0.6585 -0.2714
13907TIP3    H263213   5.149   1.622  13.243 -0.1919 -1.4973 -1.0118
13908TIP3   OH263214   0.804   3.807  13.836 -0.2739  0.5569  0.0101
13908TIP3    H163215   0.809   3.889  13.885 -1.1899  0.5791  0.0675
13908TIP3    H263216   0.844   3.742  13.895  0.5275  0.9652 -0.0696
13909TIP3   OH263217   6.159   1.507   4.047  0.5999  0.0739 -0.1028
13909TIP3    H163218   6.174   1.513   4.141  0.6815  0.5921 -0.1476
13909TIP3    H263219   6.084   1.564   4.031  0.3867 -0.2627 -0.3054
13910TIP3   OH263220   5.098   3.253   0.858  0.4832  0.2968  0.3547
13910TIP3    H163221   5.081   3.189   0.927  0.9186 -1.0373 -0.7428
13910TIP3    H263222   5.012   3.283   0.830  0.2414 -0.3833  0.3613
13911TIP3   OH263223   4.880   5.597   0.051  0.5845  0.1837 -0.3411
13911TIP3    H163224   4.889   5.639  -0.035  0.7464 -1.3679 -1.0977
13911TIP3    H263225   4.807   5.536   0.040  0.2111  0.4179  0.8096
13912TIP3   OH263226   6.523   0.726   4.692  0.2727  0.2747 -0.1241
13912TIP3    H163227   6.578   0.775   4.752  1.0345  0.4539 -0.9641
13912TIP3    H263228   6.535   0.634   4.717 -1.7253  0.5267  1.9282
13913TIP3   OH263229   0.605   5.119   5.389  0.0545  0.4643 -0.2256
13913TIP3    H163230   0.664   5.044   5.398  0.4004  0.7949  0.3207
13913TIP3    H263231   0.585   5.123   5.296 -0.0264 -0.3527 -0.2507
13914TIP3   OH263232   1.058   4.198   2.388 -0.3996 -0.5033 -0.2498
13914TIP3    H163233   1.110   4.169   2.312 -0.1295 -0.3592 -0.1206
13914TIP3    H263234   1.117   4.254   2.437 -1.2514  1.0842 -1.0208
13915TIP3   OH263235   5.510   3.735   4.813  0.3293 -0.1102 -0.0225
13915TIP3    H163236   5.578   3.687   4.859  0.1944 -0.7741 -0.5129
13915TIP3    H263237   5.558   3.793   4.753  0.4896  0.3631  0.5614
13916TIP3   OH263238   3.518   1.437   6.681  0.5225  0.0554  0.2184
13916TIP3    H163239   3.510   1.349   6.716 -0.7213  0.0786  0.0169
13916TIP3    H263240   3.429   1.461   6.654  0.9355  1.1639 -0.2178
13917TIP3   OH263241   2.780   6.522   4.444 -0.1537 -0.4229 -0.4478
13917TIP3    H163242   2.705   6.494   4.391 -1.0709 -1.8798  1.5599
13917TIP3    H263243   2.849   6.459   4.422  0.3952  0.6688 -1.9800
13918TIP3   OH263244   1.401   2.467   2.128 -0.1788 -0.1417  0.4159
13918TIP3    H163245   1.440   2.549   2.099 -0.5206 -0.4629 -0.9529
13918TIP3    H263246   1.316   2.464   2.085  0.0618 -1.4749  0.0218
13919TIP3   OH263247   3.686   2.743  14.668  0.1087 -0.1798  0.1670
13919TIP3    H163248   3.624   2.671  14.656  0.8417 -0.7838 -0.0187
13919TIP3    H263249   3.632   2.822  14.664 -0.6737 -0.7061  0.1858
13920TIP3   OH263250   6.321   2.899   5.820 -0.2648 -0.3277  0.2324
13920TIP3    H163251   6.374   2.944   5.887  1.8094 -3.2781  0.6717
13920TIP3    H263252   6.386   2.864   5.759 -1.8803 -1.9860 -0.5510
13921TIP3   OH263253   2.451   5.255   3.805  0.1141 -0.7634 -0.1189
13921TIP3    H163254   2.368   5.302   3.815 -0.4989 -1.5451 -1.2868
13921TIP3    H263255   2.432   5.166   3.832  0.3086 -1.1786 -1.3196
13922TIP3   OH263256   5.861   1.318   6.371 -1.4030 -0.1423  0.5254
13922TIP3    H163257   5.897   1.400   6.339 -2.0027 -0.3587 -0.7447
13922TIP3    H263258   5.932   1.255   6.362 -1.6307 -0.2467 -0.5944
13923TIP3   OH263259   2.805   4.065   5.526 -0.0736  0.5983 -0.7564
13923TIP3    H163260   2.858   3.987   5.538 -0.5871  0.2425 -0.7979
13923TIP3    H263261   2.863   4.128   5.483  1.3852  1.4275  2.2948
13924TIP3   OH263262   4.989   3.052   3.969 -0.4347  0.1292  0.0863
13924TIP3    H163263   5.024   3.127   3.921 -1.0633 -0.8004 -1.8436
13924TIP3    H263264   4.947   3.090   4.046 -1.4928  1.8096 -1.3119
13925TIP3   OH263265   5.934   1.576  14.746 -0.0915 -0.6479  0.3863
13925TIP3    H163266   5.898   1.641  14.686  1.2475 -1.4808 -1.3768
13925TIP3    H263267   6.009   1.619  14.786  0.4692 -0.9204 -0.3705
13926TIP3   OH263268   1.649   5.412   6.468  0.0163  0.4970  0.0691
13926TIP3    H163269   1.624   5.374   6.384 -0.2037 -0.2057  0.4518
13926TIP3    H263270   1.667   5.504   6.448 -0.6272  0.4763 -0.6339
13927TIP3   OH263271   3.450   2.255   4.132 -0.7027  0.3080 -0.3883
13927TIP3    H163272   3.478   2.328   4.077 -0.8563  0.6489 -0.0204
13927TIP3    H263273   3.460   2.178   4.077  0.5031  0.4780 -0.4145
13928TIP3   OH263274   4.233   1.519   3.997  0.5276  0.0118 -0.3992
13928TIP3    H163275   4.196   1.431   3.989 -0.4049  0.1451  1.9155
13928TIP3    H263276   4.157   1.577   3.997  1.0107  0.6472  0.1335
13929TIP3   OH263277   2.750   5.670  10.825  0.2566  0.2528  1.0293
13929TIP3    H163278   2.689   5.721  10.878  0.2506 -0.2232  1.4849
13929TIP3    H263279   2.762   5.588  10.874 -0.1743 -0.4202  0.0133
13930TIP3   OH263280   3.802   3.699  13.447  0.2119 -0.2910 -0.7006
13930TIP3    H163281   3.809   3.638  13.520  1.2100  0.4044 -0.2023
13930TIP3    H263282   3.708   3.710  13.434  0.0229 -0.3833  0.5133
13931TIP3   OH263283   5.337   2.882   3.533  0.1398  0.3961  0.0299
13931TIP3    H163284   5.414   2.833   3.562 -1.2943 -2.4236 -0.7270
13931TIP3    H263285   5.369   2.934   3.459  1.6294  0.2882  0.5797
13932TIP3   OH263286   1.093   1.021  14.159  0.1755 -0.6146 -0.4860
13932TIP3    H163287   1.145   1.078  14.103 -0.6893 -0.8722 -1.5672
13932TIP3    H263288   1.152   0.949  14.180  0.8246 -0.0170 -0.2486
13933TIP3   OH263289   0.200   3.470  16.784  0.5437  0.0783 -0.3452
13933TIP3    H163290   0.180   3.381  16.814  0.5915  0.3718  0.5921
13933TIP3    H263291   0.295   3.475  16.787  0.5904 -0.1706 -1.3893
13934TIP3   OH263292   3.595   6.519   6.684 -0.2253 -0.2882  0.7716
13934TIP3    H163293   3.520   6.570   6.656  0.3508  0.3971  0.4696
13934TIP3    H263294   3.605   6.540   6.777 -1.2336 -1.4334  1.1572
13935TIP3   OH263295   4.510   1.546  17.141 -0.1117 -0.4129  0.5197
13935TIP3    H163296   4.526   1.616  17.205  1.7604 -0.3342 -0.0056
13935TIP3    H263297   4.428   1.570  17.099 -2.0651 -1.1496  3.7945
13936TIP3   OH263298   0.300   6.681  14.799 -0.1044 -0.6211  0.0821
13936TIP3    H163299   0.386   6.666  14.760  0.4412  0.3249  0.9032
13936TIP3    H263300   0.238   6.657  14.730  0.8365  1.6105 -1.5935
13937TIP3   OH263301   4.117   4.848   5.332 -0.0400 -0.2543 -0.7900
13937TIP3    H163302   4.189   4.892   5.377 -2.1680  3.6141 -0.9326
13937TIP3    H263303   4.083   4.786   5.396  0.5946  1.0854  0.8956
13938TIP3   OH263304   2.130   4.323  16.650  0.0151  0.4734 -0.7655
13938TIP3    H163305   2.136   4.378  16.572  0.5298  0.2576 -0.8837
13938TIP3    H263306   2.101   4.382  16.719  0.6098  0.9059 -0.8842
13939TIP3   OH263307   5.920   2.664  16.115 -0.0250  0.2199  0.0016
13939TIP3    H163308   5.903   2.639  16.024  1.4301  1.3139 -0.5846
13939TIP3    H263309   5.923   2.760  16.114  2.0404  0.1842  0.8086
13940TIP3   OH263310   2.123   0.504  12.667  0.0092  0.3882 -0.0317
13940TIP3    H163311   2.038   0.538  12.639 -0.5652 -1.1178 -0.1611
13940TIP3    H263312   2.186   0.542  12.605 -0.8921 -0.5204 -1.5356
13941TIP3   OH263313   5.668   4.818   3.532 -0.5262  0.1227 -0.3395
13941TIP3    H163314   5.619   4.900   3.537  0.2062  0.7279 -2.4537
13941TIP3    H263315   5.603   4.752   3.509 -0.8613  0.3708 -0.1153
13942TIP3   OH263316   2.346   2.804   0.614  0.0968 -0.8018 -0.1760
13942TIP3    H163317   2.321   2.791   0.706  0.4604 -0.9210 -0.0932
13942TIP3    H263318   2.420   2.865   0.618  0.6821 -1.4989 -0.3336
13943TIP3   OH263319   0.763   3.814  11.671  0.1426  0.4572  0.1266
13943TIP3    H163320   0.748   3.895  11.622  0.1889  0.4422  0.0873
13943TIP3    H263321   0.749   3.839  11.763 -2.4201 -0.0881 -0.0796
13944TIP3   OH263322   0.026   2.884  14.892  0.1270  0.3074 -0.1838
13944TIP3    H163323   0.035   2.975  14.864  0.1805  0.3046 -0.1751
13944TIP3    H263324  -0.066   2.876  14.918 -0.4640 -0.2415 -2.3181
13945TIP3   OH263325   4.571   1.792  11.781  0.2994 -0.0471 -0.0368
13945TIP3    H163326   4.509   1.864  11.784  1.5150  0.9527  2.6592
13945TIP3    H263327   4.542   1.732  11.850  1.9189  0.1335  0.8250
13946TIP3   OH263328   2.166   6.452  15.323 -0.3554  0.0210 -0.0388
13946TIP3    H163329   2.106   6.382  15.298  0.3234 -0.4137 -0.4662
13946TIP3    H263330   2.234   6.451  15.256 -0.6760  1.5125 -0.4146
13947TIP3   OH263331   2.820   2.493   1.769 -0.3978  0.5895 -0.1313
13947TIP3    H163332   2.812   2.568   1.829  0.4522  1.4420 -1.0667
13947TIP3    H263333   2.766   2.517   1.694 -0.2132  0.2202 -0.3814
13948TIP3   OH263334   2.517   5.291   1.496  0.0802 -0.3256 -0.1133
13948TIP3    H163335   2.586   5.267   1.433  1.3443 -0.0323  1.1324
13948TIP3    H263336   2.515   5.387   1.493  3.0873 -0.0371  3.2764
13949TIP3   OH263337   2.284   4.253   0.894  0.0260 -0.1713 -0.2899
13949TIP3    H163338   2.367   4.300   0.909 -0.2366  0.4157 -0.6280
13949TIP3    H263339   2.266   4.266   0.801 -0.3843 -0.3955 -0.2430
13950TIP3   OH263340   4.237   4.157   1.918 -0.4394  0.1906  0.3287
13950TIP3    H163341   4.249   4.065   1.896  0.7112  0.0842  1.2988
13950TIP3    H263342   4.283   4.205   1.849 -1.4623  0.0720 -0.4508
13951TIP3   OH263343   3.024   1.614   5.088 -0.3235 -0.7428  0.4314
13951TIP3    H163344   2.986   1.701   5.094 -0.9729 -1.0099  0.1695
13951TIP3    H263345   3.118   1.630   5.076 -0.2200 -0.0951  1.9188
13952TIP3   OH263346   4.874   6.140  11.196  0.0621  0.3473  0.4724
13952TIP3    H163347   4.814   6.135  11.270 -0.5996  1.1090  0.0038
13952TIP3    H263348   4.953   6.180  11.232  0.0620 -0.0944  0.9590
13953TIP3   OH263349   1.784   1.527   0.029 -0.4509 -0.3954  0.2552
13953TIP3    H163350   1.804   1.543  -0.063  0.4051  1.0037  0.6711
13953TIP3    H263351   1.693   1.555   0.039 -0.0897  0.8471  0.1507
13954TIP3   OH263352   0.085   3.004  16.479 -0.3197 -0.2783  0.2574
13954TIP3    H163353   0.054   3.045  16.398  0.2449  0.0073  0.1808
13954TIP3    H263354   0.141   3.071  16.519  1.3674 -1.3008 -0.3441
13955TIP3   OH263355   6.185   4.233  10.688  0.3414  0.3525  0.7837
13955TIP3    H163356   6.214   4.142  10.674 -2.4243 -0.4838  0.2884
13955TIP3    H263357   6.244   4.266  10.756  0.5270 -2.2483  1.9506
13956TIP3   OH263358   1.616   5.645   6.018  0.3203  0.2224  0.1418
13956TIP3    H163359   1.529   5.607   6.025  0.1950  0.8901  3.0341
13956TIP3    H263360   1.672   5.574   5.989 -0.7344 -0.8917  0.8128
13957TIP3   OH263361   5.243   0.754   3.599  0.5474 -0.2454  0.1877
13957TIP3    H163362   5.281   0.832   3.640  0.4641  0.1878 -0.5533
13957TIP3    H263363   5.261   0.765   3.506 -2.1192  0.3743 -0.2973
13958TIP3   OH263364   3.607   2.433  13.897  0.2696 -0.1605  0.0497
13958TIP3    H163365   3.522   2.394  13.916  0.1501  0.2552  0.3771
13958TIP3    H263366   3.592   2.487  13.819 -0.4355  2.1199  1.7196
13959TIP3   OH263367   6.254   2.188  11.597 -0.1235 -0.3531  0.0302
13959TIP3    H163368   6.306   2.267  11.583 -0.7894 -0.0757 -0.9001
13959TIP3    H263369   6.182   2.195  11.534 -0.3995 -1.5109  0.2109
13960TIP3   OH263370   3.157   1.854  14.153 -0.1037 -0.2407 -0.9506
13960TIP3    H163371   3.186   1.800  14.227  0.1333 -0.2082 -1.0212
13960TIP3    H263372   3.237   1.874  14.105 -0.0255  1.1740 -0.2621
13961TIP3   OH263373   1.083   6.306   0.483 -0.5640  0.5332 -0.4016
13961TIP3    H163374   1.017   6.286   0.416  0.6076 -2.4634 -0.7275
13961TIP3    H263375   1.041   6.283   0.565 -0.0709 -1.0026 -0.5758
13962TIP3   OH263376   2.410   3.518  14.297  0.0659  0.6107 -0.1132
13962TIP3    H163377   2.393   3.514  14.391 -0.8182  0.0462 -0.2768
13962TIP3    H263378   2.391   3.429  14.267 -0.1808  0.9322 -0.9061
13963TIP3   OH263379   1.398   1.098   5.758  0.2284  0.3511  0.1339
13963TIP3    H163380   1.339   1.105   5.833 -1.2541 -0.0296 -0.9713
13963TIP3    H263381   1.343   1.065   5.687  2.3317 -2.5932 -0.2494
13964TIP3   OH263382   1.398   4.354   0.909 -0.5010  0.4004 -0.0072
13964TIP3    H163383   1.472   4.367   0.968 -1.7911 -0.6259  1.8638
13964TIP3    H263384   1.321   4.355   0.965 -1.8237  0.1079 -1.7590
13965TIP3   OH263385   3.722   6.773  11.831  0.4059  0.3254 -0.3630
13965TIP3    H163386   3.811   6.749  11.804  1.1439  1.4623  0.9886
13965TIP3    H263387   3.712   6.864  11.802 -0.0460  0.4324  0.1291
13966TIP3   OH263388   1.510   2.268  14.459 -0.1758  0.3731  0.4428
13966TIP3    H163389   1.548   2.325  14.392  1.2698 -0.8005  0.2515
13966TIP3    H263390   1.462   2.202  14.410 -0.2940  0.3325  0.6121
13967TIP3   OH263391   4.309   1.503  14.012 -0.2967 -0.3850  0.0268
13967TIP3    H163392   4.311   1.453  14.093  2.0616 -0.1391  0.1460
13967TIP3    H263393   4.386   1.560  14.017 -0.2374 -0.2250 -2.2842
13968TIP3   OH263394   2.258   0.711   4.749  0.7957  0.3320 -0.3685
13968TIP3    H163395   2.274   0.661   4.669  1.2187  0.1910 -0.1950
13968TIP3    H263396   2.318   0.785   4.745 -0.1970  1.1275 -0.8792
13969TIP3   OH263397   6.111   5.833  15.485  0.0465  0.4181  0.0406
13969TIP3    H163398   6.049   5.842  15.413  1.6023 -1.9426 -1.6343
13969TIP3    H263399   6.057   5.840  15.564 -2.0311  0.5216 -1.3530
13970TIP3   OH263400   6.276   0.813   3.618  0.1947  0.7648 -0.7276
13970TIP3    H163401   6.244   0.839   3.532 -1.2981 -1.2562 -0.8138
13970TIP3    H263402   6.371   0.814   3.610  0.1112  2.5944 -1.7707
13971TIP3   OH263403   6.302   0.070  15.269 -0.6159 -0.0796 -0.2606
13971TIP3    H163404   6.206   0.079  15.266 -0.6680 -0.2228  0.9461
13971TIP3    H263405   6.326   0.054  15.178 -1.7606 -0.1936 -0.5615
13972TIP3   OH263406   3.211   5.637  14.624  0.2168  0.4649  0.7798
13972TIP3    H163407   3.119   5.626  14.648 -0.1062 -0.1267 -0.6693
13972TIP3    H263408   3.224   5.732  14.625 -0.2236  0.5191  1.6577
13973TIP3   OH263409   1.097   3.884  12.554 -0.5362  0.0363 -0.6406
13973TIP3    H163410   1.077   3.952  12.618  0.9447 -0.7066  0.6257
13973TIP3    H263411   1.189   3.862  12.569  0.0348  0.2802 -3.4384
13974TIP3   OH263412   5.581   5.838  11.071  0.2487  0.1334  0.0979
13974TIP3    H163413   5.638   5.915  11.065  0.6156 -0.1364  0.0894
13974TIP3    H263414   5.598   5.789  10.991 -1.9721  1.3804 -1.1870
13975TIP3   OH263415   4.599   4.969  14.412  0.3937 -0.1340 -0.5662
13975TIP3    H163416   4.522   4.913  14.410  1.4537 -1.7050  1.2486
13975TIP3    H263417   4.672   4.910  14.428  1.8996  1.4168 -1.5065
13976TIP3   OH263418   6.768   2.729  11.861  0.2949  0.4628 -0.1128
13976TIP3    H163419   6.762   2.765  11.773 -0.8049  1.7349  0.4690
13976TIP3    H263420   6.684   2.750  11.902  1.0434  0.5148  1.4625
13977TIP3   OH263421   6.562   3.954  16.880 -0.6280 -0.5873 -0.2616
13977TIP3    H163422   6.492   4.000  16.925  1.3046  0.2674  1.9221
13977TIP3    H263423   6.639   3.964  16.936  0.5731 -3.9746 -1.1367
13978TIP3   OH263424   3.387   2.217  11.753  0.2110  0.4168 -0.0882
13978TIP3    H163425   3.471   2.200  11.710  0.1322 -0.7351  0.1977
13978TIP3    H263426   3.408   2.219  11.846  0.1039  1.2761 -0.0750
13979TIP3   OH263427   3.732   3.938  10.714 -0.1642  0.3739  0.7889
13979TIP3    H163428   3.726   3.964  10.623  1.6048  0.8993  0.7972
13979TIP3    H263429   3.668   3.992  10.760 -1.0644  0.0919 -0.1385
13980TIP3   OH263430   1.763   1.888  15.812 -0.9103  0.2873  0.2860
13980TIP3    H163431   1.813   1.947  15.755  2.6125 -0.9270  1.9485
13980TIP3    H263432   1.765   1.804  15.767  0.2733 -0.2292  1.2742
13981TIP3   OH263433   6.506   6.218  15.848 -0.6575 -0.3846 -0.2890
13981TIP3    H163434   6.530   6.302  15.808 -0.1424 -0.6742 -0.5930
13981TIP3    H263435   6.458   6.172  15.779 -1.2993 -0.1736  0.0155
13982TIP3   OH263436   4.165   5.094   6.408 -0.1107 -0.1017  0.4632
13982TIP3    H163437   4.246   5.133   6.376 -0.8448 -0.1327 -1.4686
13982TIP3    H263438   4.098   5.124   6.348 -1.3389 -1.1026  1.3003
13983TIP3   OH263439   1.758   2.439  16.223  0.0153  0.0300  0.2229
13983TIP3    H163440   1.731   2.426  16.132  1.6209  2.8422 -0.7228
13983TIP3    H263441   1.686   2.488  16.263 -1.0848 -1.9577  0.7650
13984TIP3   OH263442   2.211   5.262   4.764  0.1476 -0.7260 -0.0247
13984TIP3    H163443   2.166   5.256   4.848  1.1749  0.4510  0.6092
13984TIP3    H263444   2.286   5.319   4.780  0.4012 -0.5598 -1.7138
13985TIP3   OH263445   5.641   2.395  14.644  0.0922  0.2866 -1.0004
13985TIP3    H163446   5.649   2.490  14.648 -1.3873  0.3715  0.7322
13985TIP3    H263447   5.627   2.376  14.551 -0.6209  1.8634 -1.2348
13986TIP3   OH263448   2.674   4.065  15.744  0.1597 -0.2713 -0.0922
13986TIP3    H163449   2.580   4.075  15.754  0.1290 -2.0328  1.6631
13986TIP3    H263450   2.689   4.074  15.649 -1.6204  0.9579 -0.2858
13987TIP3   OH263451   2.123   4.138  12.429  0.2875 -0.4634  0.1166
13987TIP3    H163452   2.131   4.176  12.341  0.7437  0.2203  0.4582
13987TIP3    H263453   2.029   4.124  12.440 -0.1292  2.6196  0.8639
13988TIP3   OH263454   3.174   3.215   5.422 -0.5966  0.6175  0.3886
13988TIP3    H163455   3.266   3.213   5.395 -0.2447  0.7978  1.5399
13988TIP3    H263456   3.148   3.307   5.411 -0.7780  0.4786 -0.3745
13989TIP3   OH263457   0.619   4.471  13.665  0.1573  0.1076 -0.3702
13989TIP3    H163458   0.564   4.402  13.703 -1.8600  0.5576 -2.3506
13989TIP3    H263459   0.690   4.484  13.728 -0.4426 -2.5085  0.8740
13990TIP3   OH263460   5.298   3.622  15.144  0.4787  0.3310 -0.2552
13990TIP3    H163461   5.225   3.672  15.180 -0.4991 -0.7206 -0.7383
13990TIP3    H263462   5.301   3.646  15.052  1.1082  0.8000 -0.1145
13991TIP3   OH263463   4.074   1.933  12.728 -0.4184  0.4271 -0.4762
13991TIP3    H163464   4.016   1.857  12.737 -1.6231  1.3738 -0.1316
13991TIP3    H263465   4.135   1.908  12.659 -1.1988 -0.6099 -0.8127
13992TIP3   OH263466   1.539   6.281   5.224  0.0331 -0.0638 -0.4280
13992TIP3    H163467   1.600   6.240   5.286  2.8961  4.0000 -0.2715
13992TIP3    H263468   1.453   6.267   5.262  1.4241 -0.7058  2.6665
13993TIP3   OH263469   0.685   5.906   4.787  0.3483 -0.2827 -0.3080
13993TIP3    H163470   0.637   5.987   4.772  1.5733  0.3186 -0.9840
13993TIP3    H263471   0.631   5.838   4.747 -0.0445  0.3567 -0.8571
13994TIP3   OH263472   0.946   1.458   3.280  0.1340  0.5820  0.3629
13994TIP3    H163473   1.015   1.491   3.222 -0.9851  2.8795  0.2401
13994TIP3    H263474   0.988   1.390   3.332  2.0345  0.7729 -0.8497
13995TIP3   OH263475   2.755   5.199   2.173 -0.6726 -0.2653  0.7143
13995TIP3    H163476   2.823   5.266   2.160  0.1174 -1.1454  0.2174
13995TIP3    H263477   2.701   5.205   2.095 -0.8223  0.0397  0.8396
13996TIP3   OH263478   5.709   2.561  12.284  0.0602 -0.2304  0.5327
13996TIP3    H163479   5.746   2.617  12.352 -0.2178  1.1376 -0.4075
13996TIP3    H263480   5.649   2.619  12.236 -0.2644 -1.3486 -0.4384
13997TIP3   OH263481   4.033   1.308  12.478 -0.3520  0.2404 -0.0547
13997TIP3    H163482   3.954   1.299  12.425 -1.6779 -1.1619  2.0893
13997TIP3    H263483   4.012   1.263  12.560  2.8222 -0.4859  0.4037
13998TIP3   OH263484   2.421   3.375  12.321  0.0714  0.7510  0.0250
13998TIP3    H163485   2.331   3.388  12.291 -0.0944  0.3715  0.3513
13998TIP3    H263486   2.474   3.387  12.243 -0.3181  0.2634 -0.3179
13999TIP3   OH263487   3.410   5.697   1.156 -0.1428 -0.2980 -0.4469
13999TIP3    H163488   3.450   5.663   1.076  1.5491 -0.2121  0.3273
13999TIP3    H263489   3.430   5.631   1.223  1.2815  1.1524  0.5892
14000TIP3   OH263490   0.498   2.036   3.452 -0.1351  0.0686 -0.6637
14000TIP3    H163491   0.489   2.003   3.363 -0.5641  0.4963 -0.7806
14000TIP3    H263492   0.590   2.059   3.460 -0.1524  0.2763 -1.0830
14001TIP3   OH263493   1.600   2.482  13.027 -0.1446 -0.4661  0.2961
14001TIP3    H163494   1.679   2.534  13.009  0.9746 -2.5491 -1.0620
14001TIP3    H263495   1.634   2.397  13.056 -1.9209 -0.9502  1.0201
14002TIP3   OH263496   1.604   4.043  16.795  0.1008  0.1250 -0.5291
14002TIP3    H163497   1.574   3.964  16.838 -0.3692  0.3177 -0.4984
14002TIP3    H263498   1.548   4.113  16.830 -1.0721  0.1069 -2.2935
14003TIP3   OH263499   6.122   0.296   5.736 -0.2661 -0.5536  0.2255
14003TIP3    H163500   6.166   0.225   5.690 -0.4076 -0.5409  0.0669
14003TIP3    H263501   6.109   0.263   5.825  1.4462  0.0466  0.7016
14004TIP3   OH263502   6.416   5.725  16.957 -0.1290  0.7650  0.6048
14004TIP3    H163503   6.323   5.724  16.977 -0.5930  0.3731 -1.4342
14004TIP3    H263504   6.442   5.633  16.959  0.1736  0.8562  0.9761
14005TIP3   OH263505   1.568   5.419   1.251  0.0864 -0.3334  0.3382
14005TIP3    H163506   1.630   5.352   1.220 -0.3457 -0.2483 -0.7104
14005TIP3    H263507   1.560   5.480   1.178  1.4153  1.5455  1.7350
14006TIP3   OH263508   0.730   3.744  14.118 -0.3876  0.2009 -0.1618
14006TIP3    H163509   0.725   3.829  14.161 -0.5819  0.9077 -1.5729
14006TIP3    H263510   0.817   3.711  14.140  0.3924  1.5818 -1.1195
14007TIP3   OH263511   4.177   2.673   1.561  0.5856 -0.8516  0.1123
14007TIP3    H163512   4.087   2.687   1.589  0.8588 -1.2465  1.2146
14007TIP3    H263513   4.230   2.707   1.633  1.3279  0.0726 -0.8564
14008TIP3   OH263514   4.993   4.045   3.053 -0.2324  0.2290 -0.4240
14008TIP3    H163515   4.926   3.998   3.002 -1.1674  1.6577 -0.5322
14008TIP3    H263516   5.076   4.007   3.023 -0.9811 -1.7018 -0.1504
14009TIP3   OH263517   6.363   6.810   3.049 -0.0609 -0.7114  0.3695
14009TIP3    H163518   6.445   6.805   3.098 -0.0060  2.4909  0.7230
14009TIP3    H263519   6.388   6.842   2.963 -1.1189  2.9331  1.3032
14010TIP3   OH263520   2.752   0.748  13.023 -0.7086  0.1657 -0.7543
14010TIP3    H163521   2.689   0.675  13.029  0.1753 -0.6439 -1.2194
14010TIP3    H263522   2.697   0.827  13.021 -1.5830 -0.3021  2.7731
14011TIP3   OH263523   0.532   4.310  14.696  0.3877  0.2524  0.3884
14011TIP3    H163524   0.449   4.345  14.664  0.3474 -0.6658 -0.5373
14011TIP3    H263525   0.524   4.311  14.791 -0.8821 -0.3042  0.2881
14012TIP3   OH263526   1.673   1.038   1.029 -0.2094  0.2692  0.2313
14012TIP3    H163527   1.628   1.122   1.032 -0.3771  0.2793 -1.8074
14012TIP3    H263528   1.684   1.020   0.936 -0.3218 -2.0586  0.6350
14013TIP3   OH263529   6.185   2.670  16.150  0.3974 -0.1040 -0.2281
14013TIP3    H163530   6.216   2.581  16.132  2.1728  0.2589  0.9029
14013TIP3    H263531   6.092   2.667  16.130  0.2254 -2.5061  0.6911
14014TIP3   OH263532   5.233   2.782   5.491  0.0094 -0.6374  0.2377
14014TIP3    H163533   5.274   2.747   5.412  1.3793 -0.8009  1.0054
14014TIP3    H263534   5.248   2.876   5.487  0.5664 -0.7094  0.5709
14015TIP3   OH263535   5.600   3.161  11.455  0.2932 -0.2417 -0.2265
14015TIP3    H163536   5.642   3.080  11.428  0.0623 -0.4758  0.1057
14015TIP3    H263537   5.637   3.228  11.398  1.4660 -0.3694  0.3650
14016TIP3   OH263538   1.697   2.736   3.710 -0.4151  0.0579  0.1237
14016TIP3    H163539   1.732   2.775   3.630 -0.8142  0.3207  0.0727
14016TIP3    H263540   1.604   2.761   3.709 -1.1375 -2.5155 -0.9017
14017TIP3   OH263541   3.867   6.768  15.074  0.0782  0.2357  0.1899
14017TIP3    H163542   3.892   6.836  15.011 -0.5435 -0.5001 -0.8667
14017TIP3    H263543   3.921   6.693  15.051 -0.6582 -0.2661  0.0726
14018TIP3   OH263544   6.788   4.120   3.055 -0.6398 -0.7724  0.1141
14018TIP3    H163545   6.805   4.026   3.053  1.2800 -0.4542  0.5721
14018TIP3    H263546   6.813   4.150   2.967 -1.6208 -0.7448 -0.1585
14019TIP3   OH263547   3.700   4.588   1.439 -0.2933 -0.0591 -0.4306
14019TIP3    H163548   3.647   4.658   1.476 -0.5644 -0.1034 -0.7259
14019TIP3    H263549   3.657   4.567   1.356 -1.3925 -1.9504  0.5769
14020TIP3   OH263550   3.196   1.132   0.729 -0.6790  0.0604  0.5666
14020TIP3    H163551   3.172   1.072   0.658 -0.1862  0.8150 -0.2491
14020TIP3    H263552   3.113   1.172   0.756 -0.5575  1.8226 -1.4810
14021TIP3   OH263553   3.347   2.281   1.306 -0.4092 -0.1196 -0.1436
14021TIP3    H163554   3.406   2.220   1.351  0.0508  1.5211  1.5678
14021TIP3    H263555   3.265   2.274   1.355 -0.9526 -0.7599 -1.1381
14022TIP3   OH263556   4.588   0.246  13.450 -0.2090  0.6508 -0.0878
14022TIP3    H163557   4.505   0.260  13.403 -1.8195  0.1045  2.4555
14022TIP3    H263558   4.574   0.288  13.535  1.2714 -1.3958  1.2169
14023TIP3   OH263559   4.491   3.608  16.480 -0.1566 -0.3434  0.0129
14023TIP3    H163560   4.444   3.683  16.517 -0.8307 -0.9566  0.4253
14023TIP3    H263561   4.513   3.554  16.557  0.1317 -0.6639 -0.2988
14024TIP3   OH263562   0.836   3.649  10.704  0.4001 -0.1465 -0.4409
14024TIP3    H163563   0.929   3.632  10.719  0.5245 -0.5623 -1.6328
14024TIP3    H263564   0.816   3.725  10.758  1.3747 -0.2069  0.0098
14025TIP3   OH263565   4.993   6.058  13.636  0.2277  0.4620 -0.2308
14025TIP3    H163566   4.982   5.970  13.672 -0.3280  0.9408  0.7851
14025TIP3    H263567   4.989   6.116  13.712 -0.1479  1.4206 -0.9683
14026TIP3   OH263568   5.606   2.098   4.230  0.2640 -0.3946 -0.1114
14026TIP3    H163569   5.596   2.073   4.322  0.3701 -0.9087 -0.2379
14026TIP3    H263570   5.553   2.034   4.182  1.3133 -0.9631 -0.5133
14027TIP3   OH263571   0.943   5.676  13.015 -0.2415 -0.2481  0.3408
14027TIP3    H163572   0.858   5.712  12.991 -0.2681 -0.9124 -0.6347
14027TIP3    H263573   0.939   5.584  12.987  1.1551 -0.0221 -0.6788
14028TIP3   OH263574   3.120   3.917  15.451  0.3430  0.4563 -0.4135
14028TIP3    H163575   3.178   3.866  15.508  1.0268 -0.0905 -1.5962
14028TIP3    H263576   3.117   3.868  15.369 -0.1883  1.5449 -1.0539
14029TIP3   OH263577   0.940   0.351   5.459 -0.2403  0.2247  0.3338
14029TIP3    H163578   0.948   0.258   5.480 -1.4544  0.0232 -0.0537
14029TIP3    H263579   1.024   0.389   5.487  0.4954 -1.0777 -0.0416
14030TIP3   OH263580   5.138   6.584  14.566  0.1246 -0.4438  0.0234
14030TIP3    H163581   5.071   6.649  14.583  1.4715  0.6226  1.3989
14030TIP3    H263582   5.160   6.549  14.652  0.9419 -1.1549 -0.4634
14031TIP3   OH263583   4.704   3.446  13.411  0.0297 -0.1518 -0.1887
14031TIP3    H163584   4.685   3.519  13.351 -1.6097  0.0940  0.6085
14031TIP3    H263585   4.674   3.477  13.497 -0.7721 -1.8074  0.1429
14032TIP3   OH263586   4.066   4.047   5.596 -0.2105  0.0119  0.3885
14032TIP3    H163587   4.063   4.121   5.655  1.7033 -0.9913  1.7774
14032TIP3    H263588   4.137   4.068   5.535 -0.2335 -0.2884  0.2592
14033TIP3   OH263589   2.781   0.385   1.917  0.0104 -0.0930 -0.0563
14033TIP3    H163590   2.699   0.338   1.899 -0.4046  0.8724 -0.7764
14033TIP3    H263591   2.783   0.394   2.012  0.2646 -1.8508  0.1277
14034TIP3   OH263592   3.022   0.215  10.654 -0.1717 -0.8180 -0.3255
14034TIP3    H163593   3.077   0.293  10.651 -0.1151 -0.7233  2.0913
14034TIP3    H263594   3.082   0.143  10.634  0.3931 -0.5040  0.1965
14035TIP3   OH263595   2.786   5.898  13.249 -0.4628  0.1155 -0.6109
14035TIP3    H163596   2.696   5.884  13.278 -0.7510 -0.1549 -1.6026
14035TIP3    H263597   2.781   5.893  13.154  0.7435 -0.8049 -0.6429
14036TIP3   OH263598   6.398   1.796   6.111  0.4325  0.6542  0.5763
14036TIP3    H163599   6.377   1.777   6.202  0.8392 -3.1263 -0.0428
14036TIP3    H263600   6.472   1.739   6.090  1.1632  2.3449 -1.7934
14037TIP3   OH263601   6.501   4.614  12.421 -0.3080 -0.0427 -0.6646
14037TIP3    H163602   6.441   4.558  12.370 -0.2390 -1.6577  0.9699
14037TIP3    H263603   6.445   4.656  12.485 -0.2537  1.3272 -1.5007
14038TIP3   OH263604   0.958   2.380  11.329 -0.1855 -0.0113 -0.2549
14038TIP3    H163605   0.962   2.459  11.274  1.1887  0.0803 -0.0413
14038TIP3    H263606   0.928   2.412  11.414  0.4478  0.3062 -0.1456
14039TIP3   OH263607   3.529   5.539  16.286 -0.0624 -0.2402  0.3577
14039TIP3    H163608   3.618   5.514  16.313 -0.0411 -0.2059  0.3202
14039TIP3    H263609   3.542   5.618  16.234 -0.1109 -0.2599  0.3181
14040TIP3   OH263610   3.246   4.959   4.536  0.2986  0.2120  0.4692
14040TIP3    H163611   3.156   4.927   4.538 -0.4055  2.0542  0.0301
14040TIP3    H263612   3.236   5.054   4.522  2.3929 -0.1652 -4.2515
14041TIP3   OH263613   6.335   5.135   0.905 -0.6352 -0.3609  0.3781
14041TIP3    H163614   6.274   5.209   0.910  0.3036  0.4891 -0.6522
14041TIP3    H263615   6.303   5.074   0.972 -1.1555  1.1640  1.5642
14042TIP3   OH263616   1.542   2.413   6.046  0.5071  0.1871  0.0548
14042TIP3    H163617   1.613   2.390   5.985  0.9212 -0.4329  0.7709
14042TIP3    H263618   1.584   2.468   6.112 -0.4455  2.9928 -1.5799
14043TIP3   OH263619   0.084   0.375   1.848 -0.0088  0.4048 -0.0665
14043TIP3    H163620   0.101   0.393   1.755  0.4604 -0.4459 -0.1500
14043TIP3    H263621   0.141   0.301   1.869  0.4840  1.1038  1.1111
14044TIP3   OH263622   3.018   5.338   6.591  0.7342  0.0238  0.3313
14044TIP3    H163623   3.044   5.427   6.568  0.8943 -0.1248 -0.0626
14044TIP3    H263624   3.083   5.282   6.549 -0.2739 -0.3591 -0.7357
14045TIP3   OH263625   4.586   2.582   2.984  0.4086 -0.5186  0.2108
14045TIP3    H163626   4.668   2.550   2.948 -1.0124 -3.9105 -0.2293
14045TIP3    H263627   4.523   2.572   2.913 -0.8611 -0.0337  1.2434
14046TIP3   OH263628   3.422   1.565   4.700 -0.4045  0.0668  0.0183
14046TIP3    H163629   3.468   1.631   4.649 -0.4580  0.6784  0.7451
14046TIP3    H263630   3.406   1.493   4.639  0.2755  0.4339 -0.5969
14047TIP3   OH263631   0.770   0.122   5.186 -0.0479 -0.2724  0.2867
14047TIP3    H163632   0.811   0.177   5.119 -0.3691  1.7991  1.7433
14047TIP3    H263633   0.843   0.077   5.228  0.4116  0.5437  0.3754
14048TIP3   OH263634   0.558   4.060   0.605 -0.2412 -0.0831 -0.5559
14048TIP3    H163635   0.557   4.082   0.512 -0.9623  0.5718 -0.4029
14048TIP3    H263636   0.503   3.982   0.613  1.0561 -1.0460 -0.8839
14049TIP3   OH263637   5.303   0.969  16.618 -0.8054 -0.2733 -0.0770
14049TIP3    H163638   5.268   1.056  16.599  1.4619  1.1359  1.8901
14049TIP3    H263639   5.388   0.967  16.574 -0.4509 -1.1428  0.6297
14050TIP3   OH263640   2.995   1.605   1.212 -0.0524  0.0437 -0.0072
14050TIP3    H163641   2.927   1.549   1.249 -0.2316 -0.3370 -0.9052
14050TIP3    H263642   2.961   1.694   1.224 -0.9948 -0.1732 -1.0028
14051TIP3   OH263643   1.859   5.316  13.478 -0.6788 -0.3183 -0.2496
14051TIP3    H163644   1.926   5.371  13.438  0.8233 -2.0862 -0.2522
14051TIP3    H263645   1.831   5.258  13.407 -1.7157 -0.0437 -0.0693
14052TIP3   OH263646   0.948   2.577   6.328 -0.0091  0.0440 -0.3650
14052TIP3    H163647   0.948   2.643   6.397 -2.1055 -0.5190  0.2152
14052TIP3    H263648   1.013   2.513   6.356  0.1748  0.5397  0.3702
14053TIP3   OH263649   3.580   4.804  16.988  0.3941 -0.1231  0.7569
14053TIP3    H163650   3.581   4.726  16.933 -1.8033 -0.2522  0.8676
14053TIP3    H263651   3.660   4.852  16.963  1.2187 -1.8730 -0.0376
14054TIP3   OH263652   5.184   0.837   2.935  0.0339  0.6580 -0.4840
14054TIP3    H163653   5.219   0.895   2.868 -2.1002  0.4062 -1.8968
14054TIP3    H263654   5.089   0.844   2.925 -0.2890 -0.9841  1.1352
14055TIP3   OH263655   2.165   5.125  16.379  0.4600 -0.0377 -0.3863
14055TIP3    H163656   2.103   5.090  16.443  1.3628  1.1918  1.2116
14055TIP3    H263657   2.116   5.128  16.297 -1.7530  1.3140  0.9292
14056TIP3   OH263658   1.125   0.687  13.962  0.0450  0.1875 -0.0276
14056TIP3    H163659   1.110   0.741  13.885 -2.3705  1.4593  1.2777
14056TIP3    H263660   1.043   0.692  14.012  1.1724 -1.4525  2.0961
14057TIP3   OH263661   2.918   6.336   5.194  0.2179  0.0426 -0.1602
14057TIP3    H163662   2.850   6.311   5.257  1.6068 -0.5353  1.1275
14057TIP3    H263663   2.942   6.254   5.150  1.3595 -0.0677  0.6606
14058TIP3   OH263664   3.380   6.048   2.309 -0.0708 -0.3889  0.3286
14058TIP3    H163665   3.457   6.079   2.358  0.0105 -0.4695  0.2520
14058TIP3    H263666   3.401   5.958   2.286 -0.4081 -0.5721  0.7465
14059TIP3   OH263667   0.218   5.355   3.193  0.5839 -0.5480  0.2470
14059TIP3    H163668   0.185   5.436   3.155 -0.5536 -0.9246  0.4043
14059TIP3    H263669   0.312   5.370   3.206 -0.1580  1.9265  3.2585
14060TIP3   OH263670   0.925   3.134  16.358  0.0878 -0.8947 -0.2561
14060TIP3    H163671   0.846   3.181  16.330  0.2598 -1.3529 -1.5544
14060TIP3    H263672   0.909   3.115  16.451 -0.6896  0.2740 -0.1400
14061TIP3   OH263673   1.288   6.185   5.313 -0.7645  0.2347 -0.2533
14061TIP3    H163674   1.295   6.139   5.397  1.7768  1.1326  0.0573
14061TIP3    H263675   1.221   6.252   5.329  1.8102  2.3757  2.0469
14062TIP3   OH263676   3.166   2.062  14.813  0.4020  0.2406  0.5130
14062TIP3    H163677   3.109   2.031  14.883 -0.4781 -0.9191 -0.6894
14062TIP3    H263678   3.124   2.142  14.782  0.6149  0.5747  1.0847
14063TIP3   OH263679   0.744   4.607   0.322  0.1585 -0.2067 -0.8052
14063TIP3    H163680   0.763   4.665   0.248 -0.2880  0.9843 -0.0028
14063TIP3    H263681   0.800   4.638   0.393  1.1833 -1.8591 -0.8635
14064TIP3   OH263682   1.175   1.176   2.420 -0.2432  0.0336  0.4470
14064TIP3    H163683   1.137   1.100   2.376 -0.0515  0.3806 -0.3291
14064TIP3    H263684   1.249   1.141   2.469  0.5044 -0.1235 -0.7688
14065TIP3   OH263685   4.397   3.851  15.945 -0.1855  0.5957 -0.5826
14065TIP3    H163686   4.354   3.781  15.897 -1.9351  0.5609  1.0199
14065TIP3    H263687   4.393   3.825  16.037 -2.2520  3.4857  0.2283
14066TIP3   OH263688   2.554   5.227   4.938  0.3131  0.0263 -0.1076
14066TIP3    H163689   2.598   5.301   4.896  0.2831 -0.1266 -0.4095
14066TIP3    H263690   2.565   5.154   4.876  1.0367 -0.4296  0.5480
14067TIP3   OH263691   5.912   1.670  11.839 -0.6343 -0.1509  0.1066
14067TIP3    H163692   5.986   1.629  11.885 -0.1607 -0.3363 -0.8033
14067TIP3    H263693   5.954   1.726  11.773 -1.3237 -0.8429 -0.9143
14068TIP3   OH263694   1.089   1.821  16.418 -0.1291  0.1292 -0.0643
14068TIP3    H163695   1.139   1.861  16.489  0.8201  0.4101 -0.8739
14068TIP3    H263696   1.153   1.766  16.372 -0.0740  1.9365 -2.2578
14069TIP3   OH263697   2.589   0.965  14.738 -0.2656 -0.1548  0.6422
14069TIP3    H163698   2.537   1.036  14.700  1.7167  1.1898  0.3255
14069TIP3    H263699   2.609   0.995  14.827 -1.6192 -1.5244  1.4269
14070TIP3   OH263700   1.308   0.452   2.967 -0.1277 -0.0923 -0.7630
14070TIP3    H163701   1.334   0.401   2.891 -3.3958 -1.8169 -0.8007
14070TIP3    H263702   1.361   0.416   3.039  2.9348  1.5182 -2.0920
14071TIP3   OH263703   1.696   0.916   3.671 -0.0421 -0.5933 -0.1414
14071TIP3    H163704   1.690   0.890   3.579  0.7157  2.0595 -1.0021
14071TIP3    H263705   1.685   0.835   3.720 -2.4430 -1.7812 -2.5132
14072TIP3   OH263706   5.010   2.294  13.961  0.4610  0.0845  0.0481
14072TIP3    H163707   4.996   2.238  14.037 -1.4025 -0.7473 -0.8763
14072TIP3    H263708   5.032   2.233  13.890  0.4002  0.6961 -0.5027
14073TIP3   OH263709   4.376   1.974   3.837  0.2948 -0.0776  0.3627
14073TIP3    H163710   4.410   2.036   3.772  2.9261 -1.2785  0.5458
14073TIP3    H263711   4.409   1.889   3.808 -2.2406 -1.2397  0.8090
14074TIP3   OH263712   5.315   5.591   4.167 -0.7108  0.2026  0.2884
14074TIP3    H163713   5.396   5.601   4.118 -1.0631 -2.5407 -0.9591
14074TIP3    H263714   5.265   5.526   4.118 -2.6172  0.0369  2.3562
14075TIP3   OH263715   1.669   4.753   5.324 -0.1543 -0.3540 -0.0000
14075TIP3    H163716   1.673   4.668   5.368  1.5639  0.1706  0.8897
14075TIP3    H263717   1.722   4.811   5.379 -1.8953  1.4899 -0.1974
14076TIP3   OH263718   3.478   1.052  10.507  0.4670  0.2222 -0.2774
14076TIP3    H163719   3.398   1.100  10.489  0.5130  0.9298  1.3927
14076TIP3    H263720   3.472   0.974  10.451 -2.1429 -0.5723  1.0376
14077TIP3   OH263721   5.993   0.872   5.548 -0.2718 -0.5618  0.1326
14077TIP3    H163722   5.958   0.959   5.567 -0.1863 -0.3858 -0.5253
14077TIP3    H263723   5.952   0.815   5.614 -1.2051 -0.2247 -0.1378
14078TIP3   OH263724   1.618   4.907   4.629  0.2544  0.2737 -0.1766
14078TIP3    H163725   1.678   4.853   4.680 -0.4453  0.2170  0.5990
14078TIP3    H263726   1.572   4.960   4.694 -1.0255 -0.1824 -0.6894
14079TIP3   OH263727   1.123   6.050  16.964 -0.5824 -0.6201 -0.5652
14079TIP3    H163728   1.114   6.140  16.997  1.9886 -0.7928  0.6997
14079TIP3    H263729   1.137   6.061  16.870  0.5513  0.3774 -0.2921
14080TIP3   OH263730   5.346   5.850   3.184 -0.0011  0.2818  0.0951
14080TIP3    H163731   5.263   5.895   3.168  0.2889  1.8621  2.7678
14080TIP3    H263732   5.393   5.856   3.101 -0.3986  4.0426  0.0669
14081TIP3   OH263733   0.148   6.709   3.364 -0.1031  0.0158 -0.5247
14081TIP3    H163734   0.204   6.748   3.298 -0.9562 -1.3245 -2.1019
14081TIP3    H263735   0.201   6.639   3.403 -0.4954 -0.9237 -1.6624
14082TIP3   OH263736   0.224   1.389   6.362  0.2605  0.2769 -0.2763
14082TIP3    H163737   0.318   1.406   6.361  0.1280  1.0664 -0.2015
14082TIP3    H263738   0.190   1.451   6.426 -0.1578 -0.8798  0.6289
14083TIP3   OH263739   4.373   0.119  11.619 -0.0735 -0.2657  0.3035
14083TIP3    H163740   4.384   0.151  11.529  1.0305  0.1124  0.5659
14083TIP3    H263741   4.332   0.033  11.609 -0.2922 -0.0710 -0.5430
14084TIP3   OH263742   0.757   1.380  15.066 -0.0358  0.5665 -0.1260
14084TIP3    H163743   0.846   1.364  15.035 -0.1600 -0.4896  0.0686
14084TIP3    H263744   0.743   1.474  15.050  0.8650  0.5961 -0.7708
14085TIP3   OH263745   3.262   3.490   1.808 -0.2441 -0.4642  0.0305
14085TIP3    H163746   3.352   3.516   1.830  0.4202 -2.6387 -0.0023
14085TIP3    H263747   3.253   3.402   1.844 -1.5117 -1.3059 -2.2420
14086TIP3   OH263748   1.518   2.165  13.407 -0.1969 -0.3117 -0.2182
14086TIP3    H163749   1.497   2.176  13.499  1.1636 -3.3225  0.5290
14086TIP3    H263750   1.604   2.206  13.396 -0.2233 -0.2185 -0.0691
14087TIP3   OH263751   5.824   1.531  10.925 -0.8020 -0.0508  0.4772
14087TIP3    H163752   5.869   1.607  10.889  1.9679 -1.3443  1.0597
14087TIP3    H263753   5.829   1.465  10.856 -1.2811 -0.4288  0.7964
14088TIP3   OH263754   6.061   6.751   3.081 -0.3685 -0.2861 -0.5329
14088TIP3    H163755   6.025   6.673   3.121  0.5828 -1.6626 -2.2717
14088TIP3    H263756   6.155   6.733   3.074 -0.2005  0.8336 -1.3269
14089TIP3   OH263757   6.631   3.540   5.455  0.1495  0.7393  0.1203
14089TIP3    H163758   6.611   3.609   5.518 -0.2646  0.6745  0.0605
14089TIP3    H263759   6.651   3.463   5.508  0.4920  0.8726  0.1851
14090TIP3   OH263760   6.398   3.694  13.358 -0.2940  0.6225 -0.0310
14090TIP3    H163761   6.306   3.719  13.365 -0.5327 -0.0786 -0.5409
14090TIP3    H263762   6.396   3.600  13.338  0.5651  0.1340  2.0455
14091TIP3   OH263763   2.891   3.616   2.715 -0.4077  0.7449  0.0954
14091TIP3    H163764   2.894   3.522   2.696 -0.9248  0.9110 -0.8496
14091TIP3    H263765   2.906   3.622   2.809 -0.7581 -0.3192  0.2267
14092TIP3   OH263766   2.078   3.489  14.165  0.2833  0.5223  0.5425
14092TIP3    H163767   2.043   3.530  14.244  0.1489 -0.4798  1.0051
14092TIP3    H263768   2.128   3.414  14.196 -0.7553 -0.5857 -0.3817
14093TIP3   OH263769   5.034   1.137   4.620  0.1520  1.0235  0.1167
14093TIP3    H163770   5.101   1.158   4.556  1.1625  0.5936  1.0091
14093TIP3    H263771   5.080   1.085   4.686 -1.1857  0.2478  0.4524
14094TIP3   OH263772   0.723   1.626  12.695 -0.7546 -0.4490 -0.9647
14094TIP3    H163773   0.635   1.647  12.665 -1.6517  0.6759  2.1703
14094TIP3    H263774   0.756   1.708  12.732  0.1556 -1.7248  1.1780
14095TIP3   OH263775   3.659   6.696  15.636  0.1286  0.4531  0.1513
14095TIP3    H163776   3.635   6.616  15.683  1.4820  1.0427  1.8765
14095TIP3    H263777   3.740   6.725  15.678  1.5410  0.8560 -2.7333
14096TIP3   OH263778   2.201   3.577  13.945 -0.0414 -1.1262  0.7623
14096TIP3    H163779   2.211   3.498  13.891 -0.7285 -1.2969  0.8786
14096TIP3    H263780   2.143   3.549  14.016 -0.4794 -0.4462  0.6714
14097TIP3   OH263781   3.565   0.425   4.790  0.1096  0.0115  0.1191
14097TIP3    H163782   3.470   0.427   4.790  0.1171  1.4519 -0.7045
14097TIP3    H263783   3.590   0.477   4.713  1.6016  2.9745  2.4981
14098TIP3   OH263784   0.702   5.258   5.152 -0.0015 -0.5390  0.6763
14098TIP3    H163785   0.661   5.299   5.227  0.9558  0.3513  0.7221
14098TIP3    H263786   0.666   5.169   5.150  1.0655 -1.0319  3.0324
14099TIP3   OH263787   1.378   1.876   5.097 -0.3297  0.1715 -0.3547
14099TIP3    H163788   1.449   1.836   5.148 -0.0273  0.7318 -0.3281
14099TIP3    H263789   1.307   1.811   5.099 -0.4006  0.2652  0.9574
14100TIP3   OH263790   1.791   5.882  12.342  0.6509 -0.1855  0.1366
14100TIP3    H163791   1.747   5.823  12.281  0.4172 -0.6905  0.7786
14100TIP3    H263792   1.834   5.948  12.287  1.7674 -1.5408 -0.6444
14101TIP3   OH263793   5.066   4.674  11.095  0.3983 -0.3592  0.1905
14101TIP3    H163794   5.045   4.705  11.007 -0.9113 -3.3394 -0.6241
14101TIP3    H263795   5.161   4.669  11.097  0.4454 -0.0763 -1.0019
14102TIP3   OH263796   3.987   5.398   0.192  0.5200  0.5781 -0.3263
14102TIP3    H163797   4.002   5.410   0.098  1.0127  1.0625 -0.1929
14102TIP3    H263798   3.957   5.308   0.200  0.5641  0.5029 -0.9386
14103TIP3   OH263799   3.870   4.675  15.654  0.1788  0.0502  0.0122
14103TIP3    H163800   3.881   4.584  15.680 -0.0635 -0.0030 -0.0655
14103TIP3    H263801   3.919   4.725  15.719 -0.7216 -0.0575  0.7772
14104TIP3   OH263802   6.599   3.922   1.933  0.2829  0.0329 -0.3618
14104TIP3    H163803   6.665   3.983   1.966  1.6653 -1.0573 -1.0386
14104TIP3    H263804   6.586   3.947   1.841  1.2551 -1.0076 -0.7952
14105TIP3   OH263805   5.799   4.425   1.363  0.4602  0.2329 -0.3140
14105TIP3    H163806   5.773   4.377   1.441  0.9229 -0.4744 -0.5868
14105TIP3    H263807   5.864   4.487   1.393  1.5212 -0.8540 -0.3237
14106TIP3   OH263808   0.932   5.199   2.174  0.1357 -0.1418  1.0213
14106TIP3    H163809   0.949   5.265   2.241  1.7919  0.6577 -0.1482
14106TIP3    H263810   0.902   5.249   2.098 -1.2260 -0.9960  0.9783
14107TIP3   OH263811   5.771   1.396   0.241 -0.3906 -0.7641 -0.4813
14107TIP3    H163812   5.812   1.382   0.156  0.0174  0.8398 -0.5807
14107TIP3    H263813   5.677   1.399   0.223 -0.4890 -2.9721 -0.4748
14108TIP3   OH263814   6.097   0.354  12.136  0.0820  0.3446 -0.5847
14108TIP3    H163815   6.143   0.334  12.217 -3.0107 -0.9742  0.9205
14108TIP3    H263816   6.131   0.290  12.073  2.6417  1.5082 -0.4767
14109TIP3   OH263817   5.258   0.723  11.939 -0.1283 -0.2725  0.3455
14109TIP3    H163818   5.345   0.755  11.960 -0.0309 -0.9319  0.9726
14109TIP3    H263819   5.230   0.775  11.864  1.7574 -1.6729 -1.3594
14110TIP3   OH263820   5.554   3.401  14.069  0.6128 -0.3370 -0.3103
14110TIP3    H163821   5.550   3.442  13.983  1.0012 -0.1080 -0.2161
14110TIP3    H263822   5.586   3.469  14.128  0.8732 -0.6535 -0.0825
14111TIP3   OH263823   0.576   2.928   1.051 -0.1004 -0.2018 -0.3221
14111TIP3    H163824   0.596   2.846   1.097 -0.4000 -0.2986 -0.3641
14111TIP3    H263825   0.662   2.965   1.030  0.0392 -0.6307 -0.5252
14112TIP3   OH263826   6.389   3.919  14.670  0.6160 -0.1259 -0.2933
14112TIP3    H163827   6.312   3.877  14.706  0.4242  0.5293  0.0762
14112TIP3    H263828   6.355   3.975  14.599  0.4684  1.7724  1.2200
14113TIP3   OH263829   4.568   3.996  13.031  0.2950 -0.0622  0.3370
14113TIP3    H163830   4.615   3.958  13.105 -0.0945 -1.7456 -0.2714
14113TIP3    H263831   4.478   3.968  13.042 -0.2132  1.5744  0.4472
14114TIP3   OH263832   4.921   3.498   2.950 -0.3115  0.1109 -0.1602
14114TIP3    H163833   4.972   3.417   2.960 -0.5626 -0.1536 -1.0023
14114TIP3    H263834   4.885   3.493   2.861 -0.7082  0.9305 -0.0483
14115TIP3   OH263835   5.437   6.077   1.629 -0.0651  0.7364 -0.7276
14115TIP3    H163836   5.404   6.150   1.681 -0.3419  0.1011 -0.0111
14115TIP3    H263837   5.527   6.066   1.659 -0.5733 -0.3544  0.4200
14116TIP3   OH263838   1.676   6.113  12.479  0.3060 -0.3111  0.0841
14116TIP3    H163839   1.639   6.081  12.562 -0.4858 -2.2318 -0.9755
14116TIP3    H263840   1.697   6.034  12.430 -0.0165  0.7999 -1.8981
14117TIP3   OH263841   6.464   5.423  13.123 -0.1541  0.0410 -0.0402
14117TIP3    H163842   6.469   5.454  13.033 -0.2516 -0.2941 -0.1612
14117TIP3    H263843   6.508   5.338  13.122 -0.0287  0.0985  0.2570
14118TIP3   OH263844   1.202   4.285   1.377  0.2065  0.3827 -0.0799
14118TIP3    H163845   1.112   4.251   1.379 -0.2911  1.7411  1.8342
14118TIP3    H263846   1.257   4.208   1.395 -0.6455 -0.2194 -0.0302
14119TIP3   OH263847   4.483   0.310  15.938 -0.0008 -0.3162 -0.2408
14119TIP3    H163848   4.484   0.392  15.889 -1.4149 -0.3548 -0.3541
14119TIP3    H263849   4.391   0.283  15.939  0.2549 -1.2066  0.9579
14120TIP3   OH263850   1.937   3.125   5.829 -0.1292  0.1037  0.4058
14120TIP3    H163851   2.027   3.090   5.829  0.4844  1.5733  2.2661
14120TIP3    H263852   1.905   3.107   5.917 -0.3807  2.6926  0.8861
14121TIP3   OH263853   3.070   5.434  15.595  0.2186  0.1164  0.4734
14121TIP3    H163854   3.086   5.342  15.615  1.0944 -0.0924 -1.0563
14121TIP3    H263855   3.090   5.481  15.676  0.6307 -0.9568  0.9988
14122TIP3   OH263856   6.212   2.082  16.203 -0.3984  0.3162  0.4034
14122TIP3    H163857   6.183   2.173  16.209 -1.2738  0.0303  0.4692
14122TIP3    H263858   6.150   2.033  16.256 -0.2797 -0.4082 -0.1274
14123TIP3   OH263859   5.896   2.111   5.408  0.2689 -0.5861  0.6604
14123TIP3    H163860   5.821   2.092   5.352 -0.1268 -0.9087  1.2925
14123TIP3    H263861   5.919   2.027   5.447  2.0697 -0.8301 -0.8808
14124TIP3   OH263862   2.181   3.267  13.517  0.4692  0.2941 -0.4026
14124TIP3    H163863   2.183   3.295  13.426 -0.1961  0.7391 -0.2885
14124TIP3    H263864   2.096   3.224  13.527 -0.1021  1.5620  0.3736
14125TIP3   OH263865   1.378   6.594   3.907 -0.1940 -0.2510 -0.4396
14125TIP3    H163866   1.341   6.511   3.875 -0.3767 -0.4070  0.1662
14125TIP3    H263867   1.338   6.661   3.851 -1.9347 -0.3588  0.6374
14126TIP3   OH263868   0.322   5.134   3.561 -0.0622 -0.3474  0.7941
14126TIP3    H163869   0.308   5.226   3.584 -0.8457 -0.1948 -0.2897
14126TIP3    H263870   0.414   5.118   3.582  0.3894  1.0155 -0.1422
14127TIP3   OH263871   3.874   0.667   4.684 -0.1662  0.4168  0.2611
14127TIP3    H163872   3.947   0.661   4.623 -0.4850  1.9575 -0.2887
14127TIP3    H263873   3.899   0.734   4.747  0.0088 -0.9172  1.6363
14128TIP3   OH263874   0.283   6.006   0.295  0.7043  0.1782  0.0646
14128TIP3    H163875   0.323   6.008   0.207  0.3992  0.0427 -0.0784
14128TIP3    H263876   0.247   6.094   0.307  3.9098  1.3756  1.5379
14129TIP3   OH263877   2.666   5.966   4.198 -0.1957 -0.1987 -0.5711
14129TIP3    H163878   2.741   5.924   4.156 -0.5501 -0.6504 -0.7565
14129TIP3    H263879   2.643   6.038   4.139  1.5458  1.4204  0.6441
14130TIP3   OH263880   5.967   5.459  12.067 -0.2634 -0.3564  0.1367
14130TIP3    H163881   6.018   5.447  11.988 -1.4992 -1.2066 -0.5460
14130TIP3    H263882   6.016   5.412  12.135  0.8859  0.5274 -0.0649
14131TIP3   OH263883   5.782   0.792  12.811  0.6037  0.0306 -0.1054
14131TIP3    H163884   5.869   0.811  12.775  1.2681  0.0048  1.4448
14131TIP3    H263885   5.792   0.805  12.905 -1.7731  2.7577 -0.1473
14132TIP3   OH263886   1.739   3.798  11.845 -0.5614  0.0697 -0.3226
14132TIP3    H163887   1.661   3.853  11.841 -1.0891 -0.7543 -1.7135
14132TIP3    H263888   1.707   3.709  11.830  0.7279 -0.1966 -1.6708
14133TIP3   OH263889   1.160   3.822  16.157 -0.2264 -0.0237 -0.3527
14133TIP3    H163890   1.235   3.775  16.192  0.4902  0.4492 -1.2286
14133TIP3    H263891   1.133   3.771  16.081 -0.3502  0.1927 -0.4575
14134TIP3   OH263892   4.240   0.113   3.017  0.9366  0.2144 -0.1156
14134TIP3    H163893   4.279   0.030   2.991  0.5541 -0.3682  1.1215
14134TIP3    H263894   4.240   0.111   3.112 -0.0780  1.1550 -0.0799
14135TIP3   OH263895   2.617   1.479   6.072  0.3959  0.8527 -0.0260
14135TIP3    H163896   2.525   1.469   6.047  0.1244  1.3827  0.7520
14135TIP3    H263897   2.666   1.439   6.000 -0.4907 -0.8842  0.3033
14136TIP3   OH263898   6.409   1.324  12.265  0.4952  0.2010 -0.2512
14136TIP3    H163899   6.326   1.312  12.219 -0.3483  0.0840  1.2645
14136TIP3    H263900   6.395   1.403  12.318  2.7672  2.5856 -3.0536
14137TIP3   OH263901   5.259   0.739  13.064  0.4248  0.6351  0.0512
14137TIP3    H163902   5.254   0.713  12.972  1.9815  0.1701  0.0794
14137TIP3    H263903   5.343   0.785  13.071 -0.0390  1.3395  1.0800
14138TIP3   OH263904   5.631   3.661   4.021  0.4834  0.2089 -0.6703
14138TIP3    H163905   5.597   3.749   4.033  1.8951  0.8175 -0.9707
14138TIP3    H263906   5.613   3.616   4.103  2.8193  1.8452  0.7912
14139TIP3   OH263907   3.130   4.635   2.377  0.2131  0.4211 -0.9086
14139TIP3    H163908   3.049   4.666   2.336  0.1887  2.1450  0.4025
14139TIP3    H263909   3.135   4.684   2.459  1.7062 -0.9427 -0.1761
14140TIP3   OH263910   1.055   3.480   5.181  0.2200 -0.5300  0.0484
14140TIP3    H163911   1.036   3.536   5.106 -0.4306  0.6192  1.0420
14140TIP3    H263912   0.993   3.509   5.248  1.0254 -1.3019  1.1454
14141TIP3   OH263913   2.499   1.238   3.289  0.3366  0.0458  0.2566
14141TIP3    H163914   2.578   1.199   3.251  1.6786  2.0114  0.9139
14141TIP3    H263915   2.532   1.302   3.352 -1.8036  0.4918  0.9736
14142TIP3   OH263916   4.282   0.462  15.362  0.2458  0.2121  0.4721
14142TIP3    H163917   4.236   0.410  15.428  0.4716  0.2883  0.6933
14142TIP3    H263918   4.372   0.431  15.366 -0.0808 -0.9712 -0.9930
14143TIP3   OH263919   6.322   6.472  17.031  0.0573  0.3927  0.1884
14143TIP3    H163920   6.332   6.497  17.122  0.4164 -0.2328  0.3285
14143TIP3    H263921   6.402   6.503  16.988  0.7848 -1.0238  0.4827
14144TIP3   OH263922   5.352   2.700   0.017 -0.2345 -0.7353 -0.3747
14144TIP3    H163923   5.394   2.675   0.099  0.1882 -1.1549 -0.7161
14144TIP3    H263924   5.268   2.737   0.043  0.3993  0.2205  0.3141
14145TIP3   OH263925   2.698   5.499  10.589  0.2369  1.0911 -0.2974
14145TIP3    H163926   2.746   5.571  10.629  0.1651  2.2957 -2.3224
14145TIP3    H263927   2.620   5.489  10.644  2.0926 -0.0335  2.2512
14146TIP3   OH263928   0.284   0.900   0.236  0.0762  0.1324  0.1360
14146TIP3    H163929   0.256   0.955   0.162  0.7842  1.5130  0.8706
14146TIP3    H263930   0.216   0.912   0.302  0.5284  0.6077  0.5228
14147TIP3   OH263931   2.395   3.132  15.034 -0.5594  0.5929 -0.1510
14147TIP3    H163932   2.366   3.042  15.050 -0.0189  0.5821  0.7703
14147TIP3    H263933   2.345   3.185  15.097 -0.4167  0.8630 -0.2624
14148TIP3   OH263934   2.349   1.931  10.607  0.2771  0.2212  0.1703
14148TIP3    H163935   2.442   1.940  10.629  0.4714 -0.7809 -0.2549
14148TIP3    H263936   2.321   1.852  10.653 -0.3452  0.4571  0.2020
14149TIP3   OH263937   3.964   4.783   0.717  0.0716  0.5506  0.4711
14149TIP3    H163938   3.967   4.757   0.809  1.8852  0.4999  0.4060
14149TIP3    H263939   3.997   4.873   0.716 -0.7298  0.8429 -0.0255
14150TIP3   OH263940   0.709   2.946   1.833  0.4252  0.1135 -0.1314
14150TIP3    H163941   0.798   2.923   1.807 -0.2259 -2.9878  0.2036
14150TIP3    H263942   0.717   2.975   1.924  1.0390 -0.6851  0.0746
14151TIP3   OH263943   5.219   1.991   0.304  0.1025 -0.1282 -0.1752
14151TIP3    H163944   5.217   2.025   0.214  0.0879 -0.6179 -0.3649
14151TIP3    H263945   5.215   1.896   0.293  1.4247 -0.2539  0.2872
14152TIP3   OH263946   5.325   0.811   1.648  0.8341  0.0576 -0.4584
14152TIP3    H163947   5.362   0.895   1.675  1.3385 -0.6870  1.2464
14152TIP3    H263948   5.230   0.825   1.651  0.9100  0.4515  0.2371
14153TIP3   OH263949   3.734   2.373  12.852 -0.4304 -0.1740 -0.4832
14153TIP3    H163950   3.774   2.292  12.885 -0.7889  1.0231  3.1470
14153TIP3    H263951   3.806   2.419  12.808  0.8621 -0.5205  1.2121
14154TIP3   OH263952   1.924   2.157   6.458  0.1692  0.2302  0.2650
14154TIP3    H163953   1.885   2.073   6.432  0.3252  0.7061 -1.6282
14154TIP3    H263954   1.855   2.222   6.439  0.3248  0.6063  0.9869
14155TIP3   OH263955   5.972   0.212  15.464  0.3827 -0.0288 -0.1508
14155TIP3    H163956   5.898   0.184  15.518  0.5271  1.1486  0.6921
14155TIP3    H263957   6.031   0.256  15.526  0.5610  1.3196 -1.2561
14156TIP3   OH263958   2.720   3.452   1.523 -0.6383  0.1112 -0.0315
14156TIP3    H163959   2.652   3.509   1.486 -1.1977  0.1602  1.0496
14156TIP3    H263960   2.796   3.509   1.533 -0.7296  0.2927 -0.3530
14157TIP3   OH263961   3.917   3.707  12.462  0.7906  0.1119  0.2300
14157TIP3    H163962   3.833   3.749  12.444  1.3247  1.2069  0.2767
14157TIP3    H263963   3.973   3.777  12.496  1.2145 -0.9608  1.8016
14158TIP3   OH263964   3.477   5.105   3.062 -0.4657 -0.7826  0.2921
14158TIP3    H163965   3.473   5.167   3.135 -2.7305  1.0923 -1.3189
14158TIP3    H263966   3.396   5.055   3.069  0.1334 -1.7956  0.0698
14159TIP3   OH263967   4.090   2.071   3.658 -0.3456 -0.1121  0.6794
14159TIP3    H163968   4.186   2.070   3.664 -0.1566 -0.1866 -1.9114
14159TIP3    H263969   4.066   1.983   3.630 -1.2182 -0.1503  1.4942
14160TIP3   OH263970   2.663   6.416  12.316  0.1566 -0.1501 -0.2336
14160TIP3    H163971   2.593   6.468  12.354  0.5194  0.4583 -0.3979
14160TIP3    H263972   2.648   6.420  12.221  0.1050 -0.4551 -0.2384
14161TIP3   OH263973   6.173   2.856   2.098  0.8269  0.2596  0.1885
14161TIP3    H163974   6.095   2.800   2.101  0.5509  0.6950  1.0430
14161TIP3    H263975   6.218   2.829   2.018 -1.0259  1.0845 -1.1722
14162TIP3   OH263976   3.035   6.309  16.779 -0.3898  0.0649 -0.5721
14162TIP3    H163977   2.966   6.308  16.845 -0.9648  2.5165 -1.0759
14162TIP3    H263978   3.108   6.353  16.822  1.3538 -3.5738  0.3670
14163TIP3   OH263979   5.980   1.112   5.656  0.0254  0.4452 -0.4378
14163TIP3    H163980   5.928   1.159   5.592  1.2909 -0.8471 -2.4637
14163TIP3    H263981   6.039   1.177   5.692  0.0044  0.9669 -1.3321
14164TIP3   OH263982   0.220   5.393  13.905 -0.3350  0.1041  0.0076
14164TIP3    H163983   0.207   5.299  13.891 -1.1865  0.0130  1.2970
14164TIP3    H263984   0.314   5.405  13.901 -0.1442 -0.9967  0.8875
14165TIP3   OH263985   1.994   2.929  10.956 -0.2205 -0.2897  0.0959
14165TIP3    H163986   2.018   3.020  10.936  1.2328 -0.5597  0.5121
14165TIP3    H263987   2.032   2.879  10.883 -0.6422 -0.6052  0.0941
14166TIP3   OH263988   3.386   5.723  14.409 -0.0525 -0.0480 -0.4828
14166TIP3    H163989   3.364   5.636  14.442 -0.3946  0.6548  1.1930
14166TIP3    H263990   3.302   5.768  14.402  0.4777  1.6266  3.0195
14167TIP3   OH263991   4.981   0.189  14.133  0.0271  0.4129 -0.2962
14167TIP3    H163992   4.987   0.125  14.204 -2.3689  1.1026  0.5630
14167TIP3    H263993   4.996   0.274  14.176  0.4245  0.6728 -0.9455
14168TIP3   OH263994   5.259   6.428  12.259 -0.7131 -0.2356 -0.1776
14168TIP3    H163995   5.184   6.373  12.237 -1.6365 -0.5902  3.4962
14168TIP3    H263996   5.222   6.515  12.274 -0.5215 -0.5010  2.0476
14169TIP3   OH263997   0.919   4.682   5.237  0.0070  0.1631  0.0970
14169TIP3    H163998   0.955   4.599   5.205 -0.2309 -0.3264  1.0688
14169TIP3    H263999   0.959   4.748   5.181  1.7665 -0.4385  0.5960
14170TIP3   OH264000   4.438   4.060   3.816 -0.4763 -0.0716  0.4595
14170TIP3    H164001   4.428   3.981   3.869  0.0251  0.9613  2.1500
14170TIP3    H264002   4.527   4.091   3.836  0.5890 -0.8533 -2.7047
14171TIP3   OH264003   2.871   2.071   2.231 -0.1181  0.4261  0.2778
14171TIP3    H164004   2.809   2.005   2.202  0.1725  1.2213 -2.2789
14171TIP3    H264005   2.861   2.143   2.168  1.3499  1.7532  1.5083
14172TIP3   OH264006   5.615   6.375  14.754 -0.0598  0.2802  0.3462
14172TIP3    H164007   5.694   6.325  14.736  0.4542  1.1733  0.1002
14172TIP3    H264008   5.572   6.327  14.826  0.1801 -0.7649 -0.1916
14173TIP3   OH264009   4.411   5.726  11.983  0.0438  0.1901 -0.5206
14173TIP3    H164010   4.406   5.684  11.897 -0.0594  0.7813 -0.8029
14173TIP3    H264011   4.487   5.784  11.977  1.8000 -1.8526  0.7089
14174TIP3   OH264012   0.970   3.838   3.856  0.0500  0.4494 -0.0283
14174TIP3    H164013   0.963   3.743   3.860 -0.9076  0.4780 -0.7478
14174TIP3    H264014   0.979   3.866   3.947 -2.0734 -0.1638  0.3954
14175TIP3   OH264015   5.262   1.557   2.778 -0.6339 -0.1230  1.3105
14175TIP3    H164016   5.262   1.652   2.787 -1.9197  0.2625 -2.0097
14175TIP3    H264017   5.173   1.530   2.801 -0.8060 -0.3232  0.4114
14176TIP3   OH264018   0.566   3.260  11.795 -0.1760 -0.7657 -0.3260
14176TIP3    H164019   0.529   3.221  11.716 -3.3627  0.0625  0.7128
14176TIP3    H264020   0.497   3.252  11.860  2.0162 -0.4608  2.1084
14177TIP3   OH264021   1.862   3.469   3.144  0.2067  0.3673  0.2749
14177TIP3    H164022   1.877   3.451   3.236 -0.7005  0.6483  0.4780
14177TIP3    H264023   1.783   3.420   3.121 -0.4875  1.5575  0.0550
14178TIP3   OH264024   0.047   4.661   5.053 -0.4670  0.3644  0.0070
14178TIP3    H164025   0.022   4.729   4.990  0.4226 -0.3235 -1.0824
14178TIP3    H264026   0.046   4.580   5.003  3.3852  0.2065  0.0255
14179TIP3   OH264027   0.332   4.797   0.693 -0.1478  0.8560 -0.0622
14179TIP3    H164028   0.366   4.711   0.718  1.6673  1.8389  1.0050
14179TIP3    H264029   0.357   4.807   0.601  0.0911  0.4471 -0.0428
14180TIP3   OH264030   0.374   5.563  11.048  0.0197 -0.2127 -0.2502
14180TIP3    H164031   0.415   5.647  11.027 -0.1013 -0.4682 -1.5852
14180TIP3    H264032   0.298   5.587  11.101 -0.2083  0.5643 -0.9083
14181TIP3   OH264033   2.857   1.048   2.131 -0.2045  0.3477 -0.9575
14181TIP3    H164034   2.778   1.097   2.153  0.0507  0.2646  0.1656
14181TIP3    H264035   2.829   0.956   2.131 -0.0606  0.2990 -0.3068
14182TIP3   OH264036   3.608   3.993   6.054  0.3249 -0.3699  0.0924
14182TIP3    H164037   3.667   3.940   6.108  0.8634  1.5921  1.4741
14182TIP3    H264038   3.546   4.032   6.117  1.8757  3.1379 -0.4497
14183TIP3   OH264039   2.017   4.534  16.814  0.1856 -0.4269 -0.7839
14183TIP3    H164040   2.037   4.610  16.759 -0.2276 -0.6730 -1.2872
14183TIP3    H264041   1.924   4.544  16.836  0.0361 -0.9581 -1.1437
14184TIP3   OH264042   2.232   4.266   3.277 -0.0360 -0.1361  0.1086
14184TIP3    H164043   2.206   4.216   3.354  1.9151 -0.8501  0.3210
14184TIP3    H264044   2.315   4.306   3.300  1.3310 -1.5609 -2.1223
14185TIP3   OH264045   2.125   4.309  15.719  0.0806  0.6725 -0.1889
14185TIP3    H164046   2.195   4.363  15.682  0.7829 -0.7536 -0.9446
14185TIP3    H264047   2.050   4.326  15.662 -0.4651  2.8655  1.1259
14186TIP3   OH264048   5.808   1.084  16.831 -0.3334 -0.2068  0.1616
14186TIP3    H164049   5.878   1.086  16.895 -2.5306  0.3008  2.6291
14186TIP3    H264050   5.810   0.994  16.796  1.9008 -0.0041 -0.2693
14187TIP3   OH264051   2.846   2.976  13.012 -0.5936 -0.0894  0.0643
14187TIP3    H164052   2.885   2.937  13.091 -1.3063  1.5798  1.2677
14187TIP3    H264053   2.892   3.059  13.001 -2.0171  0.7048 -0.0065
14188TIP3   OH264054   0.089   1.817   2.866  0.4067  0.5589  0.7076
14188TIP3    H164055   0.133   1.740   2.900  4.2568  2.6722  0.7827
14188TIP3    H264056   0.042   1.786   2.788 -0.6726 -2.3940  2.4529
14189TIP3   OH264057   1.916   1.546  15.667  0.5127  0.0891  0.3943
14189TIP3    H164058   1.893   1.510  15.752  0.6594 -0.0649  0.3688
14189TIP3    H264059   1.833   1.559  15.622  0.5041 -1.1567  0.0167
14190TIP3   OH264060   0.596   3.562   3.563 -0.3159 -0.0122  0.1115
14190TIP3    H164061   0.682   3.527   3.588 -0.4843 -0.5040  0.0212
14190TIP3    H264062   0.609   3.656   3.556  0.0274 -0.0018  0.8498
14191TIP3   OH264063   4.576   0.164  13.867 -0.1263  0.4040  0.7275
14191TIP3    H164064   4.649   0.178  13.806  0.2116 -0.2440  0.9742
14191TIP3    H264065   4.586   0.233  13.932  0.2559  0.3369  0.7423
14192TIP3   OH264066   2.139   1.643   5.901  0.1168  0.3972 -0.0749
14192TIP3    H164067   2.118   1.595   5.821 -0.8820 -0.1565  0.5069
14192TIP3    H264068   2.112   1.584   5.972 -0.8546  1.6992  0.6527
14193TIP3   OH264069   5.825   5.858   2.752 -0.5988 -0.1939 -0.1895
14193TIP3    H164070   5.919   5.876   2.752 -0.0029 -3.0182  0.0304
14193TIP3    H264071   5.784   5.944   2.760  2.0067  0.9111  2.3930
14194TIP3   OH264072   2.401   5.479  15.595  0.1260  0.2207  0.1004
14194TIP3    H164073   2.439   5.550  15.646  2.6534 -0.7610 -0.3266
14194TIP3    H264074   2.421   5.501  15.504  0.7684 -0.8904 -0.0470
14195TIP3   OH264075   3.427   6.407   5.423  0.6325  0.2960 -0.0578
14195TIP3    H164076   3.334   6.410   5.445  0.3679 -0.6191 -0.9645
14195TIP3    H264077   3.447   6.313   5.420  1.1819  0.4430 -1.4333
14196TIP3   OH264078   2.939   6.202   3.137  0.1943 -0.1530  0.1892
14196TIP3    H164079   2.893   6.143   3.196  1.3679 -0.6807  0.6035
14196TIP3    H264080   2.912   6.175   3.050 -2.0420  1.0420  0.4823
14197TIP3   OH264081   0.062   2.872   5.604 -0.0003  0.1914 -0.1029
14197TIP3    H164082  -0.024   2.902   5.634  0.3133  0.8501  0.1301
14197TIP3    H264083   0.119   2.948   5.612  0.8328 -0.4967  0.6498
14198TIP3   OH264084   1.907   1.111   4.290  0.3982 -0.6578 -0.2238
14198TIP3    H164085   1.956   1.098   4.371  0.8090  0.3802 -0.2914
14198TIP3    H264086   1.823   1.069   4.305  1.2814 -2.3880 -0.0626
14199TIP3   OH264087   0.756   1.257   0.931 -0.2153  0.4174  0.5049
14199TIP3    H164088   0.766   1.164   0.955 -0.1742  0.6337  1.3395
14199TIP3    H264089   0.668   1.262   0.894 -0.1065 -0.0178  0.1847
14200TIP3   OH264090   4.492   2.232   3.941  0.0912 -0.3221 -0.1621
14200TIP3    H164091   4.488   2.284   3.861 -2.6637  2.4294  1.6426
14200TIP3    H264092   4.401   2.214   3.962  0.8306 -1.9255  1.7740
14201TIP3   OH264093   4.353   5.683  11.719  0.1506  0.6681 -0.0559
14201TIP3    H164094   4.294   5.747  11.679  0.2900  0.1377 -1.1307
14201TIP3    H264095   4.326   5.599  11.683  1.2757  0.3670 -0.2250
14202TIP3   OH264096   3.738   5.780   5.246  0.1523 -1.0766 -0.0134
14202TIP3    H164097   3.805   5.712   5.246  2.2258  0.8943 -0.7692
14202TIP3    H264098   3.772   5.847   5.186 -2.5641 -0.0805 -0.5209
14203TIP3   OH264099   1.669   4.607  15.299 -0.1372  0.1529  0.1967
14203TIP3    H164100   1.671   4.701  15.285 -0.1847  0.0614 -0.4436
14203TIP3    H264101   1.745   4.574  15.250 -1.3234 -0.3623 -1.3308
14204TIP3   OH264102   2.020   6.774  12.325 -0.0389  0.1424 -0.3827
14204TIP3    H164103   1.978   6.700  12.369  0.0275 -0.1440 -0.8011
14204TIP3    H264104   2.110   6.747  12.312 -0.2996 -0.1888 -1.6127
14205TIP3   OH264105   4.911   0.055   1.935 -0.0478 -0.5842 -0.1659
14205TIP3    H164106   4.869  -0.021   1.975 -1.3391  0.5709  0.7189
14205TIP3    H264107   4.914   0.120   2.006  1.1787  0.1374 -0.8648
14206TIP3   OH264108   5.617   5.713   5.122  0.1051 -0.3989  0.9128
14206TIP3    H164109   5.656   5.769   5.054  0.5991 -0.4477  1.1568
14206TIP3    H264110   5.554   5.658   5.074 -0.4790  0.4438  0.6811
14207TIP3   OH264111   5.542   5.732   3.337 -0.5752 -0.7504  0.2349
14207TIP3    H164112   5.545   5.814   3.386  2.0484 -0.3210 -0.5618
14207TIP3    H264113   5.461   5.737   3.286 -1.2941  0.5579  1.4828
14208TIP3   OH264114   5.832   2.342   0.583  0.0624  0.4511 -0.6051
14208TIP3    H164115   5.768   2.293   0.635  0.7068  1.1059  0.8270
14208TIP3    H264116   5.790   2.353   0.497 -1.3352  0.0323  0.0121
14209TIP3   OH264117   0.786   6.618  10.496  0.2878  0.1816 -0.5788
14209TIP3    H164118   0.815   6.695  10.448 -0.4829  0.5427 -0.4653
14209TIP3    H264119   0.714   6.582  10.445 -2.1721  1.9663  1.5259
14210TIP3   OH264120   6.575   6.795  11.764  0.0832 -0.5540 -0.0758
14210TIP3    H164121   6.627   6.730  11.717  0.7429  0.2293 -0.4450
14210TIP3    H264122   6.577   6.765  11.855  4.1056  1.2538  0.5606
14211TIP3   OH264123   5.750   3.413   0.289 -0.0575  0.6754  0.2072
14211TIP3    H164124   5.701   3.495   0.291 -0.3360  0.5104  0.1051
14211TIP3    H264125   5.692   3.350   0.333 -1.0063 -0.1237 -2.1384
14212TIP3   OH264126   0.853   5.920   4.009 -0.6001  0.3669 -0.0793
14212TIP3    H164127   0.882   5.853   3.947  0.2038 -0.1114  0.7999
14212TIP3    H264128   0.885   6.003   3.972 -0.8029  0.1723 -0.6964
14213TIP3   OH264129   4.001   5.689  15.905  0.1466  0.0632 -0.3976
14213TIP3    H164130   3.909   5.711  15.891  0.1988 -0.3145 -1.3727
14213TIP3    H264131   4.035   5.763  15.957 -0.9040 -0.2315  0.7373
14214TIP3   OH264132   2.177   6.324   4.668  0.2900 -0.0830  0.2082
14214TIP3    H164133   2.169   6.248   4.725 -0.1327  1.0937  1.7725
14214TIP3    H264134   2.263   6.361   4.688  0.5277 -0.1867 -0.5977
14215TIP3   OH264135   2.349   4.615   1.934  0.5433  0.3182  0.2349
14215TIP3    H164136   2.300   4.586   2.012  1.1256  0.1835  0.5549
14215TIP3    H264137   2.323   4.706   1.922 -1.5975 -0.4202 -0.9997
14216TIP3   OH264138   6.365   5.139  15.471  0.2152 -0.4670 -0.3830
14216TIP3    H164139   6.396   5.056  15.435  1.1106  0.8223 -2.6611
14216TIP3    H264140   6.431   5.203  15.445 -2.2026  1.6015 -1.6335
14217TIP3   OH264141   4.920   5.294   1.580  0.0532 -0.6636  0.1491
14217TIP3    H164142   4.923   5.364   1.645  1.3499 -0.1832 -0.4027
14217TIP3    H264143   4.830   5.262   1.583 -1.1398  2.3706 -0.9791
14218TIP3   OH264144   3.757   5.448  16.432  0.2345 -0.2892  0.4136
14218TIP3    H164145   3.819   5.437  16.504  0.9857 -0.4041 -0.2455
14218TIP3    H264146   3.696   5.376  16.441  1.6655 -1.6225 -0.4113
14219TIP3   OH264147   0.122   3.286   5.703 -0.0768  0.1400 -0.2750
14219TIP3    H164148   0.171   3.230   5.642 -1.9437 -1.3055 -0.5020
14219TIP3    H264149   0.083   3.353   5.647  0.7699  0.6775 -0.2320
14220TIP3   OH264150   3.988   5.717  16.796 -0.0105  0.5885 -0.3640
14220TIP3    H164151   4.025   5.649  16.739 -0.2869  1.6267 -1.8299
14220TIP3    H264152   3.900   5.733  16.759 -1.4069 -0.8815  2.2235
14221TIP3   OH264153   0.478   3.070  16.564 -0.7484 -0.6124  0.1339
14221TIP3    H164154   0.518   3.155  16.581 -0.2665 -0.5869 -1.0958
14221TIP3    H264155   0.384   3.086  16.571 -0.6363 -0.1160  0.5275
14222TIP3   OH264156   2.988   6.646  10.906  0.2758 -0.1332 -0.4475
14222TIP3    H164157   2.954   6.562  10.874  1.3279 -0.1539 -1.5641
14222TIP3    H264158   2.942   6.712  10.854  0.1524 -0.0602 -0.2452
14223TIP3   OH264159   6.161   5.683   2.421 -0.3867 -0.0868 -0.2327
14223TIP3    H164160   6.212   5.637   2.488 -0.3196 -0.9166 -0.8516
14223TIP3    H264161   6.211   5.670   2.340 -0.1968  1.3364 -0.3717
14224TIP3   OH264162   5.022   0.219   0.060 -0.1731 -0.1884  0.2105
14224TIP3    H164163   5.114   0.243   0.065 -0.0716  0.5709 -3.6944
14224TIP3    H264164   5.022   0.131   0.023 -1.0445  0.0236 -0.3056
14225TIP3   OH264165   6.473   3.063   3.624  0.0384 -0.3223  0.7201
14225TIP3    H164166   6.431   3.028   3.702  1.3318 -1.4579  0.9301
14225TIP3    H264167   6.483   2.987   3.566  2.9455 -0.3707  1.2118
14226TIP3   OH264168   0.003   1.439  12.462 -0.0711  0.1897 -0.4973
14226TIP3    H164169   0.001   1.499  12.388 -0.3091 -0.8399 -1.3330
14226TIP3    H264170   0.017   1.352  12.424 -1.0683 -0.4702  0.5745
14227TIP3   OH264171   2.866   3.055  12.200  0.6037 -0.0218 -0.4959
14227TIP3    H164172   2.807   3.113  12.150  2.0674  0.5218 -1.6387
14227TIP3    H264173   2.932   3.114  12.237  1.0003 -0.7320 -0.0634
14228TIP3   OH264174   4.726   1.634   4.174 -0.1430  0.4754 -0.5048
14228TIP3    H164175   4.672   1.594   4.242  0.0828  0.8236 -0.1172
14228TIP3    H264176   4.687   1.720   4.159 -0.0716  0.4796 -0.6634
14229TIP3   OH264177   4.486   4.629   4.779  0.1100 -1.0020  0.0380
14229TIP3    H164178   4.458   4.594   4.694 -0.3075  0.9488 -0.6539
14229TIP3    H264179   4.482   4.554   4.838  0.6031 -2.4456 -1.7035
14230TIP3   OH264180   6.191   4.011   1.676  0.1099  0.0900  0.3429
14230TIP3    H164181   6.265   4.069   1.694  1.2553 -1.5932  1.1220
14230TIP3    H264182   6.206   3.934   1.730 -0.9773 -1.2937 -1.2733
14231TIP3   OH264183   2.610   3.534  17.126  0.2157  0.1306  0.4096
14231TIP3    H164184   2.568   3.451  17.103  0.2076  0.1304  0.4257
14231TIP3    H264185   2.548   3.601  17.098  0.9046  0.1864 -1.0713
14232TIP3   OH264186   4.884   3.023  10.690  0.1468 -0.2645  0.2643
14232TIP3    H164187   4.952   3.055  10.750  0.0632  0.7573 -0.1835
14232TIP3    H264188   4.856   2.940  10.729  0.0295  0.4196  1.7135
14233TIP3   OH264189   1.806   4.118   0.607  0.0361 -0.5057  0.4151
14233TIP3    H164190   1.796   4.106   0.513 -1.2421 -1.0454  0.5958
14233TIP3    H264191   1.850   4.039   0.637 -2.0986 -1.6514  0.6401
14234TIP3   OH264192   3.099   5.833   0.499  0.2790  0.4043  0.2397
14234TIP3    H164193   3.070   5.861   0.412 -1.4503 -0.4437  0.5304
14234TIP3    H264194   3.025   5.852   0.556  0.0628 -2.3122  0.9162
14235TIP3   OH264195   3.170   3.001  12.578 -0.2793 -0.4138 -0.2703
14235TIP3    H164196   3.085   2.984  12.618 -0.1801 -0.2131  0.0259
14235TIP3    H264197   3.154   2.994  12.484 -1.3478  2.8389 -0.4035
14236TIP3   OH264198   6.020   3.226  15.070  0.0697 -0.0130 -0.0628
14236TIP3    H164199   6.030   3.257  14.980 -1.8271 -0.2589 -0.3678
14236TIP3    H264200   5.935   3.183  15.072  0.5053 -0.8604  1.6180
14237TIP3   OH264201   0.945   4.336  10.954  1.0421  0.3767  0.5139
14237TIP3    H164202   0.878   4.396  10.920 -0.6462 -0.2866  2.5860
14237TIP3    H264203   0.964   4.278  10.880  1.9285  2.7611 -1.1760
14238TIP3   OH264204   1.030   2.775   3.719 -0.1007  0.7183  0.0371
14238TIP3    H164205   1.059   2.794   3.809 -0.4069  2.0993 -0.1475
14238TIP3    H264206   1.016   2.680   3.718 -0.3261  0.7206  1.5160
14239TIP3   OH264207   6.716   0.203  13.030  0.5236  0.6871 -0.2865
14239TIP3    H164208   6.747   0.190  13.120  2.4170  2.2261 -0.6962
14239TIP3    H264209   6.786   0.251  12.987 -1.7149  2.7449 -1.7403
14240TIP3   OH264210   6.057   6.380  11.081 -0.3421 -0.5245 -0.4343
14240TIP3    H164211   6.107   6.399  11.002 -0.6367 -0.5170 -0.6181
14240TIP3    H264212   6.030   6.288  11.071  0.4714 -0.8347  0.1193
14241TIP3   OH264213   4.441   4.701  16.004  0.0112  0.1019 -0.3645
14241TIP3    H164214   4.444   4.676  15.912  1.6642  0.8156 -0.5257
14241TIP3    H264215   4.348   4.707  16.024 -0.3800  1.9871 -2.5622
14242TIP3   OH264216   4.279   0.124  15.478  0.2987 -0.4362  0.2506
14242TIP3    H164217   4.247   0.207  15.513  1.6304  0.1923  0.0152
14242TIP3    H264218   4.226   0.110  15.399  0.7385  0.7204 -0.2754
14243TIP3   OH264219   5.146   6.742  12.381 -0.4078 -0.3399 -0.1722
14243TIP3    H164220   5.174   6.705  12.465  1.3361  1.4462  0.0648
14243TIP3    H264221   5.089   6.815  12.405  1.2562  1.0871 -0.4852
14244TIP3   OH264222   4.272   6.449   3.679  0.4557  0.4378 -0.1299
14244TIP3    H164223   4.252   6.509   3.751  2.3926 -2.3706  2.8836
14244TIP3    H264224   4.203   6.382   3.683  1.6553 -0.8036  0.4413
14245TIP3   OH264225   6.808   3.133   5.956 -0.5012  0.6017  0.0941
14245TIP3    H164226   6.752   3.161   6.029  1.3558  1.6932  1.1268
14245TIP3    H264227   6.820   3.212   5.903 -1.0944  0.0266 -0.9260
14246TIP3   OH264228   2.170   5.113  16.792 -0.1013 -0.1097  0.2685
14246TIP3    H164229   2.117   5.187  16.819 -1.7888 -0.2579 -2.4929
14246TIP3    H264230   2.116   5.036  16.813  1.3686 -0.5718  2.5258
14247TIP3   OH264231   4.415   6.071   6.630  0.5938 -0.2668  0.3310
14247TIP3    H164232   4.509   6.084   6.647  0.1675  0.6163  2.0543
14247TIP3    H264233   4.376   6.060   6.716 -0.5924 -2.9761 -0.4950
14248TIP3   OH264234   0.942   1.315  12.370 -0.5853  0.5302 -0.0656
14248TIP3    H164235   0.955   1.345  12.280 -1.5827  0.3141 -0.2864
14248TIP3    H264236   0.975   1.388  12.424 -1.1624  1.2013 -0.6061
14249TIP3   OH264237   1.079   3.569   1.448  0.2171  0.6590  0.0033
14249TIP3    H164238   1.007   3.625   1.479 -0.8391  0.0812 -1.3391
14249TIP3    H264239   1.048   3.480   1.466  0.6185  0.4130 -0.5405
14250TIP3   OH264240   5.686   3.658  13.282 -0.3443 -0.1395  0.2530
14250TIP3    H164241   5.594   3.684  13.281 -0.2191  0.3348  0.5459
14250TIP3    H264242   5.691   3.589  13.348 -0.3613  0.3663  0.7921
14251TIP3   OH264243   6.141   6.326   1.875 -0.5864 -0.5028  0.1091
14251TIP3    H164244   6.181   6.250   1.918  0.0684  0.4590  1.2269
14251TIP3    H264245   6.214   6.387   1.862 -1.0687 -0.1498 -0.9722
14252TIP3   OH264246   4.612   1.454   4.651 -0.5132 -0.0906 -0.0760
14252TIP3    H164247   4.616   1.525   4.586 -0.8333 -1.5603 -1.7548
14252TIP3    H264248   4.571   1.381   4.604  1.2724 -1.9160  1.0862
14253TIP3   OH264249   5.386   6.603  16.216 -0.2631  0.2996 -0.0629
14253TIP3    H164250   5.398   6.593  16.310 -1.1654 -2.7605 -0.2328
14253TIP3    H264251   5.330   6.530  16.191  2.4720 -0.7834 -3.4433
14254TIP3   OH264252   0.916   5.183   6.857 -0.2327  1.1456 -0.2411
14254TIP3    H164253   0.902   5.190   6.951  1.6513  2.2659 -0.0086
14254TIP3    H264254   0.974   5.107   6.848 -0.2747  1.1429 -0.4818
14255TIP3   OH264255   5.915   0.720   3.435  0.0494 -0.1357 -0.0442
14255TIP3    H164256   5.943   0.785   3.371  1.6808  0.0597  0.8746
14255TIP3    H264257   5.932   0.759   3.520 -0.9197 -0.9166  0.5283
14256TIP3   OH264258   4.199   4.243   0.447  0.9066 -0.2285  1.0678
14256TIP3    H164259   4.294   4.242   0.451  0.9371 -0.8983  0.2491
14256TIP3    H264260   4.178   4.269   0.357  0.3263 -0.7512  1.0434
14257TIP3   OH264261   1.578   3.560   5.598  0.4614 -0.0262 -0.2546
14257TIP3    H164262   1.514   3.553   5.527 -0.7993  0.0591  0.8743
14257TIP3    H264263   1.607   3.470   5.613  2.3965  0.1882 -2.3612
14258TIP3   OH264264   2.610   3.753  10.428  0.0192 -0.3659  0.6574
14258TIP3    H164265   2.549   3.820  10.396  0.2759  0.1120  1.1533
14258TIP3    H264266   2.601   3.681  10.366 -0.1670  0.1808  0.0411
14259TIP3   OH264267   1.867   2.002  13.931  0.1765  0.3567  0.2721
14259TIP3    H164268   1.884   1.985  13.838 -1.7269 -0.8061  0.0982
14259TIP3    H264269   1.865   2.097  13.937 -0.1661  0.4455 -0.9848
14260TIP3   OH264270   6.770   2.820  16.600 -0.4396  0.7124  0.4391
14260TIP3    H164271   6.835   2.880  16.561 -0.0151  1.5587  2.3706
14260TIP3    H264272   6.687   2.865  16.591 -0.4099  0.6878  0.0610
14261TIP3   OH264273   2.960   2.551   2.917 -0.3236  0.2674 -0.1429
14261TIP3    H164274   2.982   2.621   2.856  0.2070 -0.4661 -0.8002
14261TIP3    H264275   2.968   2.591   3.004  2.2285  0.3946 -0.4217
14262TIP3   OH264276   6.473   4.574   1.307  0.6276 -0.4198 -0.2023
14262TIP3    H164277   6.476   4.510   1.236  2.4555  0.7709 -1.2528
14262TIP3    H264278   6.560   4.569   1.347 -0.0533 -0.3395  1.2881
14263TIP3   OH264279   6.704   1.999   4.703 -0.0225 -0.0340  0.7041
14263TIP3    H164280   6.687   2.090   4.728  1.3003  0.3518  0.2442
14263TIP3    H264281   6.768   2.005   4.632 -2.2152 -1.1861 -1.4902
14264TIP3   OH264282   2.958   0.130   1.497  1.0925 -0.2459  0.0279
14264TIP3    H164283   2.956   0.222   1.522  0.7030 -0.3268  0.2940
14264TIP3    H264284   2.918   0.128   1.410  1.3787 -0.1246 -0.1082
14265TIP3   OH264285   2.996   1.339  15.981 -0.1109  0.1430  0.0346
14265TIP3    H164286   3.013   1.373  15.893 -0.4846  1.4373  0.4532
14265TIP3    H264287   3.072   1.285  16.001  0.4513  0.6608 -0.6839
14266TIP3   OH264288   0.178   0.502   5.034 -0.1552 -0.6126 -0.2894
14266TIP3    H164289   0.193   0.471   5.123  0.6613  1.0582  0.1671
14266TIP3    H264290   0.266   0.521   5.000 -0.5278 -0.3330 -1.1158
14267TIP3   OH264291   2.822   3.176   5.481 -0.0351  0.3437 -0.2110
14267TIP3    H164292   2.765   3.141   5.412 -0.1688  0.6191 -0.2397
14267TIP3    H264293   2.860   3.255   5.443  1.8201 -0.8316 -0.8747
14268TIP3   OH264294   1.803   3.383  13.254 -0.2915  0.0465 -0.2706
14268TIP3    H164295   1.828   3.350  13.167  2.7814 -0.5861  0.7913
14268TIP3    H264296   1.842   3.471  13.258 -0.0857 -0.0822  0.6054
14269TIP3   OH264297   6.279   2.270   4.588 -0.3539 -0.0118 -0.3528
14269TIP3    H164298   6.333   2.221   4.650 -1.5260  0.3345  0.9480
14269TIP3    H264299   6.206   2.303   4.640 -2.1716 -1.0049 -2.2200
14270TIP3   OH264300   5.070   2.989   4.347 -0.3985 -0.2369  0.0969
14270TIP3    H164301   5.089   3.028   4.261  1.7159 -1.2041  0.1166
14270TIP3    H264302   5.107   3.050   4.410 -1.0829 -0.0307  0.3097
14271TIP3   OH264303   2.606   1.493   0.465  0.3970  0.6717 -0.7706
14271TIP3    H164304   2.668   1.545   0.414  0.1546  2.3819  0.6091
14271TIP3    H264305   2.524   1.543   0.460 -0.0452  0.0166 -0.0625
14272TIP3   OH264306   3.890   5.560   6.098  0.2114 -0.0045 -0.1453
14272TIP3    H164307   3.919   5.516   6.018  2.9694 -0.6304  1.1391
14272TIP3    H264308   3.903   5.653   6.080 -0.3377 -0.0670 -0.8666
14273TIP3   OH264309   5.623   6.653   5.146  0.0931  0.0016  0.3236
14273TIP3    H164310   5.692   6.611   5.199  1.9413 -0.3146 -2.2433
14273TIP3    H264311   5.624   6.604   5.064 -1.8588  1.3039 -0.4908
14274TIP3   OH264312   1.313   2.968   0.765 -0.6580 -0.5300 -0.3519
14274TIP3    H164313   1.229   3.010   0.749 -0.8073 -0.5329  0.4359
14274TIP3    H264314   1.292   2.886   0.808 -0.2228 -0.2728  0.3628
14275TIP3   OH264315   5.707   2.694  15.482 -0.1446  1.0747  0.1134
14275TIP3    H164316   5.685   2.711  15.573 -0.3431  1.7907 -0.0642
14275TIP3    H264317   5.691   2.777  15.437  0.5075  0.8972 -0.4695
14276TIP3   OH264318   1.190   2.994  11.475  0.4445 -0.1717 -0.0391
14276TIP3    H164319   1.156   3.018  11.389 -0.0070 -0.8433 -0.0520
14276TIP3    H264320   1.185   3.075  11.526 -1.6028 -0.3298  0.0885
14277TIP3   OH264321   2.375   4.291   1.332 -0.3012 -0.2122  0.4235
14277TIP3    H164322   2.376   4.216   1.273  0.0604  0.0748  0.0614
14277TIP3    H264323   2.283   4.317   1.337 -0.2738  0.0609 -0.3979
14278TIP3   OH264324   2.223   2.451  10.859 -0.1739  0.0647 -0.3459
14278TIP3    H164325   2.197   2.359  10.867  0.1582 -0.0341 -0.3730
14278TIP3    H264326   2.142   2.498  10.837 -0.1715 -0.3453 -1.2488
14279TIP3   OH264327   3.530   2.421   0.555 -0.2109  0.2516 -0.2673
14279TIP3    H164328   3.497   2.401   0.642  0.0131 -1.5808 -0.5818
14279TIP3    H264329   3.476   2.369   0.496 -1.2633  2.5172 -1.3663
14280TIP3   OH264330   2.394   4.974  14.861 -0.5764  0.0510 -0.1554
14280TIP3    H164331   2.361   4.884  14.853  0.4611 -0.4072  0.6289
14280TIP3    H264332   2.348   5.010  14.936  0.2482 -0.3852  0.5625
14281TIP3   OH264333   2.964   5.126  13.018  0.4365 -0.4154 -0.0422
14281TIP3    H164334   2.964   5.094  13.108  1.4730  2.2208  0.9541
14281TIP3    H264335   3.051   5.167  13.007 -0.1457  0.4073 -1.8050
14282TIP3   OH264336   3.743   3.901  10.431  0.2035  0.3279  1.0755
14282TIP3    H164337   3.677   3.840  10.463  0.9946 -1.1054  0.0502
14282TIP3    H264338   3.825   3.851  10.434  0.8029  1.2233 -0.1382
14283TIP3   OH264339   4.090   0.859  13.129 -0.2348  0.2588  0.5653
14283TIP3    H164340   4.059   0.770  13.114 -1.0602  0.1064  3.0417
14283TIP3    H264341   4.185   0.853  13.121 -0.1934 -1.0942  1.8286
14284TIP3   OH264342   1.779   4.640   4.354 -0.0756  0.0517  0.3287
14284TIP3    H164343   1.801   4.732   4.366 -0.3829 -0.1136  2.3789
14284TIP3    H264344   1.863   4.597   4.340  0.2667  0.3733  1.3511
14285TIP3   OH264345   3.282   2.815   0.669 -0.0612 -0.6240  0.2026
14285TIP3    H164346   3.313   2.835   0.758  1.2489  0.5439 -0.5042
14285TIP3    H264347   3.354   2.768   0.628  0.0193  0.3869 -0.8256
14286TIP3   OH264348   4.781   3.933   2.925  0.3222 -0.3415  0.0657
14286TIP3    H164349   4.787   3.845   2.960 -2.7062 -0.1481  1.2224
14286TIP3    H264350   4.708   3.929   2.862  1.4176  0.8857 -1.3364
14287TIP3   OH264351   1.112   6.545   5.522  0.0722  0.1374 -0.1380
14287TIP3    H164352   1.144   6.633   5.540 -0.4434  0.1830  0.5712
14287TIP3    H264353   1.087   6.510   5.608 -2.0311  0.1990 -0.6957
14288TIP3   OH264354   4.568   4.302  11.354 -0.1779  0.1336  0.1130
14288TIP3    H164355   4.563   4.206  11.355 -0.3757  0.1361 -0.3333
14288TIP3    H264356   4.571   4.326  11.446  1.7362 -0.3829  0.2135
14289TIP3   OH264357   0.404   2.665  13.001 -0.3671  0.3098 -0.4219
14289TIP3    H164358   0.381   2.757  13.017 -2.5000  0.1543 -2.3947
14289TIP3    H264359   0.425   2.631  13.088 -0.2826  2.4694  0.4365
14290TIP3   OH264360   6.104   3.545  15.151  0.0339 -0.5936 -0.0999
14290TIP3    H164361   6.008   3.549  15.155  0.1758  0.9902  2.3202
14290TIP3    H264362   6.126   3.587  15.068 -1.3698 -1.4040 -0.9038
14291TIP3   OH264363   0.259   6.004  13.364 -0.3495  0.0175  0.1117
14291TIP3    H164364   0.275   6.057  13.287  0.8705 -1.2296 -0.5275
14291TIP3    H264365   0.183   5.950  13.341 -0.2389 -0.0617 -0.0675
14292TIP3   OH264366   6.196   1.769  12.042  0.3102 -0.3154  0.4263
14292TIP3    H164367   6.230   1.824  11.971  2.0978 -1.8441  0.0623
14292TIP3    H264368   6.164   1.690  11.998 -2.2763  0.4093  0.9383
14293TIP3   OH264369   3.216   0.566  11.829  0.2233  0.6879  0.1639
14293TIP3    H164370   3.127   0.565  11.862  0.4161 -0.2667  0.6503
14293TIP3    H264371   3.259   0.636  11.877 -0.7708  2.4409 -1.4278
14294TIP3   OH264372   6.148   1.433  15.956  0.0085 -0.2681  0.6718
14294TIP3    H164373   6.146   1.353  16.007 -1.2099  0.1568  1.3156
14294TIP3    H264374   6.214   1.488  15.998 -0.4125 -0.2410  1.2933
14295TIP3   OH264375   5.676   1.122  17.230  0.3085 -0.1040  0.0953
14295TIP3    H164376   5.639   1.059  17.292  1.7849 -0.1640  0.9431
14295TIP3    H264377   5.601   1.155  17.181 -0.6175 -1.7069  0.3997
14296TIP3   OH264378   0.989   2.222  16.985 -0.4135  0.1793  0.0137
14296TIP3    H164379   1.058   2.233  17.050 -0.8147 -0.8443  0.6131
14296TIP3    H264380   1.030   2.250  16.903  1.8444 -3.5542 -0.2783
14297TIP3   OH264381   4.682   6.188   1.970  0.4387  0.2639  0.7502
14297TIP3    H164382   4.661   6.103   1.931  0.3184 -0.6456  2.7269
14297TIP3    H264383   4.598   6.232   1.981  0.4420  0.3810  0.3288
14298TIP3   OH264384   0.224   6.289  14.300 -0.4977  0.4307 -0.0432
14298TIP3    H164385   0.143   6.284  14.250 -0.3406 -0.0195 -0.2548
14298TIP3    H264386   0.240   6.200  14.330  0.5489  0.2746 -1.0227
14299TIP3   OH264387   0.301   1.407  10.999 -0.6673  0.6288 -0.4904
14299TIP3    H164388   0.374   1.468  10.987 -1.8559  2.1671 -0.0012
14299TIP3    H264389   0.324   1.358  11.078  0.1037  0.6978 -0.6670
14300TIP3   OH264390   3.162   3.289   1.576 -0.2418 -0.4999  0.0952
14300TIP3    H164391   3.187   3.330   1.658 -1.0224 -1.3407  0.7677
14300TIP3    H264392   3.203   3.343   1.508 -0.4759  0.8199  0.9912
14301TIP3   OH264393   4.848   2.751  13.681 -0.2617 -0.7686 -0.3687
14301TIP3    H164394   4.859   2.681  13.744  0.8793 -1.3152 -1.1569
14301TIP3    H264395   4.910   2.818  13.709  0.9843 -1.4378 -1.4842
14302TIP3   OH264396   5.607   0.062   3.428 -0.1253  0.0606  0.6308
14302TIP3    H164397   5.662   0.078   3.351 -0.5595 -1.4287 -0.0117
14302TIP3    H264398   5.668   0.029   3.494 -0.0145 -0.2894  0.3596
14303TIP3   OH264399   1.269   6.572  12.922  0.2023 -0.6245  0.5782
14303TIP3    H164400   1.206   6.569  12.994 -1.7206  0.8934 -0.9668
14303TIP3    H264401   1.221   6.614  12.850  2.3663 -1.2373 -1.2875
14304TIP3   OH264402   0.179   0.335   5.319  0.3169 -0.0482  0.1610
14304TIP3    H164403   0.144   0.406   5.372 -0.2364 -0.2355  0.0512
14304TIP3    H264404   0.262   0.312   5.361 -1.4976 -2.2183  2.7567
14305TIP3   OH264405   3.191   2.020  16.005  0.1525 -0.0276  0.3561
14305TIP3    H164406   3.110   2.069  15.990  0.7134  0.7832 -0.0802
14305TIP3    H264407   3.255   2.087  16.029  0.8543 -0.5848  0.0468
14306TIP3   OH264408   1.161   3.189  11.754  0.3188 -0.3076  0.1088
14306TIP3    H164409   1.136   3.098  11.739  1.8773 -0.5059 -1.4888
14306TIP3    H264410   1.131   3.235  11.675  1.0406  0.2356  0.1418
14307TIP3   OH264411   1.730   4.965   4.960 -0.3152  0.6294  0.4931
14307TIP3    H164412   1.770   4.911   4.892 -0.4157 -0.5235  1.3296
14307TIP3    H264413   1.702   5.045   4.915  0.2664  0.1796 -0.6646
14308TIP3   OH264414   1.025   6.410   4.369 -0.0910  0.0529  0.3879
14308TIP3    H164415   0.942   6.373   4.338  0.2401 -0.1338 -0.2689
14308TIP3    H264416   1.057   6.462   4.295  0.6611 -0.3318  0.4464
14309TIP3   OH264417   6.297   4.353   5.747  0.7965  0.5042 -0.3177
14309TIP3    H164418   6.310   4.266   5.709 -0.8732  1.4273 -3.1445
14309TIP3    H264419   6.281   4.410   5.672 -0.0979  2.9006  1.6204
14310TIP3   OH264420   6.741   1.179  16.413  0.0695 -0.3426 -0.2781
14310TIP3    H164421   6.653   1.188  16.450  0.0784  0.0094 -0.3336
14310TIP3    H264422   6.775   1.098  16.451 -0.0225 -0.1275  0.2799
14311TIP3   OH264423   3.621   3.667   3.208 -0.0608  0.0044  0.2020
14311TIP3    H164424   3.653   3.604   3.143 -1.9584 -0.0176 -0.7391
14311TIP3    H264425   3.695   3.726   3.222  1.2726 -1.5886  0.0434
14312TIP3   OH264426   2.913   2.016  14.277  0.3481  0.1886 -0.3347
14312TIP3    H164427   2.983   2.054  14.330  1.1223 -1.0120 -0.4630
14312TIP3    H264428   2.958   1.959  14.215 -0.7952 -1.8006  0.5851
14313TIP3   OH264429   4.364   0.121  10.911  0.1622 -0.3512  0.3882
14313TIP3    H164430   4.460   0.126  10.915  0.1147 -0.5063  1.8287
14313TIP3    H264431   4.344   0.032  10.938 -0.3568 -0.5267 -0.5787
14314TIP3   OH264432   2.188   6.622  16.178 -0.1851 -0.1319 -0.4105
14314TIP3    H164433   2.143   6.619  16.262 -0.0299 -3.1145 -0.3724
14314TIP3    H264434   2.141   6.688  16.127 -1.2440  0.5829  1.4468
14315TIP3   OH264435   5.613   2.900   2.068 -0.1572  0.0373 -0.2009
14315TIP3    H164436   5.555   2.930   2.139  0.6411  1.9349 -0.3043
14315TIP3    H264437   5.603   2.967   2.000  2.1941  0.4325 -0.1794
14316TIP3   OH264438   4.227   1.996   0.815 -0.1230 -0.2881  0.0174
14316TIP3    H164439   4.135   2.019   0.802  0.3565  2.8620  1.7354
14316TIP3    H264440   4.276   2.068   0.774  1.5012 -0.0495  2.2576
14317TIP3   OH264441   6.341   3.244   5.245 -0.1512  0.2431 -0.2293
14317TIP3    H164442   6.306   3.321   5.289 -0.6435  0.0440 -0.2690
14317TIP3    H264443   6.334   3.174   5.309  0.8609  0.3601  0.0178
14318TIP3   OH264444   0.872   1.797   3.002  0.1991 -0.7592  0.3235
14318TIP3    H164445   0.853   1.883   3.040  0.3677 -0.5253 -0.1190
14318TIP3    H264446   0.835   1.734   3.065 -0.5762 -0.3459  0.2900
14319TIP3   OH264447   1.983   1.870  11.291 -0.8338 -0.1562  0.1592
14319TIP3    H164448   2.032   1.792  11.265  0.1049 -0.4228  2.5851
14319TIP3    H264449   1.908   1.872  11.232  0.9888 -0.9038 -2.2644
14320TIP3   OH264450   6.219   5.077   6.582  0.3438 -0.0397  0.1686
14320TIP3    H164451   6.170   5.158   6.575 -0.2443 -0.2374  1.7160
14320TIP3    H264452   6.176   5.017   6.522  2.4924  1.5696 -3.1023
14321TIP3   OH264453   1.075   1.294  16.292 -0.1325  0.5027  0.0926
14321TIP3    H164454   0.991   1.290  16.338 -0.0919 -0.5666  0.0867
14321TIP3    H264455   1.101   1.202  16.282  0.9181  0.8208 -0.1252
14322TIP3   OH264456   5.789   0.168  16.316 -0.2597 -0.1449 -0.5601
14322TIP3    H164457   5.868   0.150  16.369  0.0478 -2.4869 -1.7290
14322TIP3    H264458   5.822   0.210  16.237 -0.1850 -1.0089 -0.9927
14323TIP3   OH264459   1.403   4.245  11.756  0.2339  0.1352 -0.1321
14323TIP3    H164460   1.317   4.233  11.716 -0.4786 -1.4204  1.7614
14323TIP3    H264461   1.465   4.243  11.683 -1.1495 -1.2678 -1.2815
14324TIP3   OH264462   1.534   0.217  13.747  0.2186 -0.3430  0.3013
14324TIP3    H164463   1.604   0.157  13.775  0.9493  0.0322 -0.6632
14324TIP3    H264464   1.546   0.295  13.801  0.4484 -0.3443  0.2528
14325TIP3   OH264465   4.307   3.848   2.827  0.2333  0.9639  0.2215
14325TIP3    H164466   4.361   3.769   2.830  0.7102  1.2552 -0.4554
14325TIP3    H264467   4.217   3.817   2.841  0.5356  0.4330  0.9731
14326TIP3   OH264468   1.578   6.108   4.789 -0.2672  0.5263 -0.2210
14326TIP3    H164469   1.672   6.092   4.778 -0.6764 -1.2752 -1.4154
14326TIP3    H264470   1.558   6.076   4.877  0.3697  1.6552  0.3476
14327TIP3   OH264471   5.166   4.229  14.635  0.4735 -0.1814  0.4861
14327TIP3    H164472   5.071   4.226  14.639  0.4177  0.5384 -0.1307
14327TIP3    H264473   5.185   4.282  14.557  1.3706 -2.0948 -0.6454
14328TIP3   OH264474   4.482   6.340  13.781 -0.1253  0.3002  0.5237
14328TIP3    H164475   4.432   6.307  13.855 -0.0211 -2.2552 -0.4950
14328TIP3    H264476   4.416   6.367  13.717 -0.2411 -1.5404 -0.1617
14329TIP3   OH264477   0.193   0.481  11.630 -0.1956  0.4311  0.0450
14329TIP3    H164478   0.196   0.576  11.642 -1.4449  0.6062 -0.9617
14329TIP3    H264479   0.100   0.460  11.629  0.0809 -0.8185  0.3141
14330TIP3   OH264480   4.407   2.411   5.070  0.3603 -0.8646 -0.1299
14330TIP3    H164481   4.388   2.505   5.072  0.3671 -0.8871  1.4149
14330TIP3    H264482   4.428   2.393   4.978  3.3985  1.2687  0.0593
14331TIP3   OH264483   3.690   0.316   5.545  0.0492  0.3507  0.0284
14331TIP3    H164484   3.651   0.232   5.520  1.1650 -0.2509  0.2418
14331TIP3    H264485   3.742   0.343   5.469  0.4077  0.3976  0.2857
14332TIP3   OH264486   0.526   1.337   0.014 -0.1924 -0.2727  0.5264
14332TIP3    H164487   0.491   1.345  -0.074  1.9774 -1.6827 -0.4904
14332TIP3    H264488   0.524   1.426   0.049 -0.5737  0.3776 -1.1250
14333TIP3   OH264489   4.142   2.426   4.336  0.7146 -0.4145  0.2742
14333TIP3    H164490   4.177   2.481   4.266  0.4664  0.7045  1.0218
14333TIP3    H264491   4.070   2.377   4.295  0.8028 -0.0251 -0.3431
14334TIP3   OH264492   6.447   0.328  13.797  0.3321  0.6991  0.0540
14334TIP3    H164493   6.373   0.277  13.829  0.5942  0.7565  0.7719
14334TIP3    H264494   6.519   0.265  13.790  0.5219  0.8659  0.4660
14335TIP3   OH264495   4.385   0.541  14.190 -0.1806  0.0125 -0.0292
14335TIP3    H164496   4.346   0.627  14.171 -0.3501  0.1272  0.8346
14335TIP3    H264497   4.376   0.531  14.285  0.2600 -0.7589 -0.0672
14336TIP3   OH264498   1.830   4.862   1.531 -0.3468  0.4868 -0.6689
14336TIP3    H164499   1.740   4.867   1.497 -0.3586 -1.0347 -0.9300
14336TIP3    H264500   1.838   4.771   1.560  0.1576  1.3834  2.0802
14337TIP3   OH264501   5.064   1.745  15.664 -0.5913  0.9527 -0.0453
14337TIP3    H164502   5.118   1.805  15.612 -0.9335  1.3870  0.1016
14337TIP3    H264503   4.982   1.792  15.678 -0.8511  0.4624  0.0962
14338TIP3   OH264504   4.229   0.370  11.425 -0.0981  0.2099 -0.2197
14338TIP3    H164505   4.260   0.459  11.445 -0.9086  0.7825 -1.4518
14338TIP3    H264506   4.159   0.354  11.488  1.1540 -0.2132  1.0977
14339TIP3   OH264507   3.866   2.117   2.168  0.3915  0.1193 -0.7422
14339TIP3    H164508   3.933   2.050   2.177 -0.6406 -1.0698 -1.6843
14339TIP3    H264509   3.844   2.142   2.257  1.0163 -0.5708 -0.3969
14340TIP3   OH264510   0.016   5.855   4.585 -0.3863 -0.1565 -0.0351
14340TIP3    H164511   0.012   5.802   4.505 -0.5904 -0.4718  0.1850
14340TIP3    H264512   0.092   5.912   4.572 -0.7940  0.2309 -0.7251
14341TIP3   OH264513   0.416   5.060   0.759  0.5226 -0.9149 -0.0717
14341TIP3    H164514   0.497   5.043   0.711 -0.6968 -0.2130 -2.4193
14341TIP3    H264515   0.359   4.986   0.737 -0.6745  0.3035 -1.1419
14342TIP3   OH264516   4.049   6.591  14.851  0.5411  0.0532 -0.0200
14342TIP3    H164517   4.051   6.673  14.801  1.6475  1.0236  1.5750
14342TIP3    H264518   4.116   6.536  14.810  0.7682  0.4701 -0.2078
14343TIP3   OH264519   2.906   2.597  10.492 -0.8301  0.1494 -0.2124
14343TIP3    H164520   2.811   2.605  10.478 -0.6379  1.2300 -0.9439
14343TIP3    H264521   2.938   2.555  10.413 -0.9169 -1.7947  0.7638
14344TIP3   OH264522   0.212   3.293  15.123  0.0613  0.3215 -0.1103
14344TIP3    H164523   0.129   3.256  15.093  0.2654 -1.3342  1.2596
14344TIP3    H264524   0.266   3.300  15.044 -0.9859  0.3319 -0.8324
14345TIP3   OH264525   0.666   4.824   5.933  1.2692 -0.3203  0.4934
14345TIP3    H164526   0.593   4.800   5.990  1.7561 -1.9228  0.4897
14345TIP3    H264527   0.654   4.771   5.855  1.9942 -0.0145  0.1662
14346TIP3   OH264528   2.515   3.147   5.706 -0.1626 -0.2627  0.2816
14346TIP3    H164529   2.517   3.057   5.738  3.1942 -0.2790  0.2681
14346TIP3    H264530   2.477   3.198   5.778  0.9573 -1.2573  1.5846
14347TIP3   OH264531   4.014   5.350  13.537 -0.2255  0.1852  0.3411
14347TIP3    H164532   3.983   5.266  13.503  0.3945  1.0109 -2.4273
14347TIP3    H264533   3.943   5.381  13.593 -0.0063 -2.6546  2.3337
14348TIP3   OH264534   0.971   6.091  12.328  0.2859 -0.9765  0.1531
14348TIP3    H164535   1.001   6.027  12.263  2.3073 -1.1953  1.2566
14348TIP3    H264536   0.920   6.040  12.390  1.0131 -1.3468  0.4557
14349TIP3   OH264537   1.266   5.040   3.602 -0.4604  0.0284 -0.3571
14349TIP3    H164538   1.350   5.029   3.558 -0.5688 -3.2747  0.1234
14349TIP3    H264539   1.273   5.124   3.646  2.5579 -0.1368 -0.4237
14350TIP3   OH264540   3.793   4.940  16.866 -1.3272 -0.3232 -0.0750
14350TIP3    H164541   3.766   5.032  16.873 -1.2306 -0.4544  2.3660
14350TIP3    H264542   3.789   4.922  16.772 -0.9832  2.2811 -0.6536
14351TIP3   OH264543   5.127   3.308   2.593 -0.0967  0.0021 -0.1156
14351TIP3    H164544   5.057   3.263   2.641  0.4674  1.1058  1.8147
14351TIP3    H264545   5.081   3.372   2.538 -0.6576  0.0874  0.4482
14352TIP3   OH264546   6.776   5.351   0.850  0.6581 -0.6170  0.1990
14352TIP3    H164547   6.706   5.292   0.822  1.7742 -1.5377 -0.6935
14352TIP3    H264548   6.857   5.306   0.826  1.5738  0.2388  1.6143
14353TIP3   OH264549   5.401   6.081  14.134  0.4322 -0.1246 -0.0928
14353TIP3    H164550   5.464   6.153  14.123  0.2996 -0.1168 -0.8442
14353TIP3    H264551   5.369   6.090  14.223  0.8793  0.3779  0.0182
14354TIP3   OH264552   2.977   4.305  12.873 -0.2503 -0.1270  0.2767
14354TIP3    H164553   2.899   4.317  12.818  0.4700 -2.8127 -1.4754
14354TIP3    H264554   2.965   4.218  12.913  0.4229  0.7398  2.4214
14355TIP3   OH264555   0.473   1.149  13.498  0.3188 -0.1628  0.2922
14355TIP3    H164556   0.479   1.060  13.532 -0.0058  0.3296  1.6543
14355TIP3    H264557   0.485   1.139  13.403  2.5705 -1.3952  0.6765
14356TIP3   OH264558   1.274   2.721  15.880  0.4617  0.1987  0.3811
14356TIP3    H164559   1.268   2.763  15.794  0.3737 -1.1739 -0.3056
14356TIP3    H264560   1.227   2.638  15.869  0.9158 -0.2257  1.5983
14357TIP3   OH264561   4.041   5.690   0.999  0.3913  0.2423 -0.1451
14357TIP3    H164562   4.031   5.661   1.089 -0.4703  1.2791  0.1067
14357TIP3    H264563   4.113   5.753   1.001 -0.5358  1.3179  0.0869
14358TIP3   OH264564   2.193   2.555  11.307 -0.3359  0.4867  0.7182
14358TIP3    H164565   2.097   2.559  11.308 -0.3018  1.2191  1.1679
14358TIP3    H264566   2.219   2.621  11.243 -0.2017 -1.4878 -1.3563
14359TIP3   OH264567   6.702   4.439   3.991 -0.1494 -0.3033 -0.2044
14359TIP3    H164568   6.704   4.398   3.904 -1.9805 -1.7990  0.4141
14359TIP3    H264569   6.666   4.370   4.048  0.8145  0.7418  1.6862
14360TIP3   OH264570   5.080   2.315  10.641  0.0861 -0.6493  0.0923
14360TIP3    H164571   5.122   2.234  10.610  1.6681 -0.3552  1.4361
14360TIP3    H264572   5.135   2.385  10.608 -1.5030 -0.0571 -1.4052
14361TIP3   OH264573   6.625   1.844   4.902  0.0199  0.4872 -0.2039
14361TIP3    H164574   6.658   1.906   4.838 -1.1522  0.6112 -0.6924
14361TIP3    H264575   6.541   1.814   4.867 -1.5286  1.8940  2.0989
14362TIP3   OH264576   4.164   3.183  11.748  0.2724  0.1684  0.4858
14362TIP3    H164577   4.214   3.113  11.790 -0.0266 -1.2241 -1.4094
14362TIP3    H264578   4.192   3.262  11.793  0.2295 -1.2069  3.0451
14363TIP3   OH264579   6.677   0.467  10.875  0.4639 -0.6212  0.0836
14363TIP3    H164580   6.691   0.550  10.831  0.1628 -0.9544 -0.6358
14363TIP3    H264581   6.689   0.401  10.807 -1.7543 -1.0560  0.0699
14364TIP3   OH264582   3.074   5.979  16.358  0.7736 -0.0228 -1.0444
14364TIP3    H164583   3.080   6.058  16.304 -1.3450 -0.1546 -1.5133
14364TIP3    H264584   3.087   6.010  16.448 -0.3732  0.9276 -1.1896
14365TIP3   OH264585   2.447   1.171   4.108  0.3079  0.6778  0.6114
14365TIP3    H164586   2.354   1.152   4.112  0.5770 -0.4402  2.1623
14365TIP3    H264587   2.460   1.240   4.172  0.7856 -0.2706  1.5516
14366TIP3   OH264588   6.583   6.115   1.002  0.0553 -0.0272 -0.2568
14366TIP3    H164589   6.509   6.163   1.038  1.7569  1.8502  0.9176
14366TIP3    H264590   6.558   6.094   0.913 -1.7445  0.8799  0.0121
14367TIP3   OH264591   1.038   2.529  12.715  0.0268 -0.1937 -0.0960
14367TIP3    H164592   0.965   2.588  12.735  0.9561  0.7349  0.6597
14367TIP3    H264593   1.081   2.515  12.800  0.9295 -0.4459 -0.5877
14368TIP3   OH264594   4.965   0.386   5.255  0.0388 -0.2421 -0.0315
14368TIP3    H164595   4.869   0.390   5.261  0.1868  2.2392  1.9676
14368TIP3    H264596   4.990   0.325   5.324 -0.0204  1.3750  1.4809
14369TIP3   OH264597   4.141   2.363   4.582 -0.3476 -0.6601 -0.6974
14369TIP3    H164598   4.133   2.442   4.635  0.7258 -0.5855 -0.6447
14369TIP3    H264599   4.146   2.393   4.492 -0.9828 -0.7267 -0.7576
14370TIP3   OH264600   2.070   5.450  16.535  0.0337  0.0471 -0.1186
14370TIP3    H164601   2.118   5.420  16.613  1.4935 -1.0512 -1.4099
14370TIP3    H264602   1.994   5.392  16.530  0.4674 -0.5402 -0.0553
14371TIP3   OH264603   0.314   4.679  13.663  0.3353  1.1218  0.2392
14371TIP3    H164604   0.295   4.710  13.574 -0.1178  0.0075 -0.0590
14371TIP3    H264605   0.305   4.584  13.657  0.4804  1.0355  1.4369
14372TIP3   OH264606   4.512   5.541   3.913  0.4871 -0.0475 -0.0104
14372TIP3    H164607   4.598   5.582   3.919 -0.9155  2.6363  3.1252
14372TIP3    H264608   4.468   5.586   3.841  1.6807 -1.5149 -1.7057
14373TIP3   OH264609   4.718   6.556  13.022  0.6534  0.5917  0.1787
14373TIP3    H164610   4.643   6.554  13.081 -0.0291 -0.6326 -0.7155
14373TIP3    H264611   4.752   6.467  13.024 -0.3699  0.1026 -2.5305
14374TIP3   OH264612   0.234   5.622  15.646  0.1442  0.1496  0.0577
14374TIP3    H164613   0.279   5.631  15.731  0.7901 -1.4178 -0.1015
14374TIP3    H264614   0.150   5.581  15.668  0.0840  0.2458  0.0054
14375TIP3   OH264615   6.599   2.539   2.989  0.0151  0.2126 -0.4670
14375TIP3    H164616   6.586   2.623   2.945  2.0892  0.7134 -0.1703
14375TIP3    H264617   6.672   2.499   2.943  0.1990 -0.6437  0.5529
14376TIP3   OH264618   5.117   5.383   4.641 -0.4264 -0.0655  0.1876
14376TIP3    H164619   5.188   5.329   4.677 -1.3766  1.6581  4.9862
14376TIP3    H264620   5.063   5.321   4.592  1.0759 -2.5926  1.5798
14377TIP3   OH264621   2.801   0.440  15.265 -0.3066  0.1561 -0.1173
14377TIP3    H164622   2.767   0.496  15.196 -0.7506 -0.1277 -0.1266
14377TIP3    H264623   2.738   0.368  15.272  0.7646 -0.8554 -0.7689
14378TIP3   OH264624   1.031   6.785   4.763 -0.0653 -0.1949  0.0178
14378TIP3    H164625   1.084   6.761   4.838  0.2390 -0.0720 -0.1535
14378TIP3    H264626   1.042   6.713   4.701 -2.5306 -1.6267  1.1897
14379TIP3   OH264627   4.978   3.929  17.275  0.2705  0.1309  0.1124
14379TIP3    H164628   4.940   3.982  17.205  0.9283  0.2517 -0.1582
14379TIP3    H264629   5.058   3.975  17.299  1.5887 -1.4767 -1.0957
14380TIP3   OH264630   5.128   6.494   5.249  0.1525 -0.3269 -0.1821
14380TIP3    H164631   5.182   6.498   5.328 -0.1543  0.8869 -0.0231
14380TIP3    H264632   5.042   6.469   5.281  0.7872 -3.1462 -0.5358
14381TIP3   OH264633   1.975   1.584  16.550 -1.2341  0.2280 -0.1201
14381TIP3    H164634   2.058   1.582  16.501 -1.3661 -3.3243 -0.3219
14381TIP3    H264635   1.909   1.566  16.484 -1.8230 -0.5367  0.6794
14382TIP3   OH264636   4.090   2.406   1.583 -0.4037  0.5833  1.1864
14382TIP3    H164637   4.164   2.345   1.591 -0.4407  0.2699 -0.6615
14382TIP3    H264638   4.131   2.493   1.586  0.3093  0.4091 -1.6650
14383TIP3   OH264639   5.473   5.597  12.867 -0.3052  0.4547 -0.1320
14383TIP3    H164640   5.396   5.651  12.883 -1.0213  0.0919 -2.2569
14383TIP3    H264641   5.474   5.535  12.940 -1.2757  1.2898  0.6086
14384TIP3   OH264642   3.722   3.504  15.373 -0.4419 -0.1755 -0.5366
14384TIP3    H164643   3.701   3.587  15.415  2.5589 -0.0159  0.8408
14384TIP3    H264644   3.717   3.439  15.443  1.0701 -0.4919 -0.6865
14385TIP3   OH264645   1.508   2.269  13.667 -0.1728  0.5749  0.5582
14385TIP3    H164646   1.556   2.225  13.736  0.5563  1.4973  0.6518
14385TIP3    H264647   1.575   2.317  13.618 -0.7265  0.2053 -0.5733
14386TIP3   OH264648   5.177   4.663   2.895  0.1548  0.4105  0.1475
14386TIP3    H164649   5.091   4.704   2.891 -0.5364 -1.0055  0.0649
14386TIP3    H264650   5.159   4.569   2.889  1.7401  0.1260 -0.4123
14387TIP3   OH264651   3.345   5.943   6.610  0.0747 -0.7346  0.3967
14387TIP3    H164652   3.433   5.978   6.624  0.0887  0.0737 -1.5175
14387TIP3    H264653   3.292   6.020   6.588 -1.4051 -1.0467  2.6510
14388TIP3   OH264654   6.024   1.988   4.381  0.9434 -0.0890 -0.8699
14388TIP3    H164655   6.021   1.919   4.315  1.1230  0.2351 -1.2184
14388TIP3    H264656   5.948   2.044   4.361  0.7827 -0.1990 -0.5725
14389TIP3   OH264657   4.025   6.488  15.122 -0.3590 -0.3225  0.1255
14389TIP3    H164658   4.110   6.449  15.141 -0.9457 -0.9817  1.4532
14389TIP3    H264659   4.030   6.513  15.030  1.9929  1.4997  0.7231
14390TIP3   OH264660   3.170   2.501  14.565 -0.0003 -0.6621 -0.4629
14390TIP3    H164661   3.262   2.485  14.545  0.4753 -1.1754  1.9900
14390TIP3    H264662   3.162   2.596  14.565  1.0269 -0.5517  1.3393
14391TIP3   OH264663   1.450   1.799   3.140  0.1057  0.3022  0.4953
14391TIP3    H164664   1.416   1.810   3.052  0.5832 -2.6101 -0.0929
14391TIP3    H264665   1.542   1.827   3.134 -0.2083  1.3029  0.3731
14392TIP3   OH264666   5.395   0.606   1.099 -0.2459  0.1053 -0.4508
14392TIP3    H164667   5.349   0.662   1.162  0.8358  0.5112 -0.0135
14392TIP3    H264668   5.430   0.534   1.152  0.3744  0.2670 -0.6319
14393TIP3   OH264669   0.713   2.052  11.333  0.5169  0.1662  0.0123
14393TIP3    H164670   0.671   2.129  11.371 -0.7091  0.2096 -1.4025
14393TIP3    H264671   0.688   1.980  11.391  0.2887  0.5512  0.3905
14394TIP3   OH264672   6.150   5.591   1.279 -0.1735  0.3143 -0.3721
14394TIP3    H164673   6.059   5.579   1.308  0.4025 -1.1872  0.9024
14394TIP3    H264674   6.201   5.590   1.360  1.1543 -0.6072 -1.1972
14395TIP3   OH264675   5.090   2.141   2.225 -0.3661  0.3686  0.1594
14395TIP3    H164676   5.040   2.104   2.298 -1.5526 -0.5209 -1.0856
14395TIP3    H264677   5.089   2.072   2.159 -0.1685  1.5628 -1.1014
14396TIP3   OH264678   4.003   3.987  17.080 -0.2090  0.3888 -0.1049
14396TIP3    H164679   4.093   3.970  17.111 -0.2825  2.1420  1.1440
14396TIP3    H264680   3.952   3.913  17.114  0.7185 -0.5243 -0.6652
14397TIP3   OH264681   5.369   5.420   2.903  0.0270  0.2381  0.1853
14397TIP3    H164682   5.378   5.380   2.817  0.1702  0.6323  0.0178
14397TIP3    H264683   5.339   5.348   2.959  1.0833 -0.3088  0.0586
14398TIP3   OH264684   5.645   4.498  13.995 -0.9875  0.1878 -0.2785
14398TIP3    H164685   5.723   4.449  14.020 -0.5551 -0.0544 -2.0777
14398TIP3    H264686   5.577   4.432  13.984 -1.1072  0.2693 -0.0481
14399TIP3   OH264687   3.076   4.024   0.894 -0.1636  0.3214 -0.3368
14399TIP3    H164688   3.121   3.966   0.832  0.7970 -0.2887  0.8998
14399TIP3    H264689   2.984   4.015   0.873  0.1911  0.4448 -1.9528
14400TIP3   OH264690   6.085   2.396  17.181 -0.3753  0.1744  0.0763
14400TIP3    H164691   6.051   2.375  17.268 -0.9441  1.8756  0.2652
14400TIP3    H264692   6.057   2.322  17.126 -0.5890 -0.5758  1.1781
14401TIP3   OH264693   2.384   2.869  14.631  0.5372  0.2797  0.3636
14401TIP3    H164694   2.382   2.883  14.726  1.6966 -2.1669  0.7636
14401TIP3    H264695   2.402   2.776  14.620  0.6570  0.5713 -2.2816
14402TIP3   OH264696   5.783   6.604   1.486  0.3147 -0.1744  0.3937
14402TIP3    H164697   5.713   6.641   1.432 -1.3340 -0.8317  2.0470
14402TIP3    H264698   5.738   6.544   1.546  2.5739 -2.5121 -0.1798
14403TIP3   OH264699   5.140   5.102   5.073  0.7561 -0.3115 -0.1541
14403TIP3    H164700   5.219   5.065   5.112  0.1545 -0.9834  0.4357
14403TIP3    H264701   5.072   5.038   5.093  0.0428  0.3185 -0.5763
14404TIP3   OH264702   6.270   4.227  14.941  0.2369 -0.1679  0.9288
14404TIP3    H164703   6.312   4.242  14.857 -0.1110  2.1910  1.1467
14404TIP3    H264704   6.177   4.218  14.920  0.2340 -0.2562  0.9809
14405TIP3   OH264705   3.531   1.143   3.979  0.0695 -0.4110 -0.3509
14405TIP3    H164706   3.441   1.110   3.977 -0.3016  0.4843  0.8357
14405TIP3    H264707   3.581   1.074   4.022 -0.6075  0.2875  1.6380
14406TIP3   OH264708   5.113   5.551  14.737  0.2301 -0.0780  0.0634
14406TIP3    H164709   5.059   5.554  14.658 -0.1603  1.5466  0.3748
14406TIP3    H264710   5.189   5.498  14.713 -0.2103 -0.1440 -1.1982
14407TIP3   OH264711   1.536   4.840  16.612 -0.3467 -0.8131 -0.0699
14407TIP3    H164712   1.555   4.746  16.608  0.5082 -0.7601  1.7403
14407TIP3    H264713   1.622   4.881  16.621 -0.8173 -0.0086  0.9780
14408TIP3   OH264714   0.943   5.776  16.177 -0.4333  0.4017 -0.4920
14408TIP3    H164715   0.855   5.774  16.215 -1.1273  1.6558 -1.9752
14408TIP3    H264716   0.996   5.821  16.241 -1.2817  1.2565 -0.3802
14409TIP3   OH264717   5.555   3.831  12.506  0.3899 -0.0153  0.1583
14409TIP3    H164718   5.557   3.813  12.413 -2.0758 -0.5437  0.1671
14409TIP3    H264719   5.462   3.841  12.527  0.9890  1.9115  2.2067
14410TIP3   OH264720   5.440   3.548  13.567 -0.4196  0.3191 -0.4085
14410TIP3    H164721   5.432   3.642  13.547 -0.6231  0.0417 -1.6655
14410TIP3    H264722   5.530   3.526  13.545 -0.2093  0.3373  0.4207
14411TIP3   OH264723   0.339   1.623   0.481  0.6119 -0.6739 -0.3550
14411TIP3    H164724   0.360   1.570   0.557 -0.8446 -2.1683 -0.9645
14411TIP3    H264725   0.417   1.677   0.466  0.5474  0.3511  2.7560
14412TIP3   OH264726   4.649   4.635  17.142  0.0363  0.0685 -0.4999
14412TIP3    H164727   4.613   4.674  17.221 -0.5057 -0.2087 -0.6030
14412TIP3    H264728   4.732   4.680  17.128  0.8420 -0.9026  1.0363
14413TIP3   OH264729   1.152   2.414   3.341 -0.2475 -0.1664 -0.6046
14413TIP3    H164730   1.162   2.478   3.271 -1.0261  0.6990  0.0449
14413TIP3    H264731   1.100   2.343   3.303  0.0914 -0.1205 -1.1504
14414TIP3   OH264732   3.490   1.222  15.557  0.0355 -0.6609  0.2873
14414TIP3    H164733   3.493   1.309  15.517 -1.9094 -0.8980 -0.4328
14414TIP3    H264734   3.576   1.184  15.538  1.6904  1.8317  2.3916
14415TIP3   OH264735   0.487   1.903   3.159 -0.3698 -0.0342  0.5040
14415TIP3    H164736   0.518   1.850   3.085  0.7258 -0.1450  1.0228
14415TIP3    H264737   0.396   1.922   3.139 -0.4437 -1.1407 -0.2598
14416TIP3   OH264738   2.756   6.057   5.252  0.0058  0.5201 -0.4213
14416TIP3    H164739   2.674   6.076   5.207 -0.6649 -0.3100  0.4209
14416TIP3    H264740   2.738   5.976   5.301  1.7218 -0.4279 -1.2883
14417TIP3   OH264741   4.540   3.162   5.047  0.1218 -0.0242  0.5141
14417TIP3    H164742   4.611   3.117   5.093 -1.1513 -0.2787  2.2649
14417TIP3    H264743   4.514   3.102   4.977 -0.7156 -1.4674  2.0532
14418TIP3   OH264744   6.156   1.804   0.761  0.1653  0.1485  0.3867
14418TIP3    H164745   6.062   1.788   0.764 -0.0037  1.1864  0.5867
14418TIP3    H264746   6.179   1.831   0.850  0.5600  0.4121  0.2079
14419TIP3   OH264747   3.664   1.454  16.245 -0.6730  0.1038 -0.5835
14419TIP3    H164748   3.639   1.448  16.153 -1.6992 -0.9228 -0.2655
14419TIP3    H264749   3.627   1.375  16.285 -1.4779  1.2329  0.9849
14420TIP3   OH264750   2.721   5.631   1.850  0.1658 -0.1089 -0.6051
14420TIP3    H164751   2.778   5.608   1.776 -2.4379 -1.9757 -2.1109
14420TIP3    H264752   2.691   5.720   1.830 -1.1304 -0.8749 -2.2530
14421TIP3   OH264753   6.020   4.991   1.227  0.1560  0.4782  0.2633
14421TIP3    H164754   6.013   4.917   1.288  0.8692  0.3098  0.1365
14421TIP3    H264755   5.931   5.000   1.191 -0.5755  1.3858  2.2555
14422TIP3   OH264756   3.044   3.914  13.020 -0.7220 -0.1332 -0.1899
14422TIP3    H164757   3.081   3.883  13.103  0.0253  1.2732  0.0220
14422TIP3    H264758   3.106   3.883  12.954 -0.8675 -0.5364 -0.1355
14423TIP3   OH264759   3.011   5.202   1.427  0.1024  0.3406 -0.3670
14423TIP3    H164760   3.021   5.114   1.390 -1.4011  0.8050 -1.9148
14423TIP3    H264761   3.097   5.221   1.465  0.5453 -1.6648 -0.3040
14424TIP3   OH264762   3.742   0.941  13.471  0.4189  0.0758  1.0454
14424TIP3    H164763   3.836   0.954  13.463  0.3836  0.2234  0.8615
14424TIP3    H264764   3.713   0.917  13.383 -0.1646  3.0035  0.3845
14425TIP3   OH264765   2.997   2.540  13.265  0.1743 -0.3583  0.3624
14425TIP3    H164766   2.947   2.543  13.346  1.3823 -0.9106  1.1292
14425TIP3    H264767   3.071   2.599  13.278  0.6982 -0.8949 -0.1037
14426TIP3   OH264768   3.593   0.921  16.483 -0.1349 -0.3285 -0.4269
14426TIP3    H164769   3.680   0.901  16.516 -0.3386 -0.4973  0.0060
14426TIP3    H264770   3.580   0.859  16.411  0.1012 -0.3016 -0.4920
14427TIP3   OH264771   4.783   4.014  17.073  0.3875 -0.4248 -0.3290
14427TIP3    H164772   4.691   4.031  17.091  0.3400 -0.9752 -0.0533
14427TIP3    H264773   4.801   4.063  16.993 -0.7574 -2.2335 -1.7178
14428TIP3   OH264774   6.523   6.762   2.062  0.1554 -0.2200  0.2905
14428TIP3    H164775   6.441   6.754   2.111  0.3430 -0.5167  0.5504
14428TIP3    H264776   6.523   6.853   2.032 -0.1496 -0.1478  0.5038
14429TIP3   OH264777   5.618   0.227  16.954  0.4325  0.1053 -0.0580
14429TIP3    H164778   5.656   0.154  17.003 -0.1509  0.3222  0.7289
14429TIP3    H264779   5.633   0.303  17.009 -1.1513  0.1883  0.2803
14430TIP3   OH264780   4.189   2.832   0.575  0.1839  0.8029 -0.3285
14430TIP3    H164781   4.247   2.881   0.633 -0.2183  0.6949  0.1729
14430TIP3    H264782   4.101   2.849   0.609 -0.1527  1.6700 -1.6190
14431TIP3   OH264783   4.615   5.903   1.137 -0.5143  0.0928 -0.1910
14431TIP3    H164784   4.654   5.914   1.223 -0.5964 -0.9601 -0.0213
14431TIP3    H264785   4.622   5.990   1.097  2.8879 -0.2536 -0.5298
14432TIP3   OH264786   3.085   3.446   5.554  0.5440  0.0759 -0.3407
14432TIP3    H164787   3.136   3.526   5.566 -0.0781  0.6916 -1.7214
14432TIP3    H264788   3.034   3.462   5.475 -2.1129 -0.3668  1.2209
14433TIP3   OH264789   5.288   5.079   0.414  0.8322 -0.0027  0.4865
14433TIP3    H164790   5.249   5.053   0.331 -0.2671 -0.0916  1.0307
14433TIP3    H264791   5.215   5.086   0.474  1.6746 -0.3195  1.5570
14434TIP3   OH264792   4.313   6.792  13.397  0.2898 -0.2947 -0.3020
14434TIP3    H164793   4.271   6.879  13.393  1.8953  0.4559 -1.2290
14434TIP3    H264794   4.241   6.732  13.417 -0.5435  1.4728  2.3695
14435TIP3   OH264795   3.044   5.624  14.982  0.4547 -0.2349 -0.6167
14435TIP3    H164796   3.040   5.583  14.895  0.2795  1.5756 -1.4927
14435TIP3    H264797   2.953   5.641  15.004  0.5148 -0.5205 -0.1479
14436TIP3   OH264798   0.452   1.791  13.518  0.2962  0.0227  0.0087
14436TIP3    H164799   0.488   1.708  13.547  1.2239  0.7689  1.0342
14436TIP3    H264800   0.412   1.829  13.596  0.3972  0.8087 -0.3144
14437TIP3   OH264801   2.042   2.992   4.592  0.9074 -0.0098 -0.0650
14437TIP3    H164802   1.999   2.908   4.608  1.5674 -0.3071  0.1904
14437TIP3    H264803   2.134   2.969   4.575  0.9220  0.5894 -0.8514
14438TIP3   OH264804   3.196   2.055   4.865  0.0308  0.2603  0.2722
14438TIP3    H164805   3.120   2.106   4.840 -1.8930 -2.3244  0.6482
14438TIP3    H264806   3.228   2.096   4.946  0.0056  2.3011 -0.7351
14439TIP3   OH264807   3.267   6.440  16.835 -0.3380 -0.2189 -0.1149
14439TIP3    H164808   3.293   6.530  16.815  0.8558 -0.6006 -0.3091
14439TIP3    H264809   3.318   6.386  16.774  0.6230 -1.1656  1.5100
14440TIP3   OH264810   2.960   3.357   3.980  0.1848  0.7425 -0.2350
14440TIP3    H164811   2.990   3.439   4.020 -0.9761  0.7598  0.6143
14440TIP3    H264812   2.916   3.310   4.051  1.6004 -1.0262 -0.4661
14441TIP3   OH264813   4.879   4.873   0.423  0.1281 -0.3126  0.3483
14441TIP3    H164814   4.946   4.891   0.357  0.5770 -0.0104  0.8854
14441TIP3    H264815   4.877   4.951   0.477 -0.0489 -0.6706  0.8612
14442TIP3   OH264816   5.953   4.145  15.049 -0.1742 -0.2627  0.4489
14442TIP3    H164817   6.002   4.088  15.109 -2.1254 -1.6155  0.8354
14442TIP3    H264818   5.889   4.086  15.010  0.3713  0.8583 -2.1744
14443TIP3   OH264819   0.161   0.833  14.151 -0.5703 -0.3737 -0.2435
14443TIP3    H164820   0.193   0.829  14.242 -2.0647 -0.7310  0.2741
14443TIP3    H264821   0.241   0.845  14.099  0.2508  0.4673  1.1573
14444TIP3   OH264822   6.456   3.766  16.371  0.3158 -0.1647 -0.5411
14444TIP3    H164823   6.507   3.690  16.342  1.0974 -0.0280  0.4283
14444TIP3    H264824   6.447   3.753  16.466  0.2508  0.8281 -0.4113
14445TIP3   OH264825   6.774   1.357   5.918  0.1429  0.1882 -0.4287
14445TIP3    H164826   6.777   1.334   6.010  2.3622  1.6009 -0.0939
14445TIP3    H264827   6.750   1.276   5.873  0.9677 -1.0046  1.2249
14446TIP3   OH264828   1.320   4.227   3.258  0.2011 -0.3677 -0.2491
14446TIP3    H164829   1.270   4.149   3.233 -0.8477  0.1225  0.2535
14446TIP3    H264830   1.319   4.226   3.354  0.8650 -0.1690 -0.2418
14447TIP3   OH264831   1.118   5.913   5.376 -0.5203  0.0041 -0.6875
14447TIP3    H164832   1.061   5.931   5.301 -0.7333 -0.5820 -0.6722
14447TIP3    H264833   1.181   5.848   5.344  1.8473  2.6443 -1.4877
14448TIP3   OH264834   5.311   2.140   5.229  0.2726 -0.5507  0.2829
14448TIP3    H164835   5.382   2.095   5.181  2.3984 -0.7941  3.4953
14448TIP3    H264836   5.351   2.223   5.258 -0.4842 -0.9945  2.7126
14449TIP3   OH264837   5.384   0.232  14.033 -0.3228 -0.2054 -0.1737
14449TIP3    H164838   5.473   0.216  14.064  0.2670  5.1089  1.3657
14449TIP3    H264839   5.329   0.217  14.109 -0.2836  0.4809 -0.0088
14450TIP3   OH264840   1.307   2.098  15.306 -0.0190  0.0480  0.1084
14450TIP3    H164841   1.263   2.015  15.324 -1.9319  0.7478 -1.1164
14450TIP3    H264842   1.235   2.161  15.295  1.2385  1.0526 -2.8344
14451TIP3   OH264843   4.310   0.102   4.252 -0.6696  0.0541 -0.2302
14451TIP3    H164844   4.402   0.088   4.272 -1.5326 -1.4042  3.0578
14451TIP3    H264845   4.310   0.165   4.180  2.8608  0.0444 -0.3104
14452TIP3   OH264846   0.450   3.333   4.236  0.3500 -0.1770  0.4494
14452TIP3    H164847   0.391   3.277   4.187 -1.0410 -0.0026  1.9030
14452TIP3    H264848   0.517   3.359   4.173 -1.3332 -0.0663 -1.3161
14453TIP3   OH264849   3.926   1.639   2.136 -0.0510 -0.0757 -1.0983
14453TIP3    H164850   3.967   1.698   2.200 -0.8581 -0.9776  0.2830
14453TIP3    H264851   3.990   1.632   2.066  0.1567  2.2548 -1.1807
14454TIP3   OH264852   5.230   2.432  11.938 -0.1898  0.2206 -0.0860
14454TIP3    H164853   5.253   2.499  11.873 -0.8161  1.2769  0.7756
14454TIP3    H264854   5.142   2.456  11.968  0.3336  0.0788  1.5951
14455TIP3   OH264855   3.358   2.764   0.352  0.2984 -0.4652 -0.2653
14455TIP3    H164856   3.418   2.724   0.415  0.7432 -0.0578 -0.4233
14455TIP3    H264857   3.414   2.784   0.276 -0.0788 -0.2654 -0.4913
14456TIP3   OH264858   1.347   6.153   6.338  0.4528  0.1064  0.1777
14456TIP3    H164859   1.428   6.149   6.287  0.2186  1.9871 -0.3806
14456TIP3    H264860   1.359   6.086   6.406  1.3236 -1.5206 -1.5084
14457TIP3   OH264861   0.601   5.535   2.141 -0.8427  0.0126 -0.2668
14457TIP3    H164862   0.571   5.446   2.120  1.1033 -0.4581 -1.1542
14457TIP3    H264863   0.653   5.525   2.220 -0.9342  0.4166 -0.1549
14458TIP3   OH264864   1.618   5.249   1.583  0.0098 -0.0271  0.3474
14458TIP3    H164865   1.618   5.215   1.493 -0.9200 -0.9329  0.6817
14458TIP3    H264866   1.552   5.196   1.629  0.2098  0.6799  1.4688
14459TIP3   OH264867   5.453   2.569  12.724 -0.3769  0.0123  0.0035
14459TIP3    H164868   5.533   2.519  12.710 -0.4066 -0.5494  1.7224
14459TIP3    H264869   5.448   2.628  12.649  1.8087  0.2612  0.0152
14460TIP3   OH264870   1.875   1.751   2.151  0.0155 -0.1509  0.7723
14460TIP3    H164871   1.871   1.831   2.204 -0.3634 -0.1112  0.6870
14460TIP3    H264872   1.815   1.768   2.078 -0.9463 -0.9516  1.3600
14461TIP3   OH264873   6.090   3.308  14.219 -0.5902  0.1870  0.4938
14461TIP3    H164874   6.086   3.329  14.313  0.1354 -1.2156  0.8447
14461TIP3    H264875   6.183   3.300  14.200 -0.7152  0.8735 -0.4567
14462TIP3   OH264876   4.066   5.835   2.460 -0.1574  0.5657  0.0390
14462TIP3    H164877   4.065   5.739   2.462 -0.0245  0.5694  0.2822
14462TIP3    H264878   3.974   5.859   2.463 -0.2319  0.4271 -0.9645
14463TIP3   OH264879   4.304   1.319  11.242 -0.2386  0.0008 -0.1173
14463TIP3    H164880   4.344   1.393  11.197  0.6121 -0.2573  0.1991
14463TIP3    H264881   4.365   1.298  11.313  0.2197 -1.8754 -1.0251
14464TIP3   OH264882   1.405   2.305   5.248 -0.3913  0.7878  0.0141
14464TIP3    H164883   1.322   2.329   5.208  1.3351  2.6549 -2.6044
14464TIP3    H264884   1.422   2.374   5.312 -1.3894 -0.2418  1.4263
14465TIP3   OH264885   4.878   3.169   3.291  0.9555 -0.6847 -0.4841
14465TIP3    H164886   4.828   3.088   3.285  0.7268 -0.4855 -1.3103
14465TIP3    H264887   4.962   3.143   3.330 -0.4252 -0.7184  2.5628
14466TIP3   OH264888   2.099   4.157   2.729 -0.0153 -0.3761 -0.7431
14466TIP3    H164889   2.040   4.125   2.661 -0.9056 -0.4294  0.0406
14466TIP3    H264890   2.092   4.253   2.723  0.6736 -0.3643 -1.3863
14467TIP3   OH264891   0.199   3.781   1.792  0.1160 -0.2435 -0.5483
14467TIP3    H164892   0.105   3.772   1.807 -0.0141 -0.7200 -1.6108
14467TIP3    H264893   0.207   3.851   1.727  0.5317  0.1800 -0.0479
14468TIP3   OH264894   6.663   1.018   2.343  0.0399  0.1408 -0.4153
14468TIP3    H164895   6.734   0.986   2.287  0.3626  0.4934 -0.2167
14468TIP3    H264896   6.587   0.967   2.318  0.7086 -1.3253  0.4312
14469TIP3   OH264897   5.487   3.610  11.567 -0.0610 -0.2006 -0.4928
14469TIP3    H164898   5.546   3.617  11.492 -1.8059  0.9958 -1.8077
14469TIP3    H264899   5.450   3.522  11.561  0.4769 -0.4207 -0.5388
14470TIP3   OH264900   3.140   6.755   1.449 -0.5910  0.2787 -0.0573
14470TIP3    H164901   3.172   6.768   1.360  0.0310  0.6309  0.2197
14470TIP3    H264902   3.090   6.834   1.468  0.9404  1.1040  0.6326
14471TIP3   OH264903   4.097   1.233   5.718 -0.5437  0.3118  0.3134
14471TIP3    H164904   4.079   1.289   5.642 -0.8450 -0.4383 -0.1684
14471TIP3    H264905   4.179   1.267   5.754 -0.6871  1.0176 -0.0206
14472TIP3   OH264906   2.408   6.470  15.164 -0.1204 -0.1616 -0.1520
14472TIP3    H164907   2.463   6.403  15.124 -1.6818 -1.7824  0.3976
14472TIP3    H264908   2.439   6.477  15.254  0.0768 -0.1089 -0.2252
14473TIP3   OH264909   1.415   3.691  14.069  0.2206 -0.0829 -0.0239
14473TIP3    H164910   1.493   3.741  14.045 -1.0494  1.2044 -1.5743
14473TIP3    H264911   1.388   3.728  14.153 -0.5040  1.6236 -0.9870
14474TIP3   OH264912   4.777   3.055   5.151 -0.0112  0.4737  0.6765
14474TIP3    H164913   4.838   3.122   5.121 -0.8091  0.7901 -0.2713
14474TIP3    H264914   4.813   2.973   5.118  0.5904  0.5047  1.2371
14475TIP3   OH264915   5.634   3.096   0.098  0.0996  0.5253  0.0209
14475TIP3    H164916   5.557   3.072   0.046 -0.2220  1.5854 -0.0026
14475TIP3    H264917   5.607   3.082   0.188  0.5465 -0.9904 -0.0531
14476TIP3   OH264918   0.381   0.218  13.153 -0.1011 -0.5695  0.2409
14476TIP3    H164919   0.418   0.145  13.103 -1.9720 -0.6706 -1.0638
14476TIP3    H264920   0.441   0.291  13.136  0.4943 -1.1801 -0.3492
14477TIP3   OH264921   3.499   1.755   2.717 -0.1734  0.6952 -0.9162
14477TIP3    H164922   3.585   1.791   2.697  0.7863  0.1528  1.9956
14477TIP3    H264923   3.468   1.807   2.791 -0.9959 -1.1050  0.0368
14478TIP3   OH264924   2.213   4.405   2.769  0.3256  0.5387  0.6074
14478TIP3    H164925   2.241   4.364   2.851 -0.3210 -0.2696  0.4414
14478TIP3    H264926   2.293   4.417   2.719  0.5659 -0.2185  0.8063
14479TIP3   OH264927   0.853   0.434  11.403 -0.3315 -0.0245 -0.3060
14479TIP3    H164928   0.848   0.491  11.480 -1.4910  0.7309 -0.9245
14479TIP3    H264929   0.875   0.348  11.439 -1.2846  0.2185  0.9296
14480TIP3   OH264930   1.346   2.879  11.263  0.6314  0.1920  0.2881
14480TIP3    H164931   1.279   2.810  11.265  0.5825  0.2686  1.4791
14480TIP3    H264932   1.296   2.960  11.272  0.8620  0.2603  0.9680
14481TIP3   OH264933   6.179   5.586  16.005  0.0488  0.2075 -0.4253
14481TIP3    H164934   6.167   5.503  15.958  1.9436  0.7776 -2.0085
14481TIP3    H264935   6.227   5.562  16.084  1.4151 -0.1134 -1.3286
14482TIP3   OH264936   4.035   4.346   3.940 -0.7137 -0.3521  0.0431
14482TIP3    H164937   3.995   4.432   3.952  0.4080  0.3536 -1.1035
14482TIP3    H264938   3.964   4.283   3.952 -2.0371  0.8532 -1.3770
14483TIP3   OH264939   0.275   3.523  14.098 -0.8215 -0.1180 -0.4231
14483TIP3    H164940   0.220   3.520  14.020 -0.1130  0.4136 -0.9538
14483TIP3    H264941   0.356   3.565  14.069 -0.5926  0.1965  0.6190
14484TIP3   OH264942   1.018   0.327  11.194  0.2800 -0.6012 -0.0972
14484TIP3    H164943   0.947   0.385  11.221  1.9030  1.4921 -0.2166
14484TIP3    H264944   1.020   0.335  11.098  0.1080 -1.3612 -0.1704
14485TIP3   OH264945   4.949   2.316   1.988 -0.3901  0.0830  0.4026
14485TIP3    H164946   4.926   2.247   1.925  0.3507 -1.0250  1.3142
14485TIP3    H264947   5.042   2.334   1.970 -0.6784  1.1077 -0.0723
14486TIP3   OH264948   3.849   6.258  11.660 -0.0116 -0.6244 -0.6074
14486TIP3    H164949   3.927   6.207  11.685  0.3941 -0.8169 -2.2382
14486TIP3    H264950   3.871   6.348  11.684  0.6061 -0.7173 -0.8228
14487TIP3   OH264951   3.161   4.458   6.639 -0.0696 -0.1677  0.0436
14487TIP3    H164952   3.201   4.530   6.687 -0.5939  0.0884  0.1050
14487TIP3    H264953   3.077   4.494   6.609 -0.6943 -1.0241  0.7688
14488TIP3   OH264954   4.373   4.453  10.647 -0.3513 -0.0043 -0.3877
14488TIP3    H164955   4.439   4.429  10.712 -0.7016 -0.9490 -0.3729
14488TIP3    H264956   4.289   4.442  10.693 -0.5588  0.2869 -0.6935
14489TIP3   OH264957   6.801   5.999  14.199 -0.5601  0.1124  0.6371
14489TIP3    H164958   6.825   6.079  14.154 -0.4730 -0.6531 -0.7002
14489TIP3    H264959   6.881   5.974  14.246  0.6031 -1.1519 -1.9037
14490TIP3   OH264960   3.786   1.068   1.484 -0.2056 -0.5645  0.3408
14490TIP3    H164961   3.729   1.122   1.429  1.7478  1.1648 -0.0469
14490TIP3    H264962   3.726   1.008   1.529 -2.4955  2.0103  0.8847
14491TIP3   OH264963   5.868   5.593   1.375 -0.8538  0.4817  0.0815
14491TIP3    H164964   5.835   5.661   1.316 -0.9663  0.8387  0.5602
14491TIP3    H264965   5.864   5.632   1.462  1.5734  0.8306  0.0658
14492TIP3   OH264966   2.584   0.054  16.280  0.5234  0.0671  0.5126
14492TIP3    H164967   2.550   0.143  16.274 -0.1463 -0.2635 -0.8531
14492TIP3    H264968   2.568   0.016  16.194  1.9014 -0.9929  0.7025
14493TIP3   OH264969   2.358   5.307   0.170 -0.0209 -0.1092 -0.0135
14493TIP3    H164970   2.343   5.319   0.264  0.6021  0.4255  0.0210
14493TIP3    H264971   2.341   5.394   0.132  1.6162  0.1739 -0.1442
14494TIP3   OH264972   0.123   2.269  14.836 -0.2231  0.4002  0.1817
14494TIP3    H164973   0.058   2.200  14.821  0.2152  0.3772 -1.7911
14494TIP3    H264974   0.157   2.289  14.749  1.9541  0.8730  1.1003
14495TIP3   OH264975   0.979   5.549  13.849  0.1750 -0.6559  0.3355
14495TIP3    H164976   0.900   5.576  13.896 -0.1299 -0.2299 -0.4149
14495TIP3    H264977   0.985   5.455  13.863 -1.1207 -0.8851 -0.5968
14496TIP3   OH264978   2.615   3.673   3.915  0.0799 -0.2753  0.1603
14496TIP3    H164979   2.710   3.682   3.905 -0.2325  1.7427 -1.2398
14496TIP3    H264980   2.583   3.651   3.827 -0.7637 -0.9808  0.6312
14497TIP3   OH264981   4.002   0.226   4.557 -0.0218  0.3535 -0.6793
14497TIP3    H164982   3.923   0.268   4.524 -2.1253 -3.2115 -0.3895
14497TIP3    H264983   4.051   0.202   4.478  1.3637  3.3977 -0.8524
14498TIP3   OH264984   3.472   1.432   3.468 -0.1026  0.0416  0.2029
14498TIP3    H164985   3.425   1.499   3.417  0.0069 -0.6130 -0.7738
14498TIP3    H264986   3.403   1.374   3.501 -0.2104  0.7014  1.1730
14499TIP3   OH264987   6.355   2.374   5.551  0.0390 -0.3616  0.4377
14499TIP3    H164988   6.274   2.416   5.582  0.8683 -0.0062  2.2141
14499TIP3    H264989   6.384   2.428   5.478 -0.5145  0.4162  0.7835
14500TIP3   OH264990   4.309   4.422   6.879 -0.3342 -0.3501 -0.1519
14500TIP3    H164991   4.349   4.400   6.795  0.1388  1.3882 -0.4027
14500TIP3    H264992   4.266   4.506   6.863 -0.8481 -0.3588  1.1561
14501TIP3   OH264993   1.368   3.992  13.412  0.0031  0.7409 -0.3644
14501TIP3    H164994   1.386   3.899  13.426 -2.7556  0.5361  2.3502
14501TIP3    H264995   1.424   4.037  13.475  1.4016  0.9480 -1.7373
14502TIP3   OH264996   2.437   6.207   5.202  0.7126  0.1730 -0.6792
14502TIP3    H164997   2.464   6.272   5.138 -1.0198  1.2957 -0.3161
14502TIP3    H264998   2.367   6.250   5.251  1.8072 -0.7474  1.7891
14503TIP3   OH264999   4.965   4.554  14.688  0.7637 -0.7282  0.3125
14503TIP3    H165000   4.960   4.494  14.763  1.5618  0.8252  1.6458
14503TIP3    H265001   4.919   4.633  14.717  0.0702 -0.5282 -1.2690
14504TIP3   OH265002   1.890   2.731   2.437  0.2938 -0.3635  0.7668
14504TIP3    H165003   1.962   2.782   2.399  0.1576  1.1057  2.4006
14504TIP3    H265004   1.835   2.707   2.363  2.3568 -1.3385 -0.4832
14505TIP3   OH265005   3.954   0.287   1.587  0.2886 -0.3573  0.0935
14505TIP3    H165006   3.895   0.281   1.512  0.7067 -1.7125 -0.1456
14505TIP3    H265007   4.042   0.288   1.549  0.4683  0.1044  0.5121
14506TIP3   OH265008   3.632   6.324   2.182 -0.5268  0.2708  0.8599
14506TIP3    H165009   3.541   6.352   2.182 -0.8008 -0.5556 -0.2282
14506TIP3    H265010   3.679   6.394   2.137 -0.9785 -0.2880 -0.5319
14507TIP3   OH265011   6.176   2.821  12.587 -0.1861 -0.4108 -0.3618
14507TIP3    H165012   6.159   2.891  12.524  0.8975  0.7493  0.6113
14507TIP3    H265013   6.095   2.815  12.638 -0.1331  0.4449 -0.1693
14508TIP3   OH265014   2.579   1.042  12.520 -0.3497 -0.1984 -0.1054
14508TIP3    H165015   2.588   0.989  12.441 -1.1202 -2.2351  1.1383
14508TIP3    H265016   2.544   1.126  12.488 -1.9916 -1.4651 -1.7687
14509TIP3   OH265017   4.659   1.241  13.476 -0.4359 -1.1064 -1.3918
14509TIP3    H165018   4.575   1.217  13.514 -0.3622 -0.6350 -0.9182
14509TIP3    H265019   4.689   1.314  13.530 -1.3332  1.0127 -3.6521
14510TIP3   OH265020   4.198   2.839  11.716 -0.4599 -0.3251 -0.0139
14510TIP3    H165021   4.263   2.879  11.774  0.3948 -2.0790  0.2580
14510TIP3    H265022   4.220   2.746  11.715  0.2261 -0.2341 -3.9746
14511TIP3   OH265023   4.943   0.899  13.806  0.0847 -0.3248  0.5114
14511TIP3    H165024   4.900   0.921  13.724 -0.5553  2.5025  1.5237
14511TIP3    H265025   4.877   0.853  13.858 -0.4735  0.5023  0.5470
14512TIP3   OH265026   4.443   1.737   2.063 -0.4282  0.2494  0.4627
14512TIP3    H165027   4.390   1.697   1.993 -0.5346 -2.7410  2.1730
14512TIP3    H265028   4.387   1.734   2.140  0.8379  0.5677  1.4105
14513TIP3   OH265029   0.422   4.292   1.956 -0.3178  0.3414 -0.2070
14513TIP3    H165030   0.378   4.218   1.997  0.0631  0.5324  0.5509
14513TIP3    H265031   0.513   4.265   1.949 -0.3740  0.3222 -0.9079
14514TIP3   OH265032   6.165   1.197   0.970  0.2645 -0.0332 -0.4916
14514TIP3    H165033   6.155   1.292   0.965 -0.4580 -0.0329  0.7081
14514TIP3    H265034   6.121   1.172   1.052  1.8741 -1.2134  0.0499
14515TIP3   OH265035   1.563   4.583   4.579 -0.0327 -0.3008  0.0558
14515TIP3    H165036   1.578   4.678   4.580 -1.4832 -0.0604 -0.4232
14515TIP3    H265037   1.541   4.563   4.488  2.0353 -1.3936 -0.2325
14516TIP3   OH265038   4.687   3.965  15.074 -0.0517 -0.2785  0.1536
14516TIP3    H165039   4.644   3.881  15.091 -3.2113  1.7012  2.5992
14516TIP3    H265040   4.739   3.982  15.153 -0.8824  0.8709  0.4712
14517TIP3   OH265041   1.646   2.056   0.050 -0.4672  0.0440  0.3803
14517TIP3    H165042   1.625   1.984  -0.008 -0.0875 -0.7911  1.2598
14517TIP3    H265043   1.724   2.027   0.098 -0.4234  0.9496  0.8827
14518TIP3   OH265044   1.963   1.925  16.943 -0.5392 -0.6022 -0.3388
14518TIP3    H165045   1.890   1.935  16.883 -0.1937 -0.6721 -0.7797
14518TIP3    H265046   2.008   1.846  16.913 -1.2954 -1.5695  1.0120
14519TIP3   OH265047   4.860   3.229  12.895  0.1202  0.2242  0.2166
14519TIP3    H165048   4.858   3.171  12.818 -0.1983 -1.5742  1.5260
14519TIP3    H265049   4.778   3.209  12.941 -1.0772  3.3729 -0.4412
14520TIP3   OH265050   2.508   1.415  13.020 -0.3782  0.4712 -0.3008
14520TIP3    H165051   2.454   1.491  12.995 -1.7435 -0.2090  0.5756
14520TIP3    H265052   2.595   1.436  12.984 -0.5028  2.8612  0.6786
14521TIP3   OH265053   0.050   0.709  16.475 -0.5718 -0.0550  0.5542
14521TIP3    H165054   0.077   0.656  16.550 -2.0566 -0.0224  1.1350
14521TIP3    H265055   0.063   0.800  16.503 -0.4797 -0.0563  0.5158
14522TIP3   OH265056   0.162   2.497   0.431  0.3905  0.0671 -0.4018
14522TIP3    H165057   0.087   2.465   0.482  0.9159  0.6083  0.7239
14522TIP3    H265058   0.131   2.495   0.340 -0.9280  0.1184  0.0307
14523TIP3   OH265059   2.759   3.638  15.705 -0.0734  0.3744 -0.4491
14523TIP3    H165060   2.681   3.676  15.744 -1.2754  0.1922 -2.5891
14523TIP3    H265061   2.788   3.702  15.641  0.7675 -0.1311 -0.5845
14524TIP3   OH265062   6.599   2.549  13.599 -0.2140  0.5243 -0.2916
14524TIP3    H165063   6.619   2.465  13.557 -0.0239  0.2099  0.4219
14524TIP3    H265064   6.684   2.585  13.622 -0.4007 -0.3639  1.8662
14525TIP3   OH265065   0.590   0.353   0.291  0.3065  0.1670  0.4054
14525TIP3    H165066   0.623   0.388   0.374 -1.4166  1.6615  0.4995
14525TIP3    H265067   0.503   0.320   0.312  0.3324 -0.5508 -0.5712
14526TIP3   OH265068   1.279   1.664  14.940  0.3839  0.6953 -0.3232
14526TIP3    H165069   1.345   1.724  14.905  0.9305  0.6744  0.6812
14526TIP3    H265070   1.314   1.577  14.921  1.3790  0.6659  1.5449
14527TIP3   OH265071   0.455   3.341   1.765 -0.3409  0.4472  0.2910
14527TIP3    H165072   0.536   3.379   1.798 -2.0060  2.3816  2.3847
14527TIP3    H265073   0.480   3.293   1.687  2.6502  1.8985  0.3028
14528TIP3   OH265074   2.590   6.364   4.297  0.1417  0.5698  0.0492
14528TIP3    H165075   2.525   6.422   4.259 -0.4801 -0.0591  0.1371
14528TIP3    H265076   2.615   6.306   4.225 -1.0941 -0.6730  0.5936
14529TIP3   OH265077   4.867   3.238  14.874 -0.3094  0.4327  0.1087
14529TIP3    H165078   4.774   3.257  14.866 -0.3559  0.3028  0.3079
14529TIP3    H265079   4.892   3.274  14.960 -0.2691  0.1092  0.2333
14530TIP3   OH265080   4.106   6.613  13.416 -0.5818 -0.2921 -0.4921
14530TIP3    H165081   4.146   6.528  13.398 -1.5969 -0.5011 -1.8244
14530TIP3    H265082   4.025   6.592  13.463  1.8714  0.2244  4.3121
14531TIP3   OH265083   6.192   5.992   6.116 -0.0157 -0.0536  0.5093
14531TIP3    H165084   6.172   6.051   6.188  0.4125  0.0812  0.5191
14531TIP3    H265085   6.213   5.909   6.159  1.6298  0.4057  0.6228
14532TIP3   OH265086   6.248   6.355   3.758  0.6697  0.0238 -0.1266
14532TIP3    H165087   6.263   6.353   3.852  0.3782 -0.7967 -0.0951
14532TIP3    H265088   6.309   6.290   3.722  1.9835  1.5193 -0.6819
14533TIP3   OH265089   0.713   3.393   1.892 -0.0794  1.0297  0.1781
14533TIP3    H165090   0.797   3.369   1.931 -0.2869  0.8173  0.4910
14533TIP3    H265091   0.669   3.445   1.959  0.3212  2.2040 -0.4532
14534TIP3   OH265092   3.722   2.586   0.172  0.1244 -0.0212 -0.1864
14534TIP3    H165093   3.779   2.612   0.100 -0.0468  0.0942 -0.2812
14534TIP3    H265094   3.643   2.638   0.160  1.0510  1.8557  1.5358
14535TIP3   OH265095   2.781   0.233   3.367  0.0836 -0.2290  0.1522
14535TIP3    H165096   2.844   0.305   3.357 -0.2832  0.1417  0.4959
14535TIP3    H265097   2.829   0.155   3.339 -0.1717  0.4476 -2.2416
14536TIP3   OH265098   1.484   6.761  13.497 -0.1831  0.4569  0.7231
14536TIP3    H165099   1.414   6.825  13.481 -0.6491  0.0838  1.2373
14536TIP3    H265100   1.534   6.759  13.415 -2.0049 -0.7692 -0.4018
14537TIP3   OH265101   5.177   4.353  12.639 -0.3735 -0.6533 -0.2691
14537TIP3    H165102   5.160   4.445  12.616 -0.0952 -0.7346 -0.8210
14537TIP3    H265103   5.145   4.344  12.728  0.1799  0.1517  0.0179
14538TIP3   OH265104   2.395   1.383   0.791  0.0473  0.7180  0.7320
14538TIP3    H165105   2.428   1.298   0.764 -0.6513  0.5018  0.5616
14538TIP3    H265106   2.306   1.387   0.756 -0.3197  1.0628  1.6755
14539TIP3   OH265107   2.820   4.647  15.951  0.4624  0.0941  0.2197
14539TIP3    H165108   2.829   4.669  16.044 -2.4733  0.6169  0.4533
14539TIP3    H265109   2.861   4.561  15.942  1.8414  0.5766  1.7467
14540TIP3   OH265110   5.569   2.673   4.768  0.7021 -0.0080 -0.3762
14540TIP3    H165111   5.599   2.593   4.810 -2.8605  0.1984  2.8188
14540TIP3    H265112   5.633   2.740   4.795  0.0464 -0.4776  2.4511
14541TIP3   OH265113   4.880   6.144   3.660  0.2068 -0.3344 -0.2417
14541TIP3    H165114   4.804   6.150   3.718  0.2283  1.1805 -0.3595
14541TIP3    H265115   4.874   6.221   3.604  1.7738 -0.2563 -0.3254
14542TIP3   OH265116   5.927   4.888  16.602  0.3785  0.0285  0.4074
14542TIP3    H165117   6.012   4.873  16.561  0.3468  0.2148  0.2710
14542TIP3    H265118   5.900   4.974  16.570  0.2851  0.1091  0.7010
14543TIP3   OH265119   5.313   4.156   4.795 -0.0611  0.2314  0.1868
14543TIP3    H165120   5.318   4.143   4.701  0.2498  0.6049  0.1496
14543TIP3    H265121   5.347   4.075   4.833  2.3978  1.1317 -0.0409
14544TIP3   OH265122   3.883   0.142  13.586 -0.0879  0.2782 -0.5956
14544TIP3    H165123   3.885   0.079  13.514  1.4207  0.8107 -1.0446
14544TIP3    H265124   3.886   0.088  13.665  3.4507 -0.1972 -0.9890
14545TIP3   OH265125   0.493   6.531   4.226  0.1058 -0.0925 -0.2180
14545TIP3    H165126   0.473   6.509   4.317 -0.1854 -0.7142 -0.4284
14545TIP3    H265127   0.410   6.517   4.180  0.3651 -0.1919 -0.6555
14546TIP3   OH265128   4.980   3.413   3.385  0.2227 -0.2797 -0.7657
14546TIP3    H165129   4.943   3.344   3.330 -0.3900  0.4367 -1.2543
14546TIP3    H265130   4.936   3.404   3.469 -1.2612  0.7144 -1.4114
14547TIP3   OH265131   5.168   4.285  13.258  0.1110 -0.4689  0.4379
14547TIP3    H165132   5.252   4.240  13.261  1.3156  1.4852 -1.5080
14547TIP3    H265133   5.192   4.378  13.251 -2.1115 -0.0255 -2.3708
14548TIP3   OH265134   2.164   6.671  12.090  0.9268 -0.6078  0.9114
14548TIP3    H165135   2.169   6.627  12.175  0.7846 -2.4732 -0.0213
14548TIP3    H265136   2.071   6.667  12.066  1.4469 -3.1245 -0.8649
14549TIP3   OH265137   6.395   0.254   5.191 -0.0560  0.4168 -0.6377
14549TIP3    H165138   6.359   0.259   5.103  0.9752 -1.8040 -1.2290
14549TIP3    H265139   6.488   0.276   5.180  0.1379 -0.1375 -0.1603
14550TIP3   OH265140   4.226   5.078   3.654  0.0693 -0.5747 -0.1613
14550TIP3    H165141   4.155   5.113   3.708 -1.0336 -0.5005 -1.6469
14550TIP3    H265142   4.290   5.149   3.650 -0.9981  0.3498 -1.0337
14551TIP3   OH265143   6.561   2.119  16.620 -0.1724 -0.7369  0.1062
14551TIP3    H165144   6.483   2.110  16.676  0.7698 -0.9634  1.3933
14551TIP3    H265145   6.606   2.196  16.654  0.0707 -0.4879 -0.7670
14552TIP3   OH265146   3.416   2.988  16.133  0.5743 -0.2853 -0.2460
14552TIP3    H165147   3.392   2.900  16.104  0.7930 -0.5452  0.3503
14552TIP3    H265148   3.402   3.044  16.056  2.0183 -1.1125 -1.1329
14553TIP3   OH265149   6.607   5.741   2.220  0.6424 -0.0900  0.4379
14553TIP3    H165150   6.637   5.771   2.134 -0.0068 -1.3672 -0.2580
14553TIP3    H265151   6.515   5.719   2.207  0.2627  0.6761  1.7329
14554TIP3   OH265152   0.529   3.748   1.716  0.4691 -1.0748 -0.1380
14554TIP3    H165153   0.499   3.839   1.713  0.7281 -1.0263 -1.5959
14554TIP3    H265154   0.569   3.739   1.802  2.9272  1.0174 -0.9689
14555TIP3   OH265155   6.365   2.391   3.982 -0.0042  0.2506 -0.3463
14555TIP3    H165156   6.273   2.416   3.974  0.0871  1.0941  1.0107
14555TIP3    H265157   6.364   2.317   4.044  0.3675  1.2939  0.9268
14556TIP3   OH265158   6.002   4.828  13.175 -0.1792 -0.0105 -0.2830
14556TIP3    H165159   6.062   4.760  13.208  0.4199  0.3380 -0.6417
14556TIP3    H265160   5.957   4.786  13.102 -1.9699 -0.9972  1.3461
14557TIP3   OH265161   6.172   0.911  14.857  0.4605  0.6199  0.2544
14557TIP3    H165162   6.180   0.968  14.934  1.2976 -0.2030  0.7816
14557TIP3    H265163   6.228   0.952  14.791 -1.4248  2.1638 -0.4444
14558TIP3   OH265164   3.252   4.223  14.932  0.3366 -0.2246  0.2355
14558TIP3    H165165   3.295   4.285  14.991  1.1271 -1.3516  0.8625
14558TIP3    H265166   3.186   4.180  14.986  0.5344 -0.7014  0.1042
14559TIP3   OH265167   4.589   4.996   1.816  0.2092 -0.0480 -1.1069
14559TIP3    H165168   4.680   4.967   1.809  0.3971  0.3537 -0.3714
14559TIP3    H265169   4.569   5.032   1.730  0.1763 -1.7366 -1.8407
14560TIP3   OH265170   3.800   6.113   2.257 -0.0201 -0.2514 -0.1436
14560TIP3    H165171   3.733   6.064   2.306  0.1350 -0.1557  0.1632
14560TIP3    H265172   3.755   6.192   2.228  0.3766  0.5764  1.4060
14561TIP3   OH265173   2.502   6.488  16.530 -0.2475  0.0210 -0.2028
14561TIP3    H165174   2.489   6.521  16.619 -1.4626  3.0690 -1.4092
14561TIP3    H265175   2.592   6.511  16.508  0.2227 -1.2070  0.4038
14562TIP3   OH265176   1.507   4.819  12.416 -0.1900  0.4456  0.0383
14562TIP3    H165177   1.537   4.793  12.329  1.2758 -0.0949  0.6977
14562TIP3    H265178   1.416   4.845  12.403 -0.2152 -0.3797 -1.5161
14563TIP3   OH265179   6.566   5.435   6.089 -0.2188  0.4046 -0.1298
14563TIP3    H165180   6.621   5.397   6.021 -0.6938  1.4183 -1.1022
14563TIP3    H265181   6.627   5.481   6.147  0.0505  0.7768 -0.7059
14564TIP3   OH265182   1.180   2.388  17.116 -0.0426 -0.3047 -0.5293
14564TIP3    H165183   1.251   2.438  17.156  0.3221 -1.6417  0.5513
14564TIP3    H265184   1.100   2.431  17.146  0.2533 -0.7666  0.9791
14565TIP3   OH265185   2.792   3.028  11.161  0.2485  0.5136  0.3805
14565TIP3    H165186   2.796   2.935  11.184 -0.0567  0.2909 -0.4663
14565TIP3    H265187   2.777   3.029  11.067 -1.4541  1.4239  0.6485
14566TIP3   OH265188   1.499   1.487  15.151  0.5032  0.0027  0.1667
14566TIP3    H165189   1.427   1.472  15.212  1.8307 -3.9339  0.8668
14566TIP3    H265190   1.577   1.491  15.206  1.2175  1.0766 -0.8926
14567TIP3   OH265191   0.525   4.201   5.649  0.0504 -0.4577 -0.0749
14567TIP3    H165192   0.512   4.134   5.581 -0.4525 -0.7289  0.2866
14567TIP3    H265193   0.445   4.198   5.701  0.7414 -0.7805  0.9938
14568TIP3   OH265194   4.325   4.032   6.632  0.2126  0.5884  0.4523
14568TIP3    H165195   4.245   4.062   6.675  1.4690  2.1644  1.7812
14568TIP3    H265196   4.388   4.102   6.649  2.0801 -0.9745  0.0594
14569TIP3   OH265197   2.258   0.882  13.930  0.3141 -0.1131 -0.3843
14569TIP3    H165198   2.224   0.834  14.006  1.3591 -0.2660  0.0016
14569TIP3    H265199   2.201   0.856  13.858 -0.6192 -0.0525  0.3331
14570TIP3   OH265200   0.836   3.886   2.094  0.3243 -0.2877 -0.0669
14570TIP3    H165201   0.885   3.805   2.110 -1.4579 -1.4690 -0.4700
14570TIP3    H265202   0.780   3.865   2.019  0.4367  1.5885 -0.6958
14571TIP3   OH265203   1.077   2.207  14.885  0.1683 -0.4923  0.5629
14571TIP3    H165204   1.123   2.128  14.912  0.2961 -0.2825  0.9684
14571TIP3    H265205   0.984   2.183  14.886  0.2672 -0.9159 -0.2558
14572TIP3   OH265206   1.952   1.505   2.291  0.1130 -0.4642  0.1217
14572TIP3    H165207   1.915   1.589   2.265 -1.1399 -1.6622 -2.1274
14572TIP3    H265208   1.954   1.507   2.387  1.0746  2.5203  0.0773
14573TIP3   OH265209   2.860   6.409   6.514 -0.3714  0.0400 -0.4410
14573TIP3    H165210   2.886   6.486   6.566 -0.4269 -0.1639 -0.1087
14573TIP3    H265211   2.943   6.370   6.487 -0.2050 -2.0649  2.7507
14574TIP3   OH265212   5.475   0.588   2.022 -0.5155 -0.1621 -0.2130
14574TIP3    H165213   5.526   0.614   1.945 -1.5615 -0.2887 -0.9626
14574TIP3    H265214   5.414   0.522   1.989 -1.3671  0.2013  0.6166
14575TIP3   OH265215   1.930   6.098   0.139 -0.3030  0.1602 -0.3240
14575TIP3    H165216   1.957   6.105   0.230  0.7195  1.0585 -0.6844
14575TIP3    H265217   1.883   6.179   0.121 -0.9247 -0.2279 -0.4587
14576TIP3   OH265218   2.947   6.671  13.737  0.1016 -0.0332 -0.4777
14576TIP3    H165219   2.951   6.579  13.710 -0.5736  0.1811 -1.3151
14576TIP3    H265220   2.908   6.668  13.825  2.3102 -0.7227  0.5129
14577TIP3   OH265221   4.841   2.926   3.507  0.7118  0.2640 -0.2258
14577TIP3    H165222   4.802   2.958   3.425  0.1993  2.0744  0.6820
14577TIP3    H265223   4.909   2.990   3.526 -2.1161  2.4731  3.0716
14578TIP3   OH265224   1.394   2.533  11.981  0.4984  0.7037 -0.1923
14578TIP3    H165225   1.307   2.561  12.010  0.5695  1.9579 -1.1098
14578TIP3    H265226   1.442   2.516  12.061  0.5047  3.5040  0.4347
14579TIP3   OH265227   3.748   2.642   2.308 -0.4215  0.2706 -0.1764
14579TIP3    H165228   3.702   2.625   2.390 -0.8009  2.1790  0.0355
14579TIP3    H265229   3.711   2.578   2.246 -0.7878 -0.5616  0.8912
14580TIP3   OH265230   1.737   3.687   4.531 -0.2414  0.5575 -0.5871
14580TIP3    H165231   1.811   3.690   4.592 -0.2071 -0.9896 -0.5426
14580TIP3    H265232   1.662   3.666   4.586 -0.0512 -1.8080 -1.1994
14581TIP3   OH265233   5.160   3.700   0.861 -0.2712 -0.2159 -0.2541
14581TIP3    H165234   5.174   3.682   0.954  1.0735  0.2616 -0.3659
14581TIP3    H265235   5.127   3.790   0.859 -1.8551 -0.7740 -0.1256
14582TIP3   OH265236   2.695   2.088  13.291  0.1273 -0.7476  0.5581
14582TIP3    H165237   2.687   2.182  13.307  0.5773  0.0139 -3.2005
14582TIP3    H265238   2.763   2.059  13.352  1.2756  1.7362  0.5204
14583TIP3   OH265239   4.361   6.693  14.227  0.0550 -0.3720  0.2036
14583TIP3    H165240   4.363   6.749  14.149 -2.6916  0.3498  0.5759
14583TIP3    H265241   4.400   6.746  14.296 -2.1223  1.0126  0.4488
14584TIP3   OH265242   0.706   2.989  15.685 -0.3346  0.2120  0.0041
14584TIP3    H165243   0.717   2.939  15.604 -0.0995  0.7371 -0.2897
14584TIP3    H265244   0.630   2.949  15.728  0.8655 -1.4750  0.5825
14585TIP3   OH265245   0.385   5.549   3.523 -0.1196 -0.4517  0.6412
14585TIP3    H165246   0.295   5.517   3.536  0.1579 -2.1023 -1.3536
14585TIP3    H265247   0.378   5.612   3.452  0.4152 -1.1110  0.0013
14586TIP3   OH265248   5.686   4.978  16.381 -0.4032  0.2029  0.0528
14586TIP3    H165249   5.680   4.924  16.303  0.1391 -1.5850  1.2043
14586TIP3    H265250   5.626   4.937  16.443 -0.3372  1.2075  0.7961
14587TIP3   OH265251   1.302   2.321   5.720  0.0810  0.3276  0.4177
14587TIP3    H165252   1.391   2.330   5.685  2.0628 -2.2431  4.4778
14587TIP3    H265253   1.301   2.377   5.798 -1.3675 -0.7928  1.2195
14588TIP3   OH265254   5.779   1.930  16.497  0.6363  0.7592 -0.3032
14588TIP3    H165255   5.726   1.869  16.548  0.5062  1.6821  0.6871
14588TIP3    H265256   5.845   1.876  16.454 -0.9009 -0.3653 -1.2878
14589TIP3   OH265257   1.353   2.905   2.766  0.0290  0.6628  0.0484
14589TIP3    H165258   1.300   2.920   2.687  0.5534  1.3479 -0.1702
14589TIP3    H265259   1.395   2.820   2.750  0.7647  1.1715 -0.7677
14590TIP3   OH265260   3.307   5.487   1.915 -0.1896 -0.0319  0.2905
14590TIP3    H165261   3.332   5.579   1.904 -1.5740  0.3398  0.1501
14590TIP3    H265262   3.223   5.491   1.960 -0.8002 -1.2058 -0.7421
14591TIP3   OH265263   1.438   5.200   0.014  0.9231 -0.0848  0.0380
14591TIP3    H165264   1.484   5.120  -0.011 -1.0273 -1.0608 -0.5407
14591TIP3    H265265   1.345   5.180  -0.000  0.4783  2.6971 -1.3405
14592TIP3   OH265266   1.946   4.180  11.127  0.2522  0.4454  0.4274
14592TIP3    H165267   1.871   4.181  11.068  1.5858  2.2578 -1.2918
14592TIP3    H265268   1.919   4.123  11.200 -1.7217 -1.1740 -1.5075
14593TIP3   OH265269   6.037   1.526   2.410  0.0823  0.6759 -0.7593
14593TIP3    H165270   5.981   1.458   2.373  1.1206 -0.3966 -0.3880
14593TIP3    H265271   6.124   1.506   2.376  0.8639  0.3208  1.3557
14594TIP3   OH265272   6.578   5.898  14.090  0.4397 -0.8978  0.2441
14594TIP3    H165273   6.669   5.913  14.116 -0.0776  0.1678  1.4793
14594TIP3    H265274   6.551   5.980  14.050 -0.5884 -0.5438  1.6561
14595TIP3   OH265275   2.382   2.135  13.440  0.0712 -0.1985 -0.2367
14595TIP3    H165276   2.447   2.075  13.478  0.6352  1.2567  1.1694
14595TIP3    H265277   2.328   2.161  13.514 -0.1093  1.0988 -0.8251
14596TIP3   OH265278   0.516   6.192   6.911 -0.2785  0.2986 -0.4817
14596TIP3    H165279   0.422   6.176   6.919 -0.3558  0.6957 -0.5842
14596TIP3    H265280   0.525   6.247   6.834 -0.1033  1.4165  0.3225
14597TIP3   OH265281   6.621   6.764  12.850 -0.5922 -0.1902 -0.0097
14597TIP3    H165282   6.615   6.788  12.758  0.4234 -0.5384 -0.1787
14597TIP3    H265283   6.673   6.833  12.890  0.7036 -1.0874 -0.1142
14598TIP3   OH265284   3.415   0.044   2.105  0.2252 -0.0784 -0.3904
14598TIP3    H165285   3.376   0.099   2.037  0.2231 -0.8761 -1.0291
14598TIP3    H265286   3.402   0.094   2.186  0.5589  1.0431 -1.0181
14599TIP3   OH265287   0.987   0.901   5.226 -0.2043  0.2329 -0.6177
14599TIP3    H165288   0.960   0.988   5.198  0.5082  0.7984  0.4554
14599TIP3    H265289   0.906   0.859   5.255 -0.3086  1.1044  0.3835
14600TIP3   OH265290   6.661   4.262  17.073  0.2131 -0.5039 -0.1161
14600TIP3    H165291   6.565   4.262  17.068  0.2020 -1.0426  0.0614
14600TIP3    H265292   6.690   4.277  16.983 -0.0327 -0.4965 -0.1936
14601TIP3   OH265293   3.704   5.023  16.466  0.2037 -0.1193 -0.1098
14601TIP3    H165294   3.767   5.028  16.394 -0.2492 -0.9912 -0.5781
14601TIP3    H265295   3.623   5.056  16.428  0.5798  1.8883  0.7597
14602TIP3   OH265296   2.208   1.498   3.005  0.4455  0.1300 -0.0514
14602TIP3    H165297   2.258   1.417   3.011  0.7492  0.2711 -0.6528
14602TIP3    H265298   2.187   1.520   3.095  1.1216 -0.1459  0.1728
14603TIP3   OH265299   0.621   4.047  15.171 -0.5348  0.0268  0.2318
14603TIP3    H165300   0.551   4.004  15.120  0.9499  0.3718 -2.1920
14603TIP3    H265301   0.659   3.976  15.223 -1.3467 -0.5745  0.0225
14604TIP3   OH265302   4.017   1.423  16.314  0.6429  0.1860  0.4736
14604TIP3    H165303   3.949   1.488  16.332 -0.7999 -1.4027  0.8226
14604TIP3    H265304   3.990   1.381  16.232  0.1761 -1.7601  1.5998
14605TIP3   OH265305   6.753   3.966  12.153  0.1012  0.1256 -0.3937
14605TIP3    H165306   6.689   3.914  12.104  0.4649  0.3930 -1.1708
14605TIP3    H265307   6.837   3.941  12.115  0.3070  1.0283 -0.5422
14606TIP3   OH265308   4.749   0.574   2.416  0.4231 -0.9232  0.5398
14606TIP3    H165309   4.709   0.496   2.378 -0.5801 -0.1787  0.0396
14606TIP3    H265310   4.688   0.602   2.485 -0.4429  0.7572 -0.8540
14607TIP3   OH265311   5.554   6.465  13.014 -0.1657 -0.1848 -0.3896
14607TIP3    H165312   5.566   6.398  12.947 -0.4146 -0.4319 -0.1879
14607TIP3    H265313   5.550   6.547  12.965 -0.9174 -0.4219 -0.7244
14608TIP3   OH265314   2.411   2.436   0.788 -0.1351  1.0264  0.3486
14608TIP3    H165315   2.350   2.377   0.743 -0.1307  0.4228  1.1143
14608TIP3    H265316   2.367   2.458   0.870  0.8228  0.2858  1.0746
14609TIP3   OH265317   2.350   5.581  12.593 -0.0988  0.7629 -0.3737
14609TIP3    H165318   2.383   5.553  12.508  1.1749  1.1067  0.0070
14609TIP3    H265319   2.410   5.544  12.657  0.1833  2.2592  0.2638
14610TIP3   OH265320   6.764   3.086  16.254 -0.3944  0.1232 -0.5014
14610TIP3    H165321   6.772   3.169  16.207 -0.4203  0.5111  0.1703
14610TIP3    H265322   6.674   3.085  16.287 -0.4434 -0.2444 -0.6429
14611TIP3   OH265323   3.220   6.127   0.205  0.3516  0.4724  0.5309
14611TIP3    H165324   3.259   6.121   0.292  1.0689 -3.1058  0.0297
14611TIP3    H265325   3.129   6.099   0.217  0.2584  0.6396  0.2290
14612TIP3   OH265326   5.388   2.332  14.740 -0.0366 -0.0475  0.6883
14612TIP3    H165327   5.388   2.236  14.733  0.4474  0.0690 -1.1266
14612TIP3    H265328   5.472   2.358  14.704 -0.5404  1.1255  0.3465
14613TIP3   OH265329   0.154   0.611  16.235 -0.5322  0.3713 -0.1514
14613TIP3    H165330   0.128   0.651  16.318 -1.7426  0.8837 -0.7735
14613TIP3    H265331   0.224   0.549  16.259  0.9346  2.3954  0.8967
14614TIP3   OH265332   0.759   2.311  16.320  0.8472  0.3558  0.0491
14614TIP3    H165333   0.852   2.329  16.333  0.4163  0.6927  2.8523
14614TIP3    H265334   0.715   2.395  16.330  0.0298 -0.1691  1.0367
14615TIP3   OH265335   2.777   1.296   2.384 -0.1360  0.2462  0.0579
14615TIP3    H165336   2.714   1.368   2.391  1.4930  1.5776  1.0861
14615TIP3    H265337   2.745   1.245   2.309 -1.6549  1.6655 -0.3045
14616TIP3   OH265338   4.891   3.638   1.680  0.0437 -0.2072  0.1739
14616TIP3    H165339   4.902   3.719   1.631 -1.1220  0.4884  1.0363
14616TIP3    H265340   4.976   3.595   1.675  0.5564  0.8856 -0.6146
14617TIP3   OH265341   1.118   0.180   2.925  0.5841 -0.1008 -0.1506
14617TIP3    H165342   1.172   0.137   2.992 -0.5065 -0.3941  0.5529
14617TIP3    H265343   1.089   0.261   2.966 -0.5631 -0.5549 -0.0534
14618TIP3   OH265344   4.573   2.778   4.692 -0.0783  0.4793  0.1133
14618TIP3    H165345   4.586   2.734   4.609 -0.2281  0.0164  0.3364
14618TIP3    H265346   4.660   2.782   4.732 -0.1614 -0.1373  0.3560
14619TIP3   OH265347   3.051   2.972   3.176 -0.5251 -0.2389  0.2035
14619TIP3    H165348   3.059   2.907   3.105 -0.8952  1.0841 -1.0647
14619TIP3    H265349   3.111   3.042   3.151 -1.3891  0.6875  0.7124
14620TIP3   OH265350   2.724   2.329  12.944 -0.0534 -0.2730  0.2674
14620TIP3    H165351   2.637   2.361  12.966 -0.2224 -0.3324 -0.2993
14620TIP3    H265352   2.750   2.380  12.868  0.2332 -0.5427  0.1816
14621TIP3   OH265353   1.641   6.478  13.741  0.0935  0.0928 -0.0981
14621TIP3    H165354   1.635   6.459  13.647  0.3972 -1.7252  0.2293
14621TIP3    H265355   1.563   6.437  13.779 -0.6955  1.9169  0.2880
14622TIP3   OH265356   3.689   5.113   0.465  0.1494  0.2543 -0.5461
14622TIP3    H165357   3.636   5.036   0.489  0.2412  0.2189 -0.4585
14622TIP3    H265358   3.631   5.187   0.480  0.4692  0.2907  0.5369
14623TIP3   OH265359   2.902   5.056   5.500 -0.6325 -0.2760 -0.2899
14623TIP3    H165360   2.942   4.974   5.469  0.3326 -0.2966  0.9865
14623TIP3    H265361   2.967   5.094   5.558 -0.9492  1.5791 -1.1141
14624TIP3   OH265362   3.261   1.534  14.775 -0.1146 -0.0504 -0.1233
14624TIP3    H165363   3.200   1.470  14.739 -0.8479  0.6158 -0.0779
14624TIP3    H265364   3.325   1.547  14.706  0.1726 -0.9995 -0.0470
14625TIP3   OH265365   2.979   5.534   0.895 -0.1985  0.1862 -0.2545
14625TIP3    H165366   2.955   5.450   0.857  0.2058 -0.4642  0.9206
14625TIP3    H265367   3.064   5.519   0.937 -0.2701  1.0924  0.2285
14626TIP3   OH265368   5.481   0.392   4.994  0.3797  0.3049  0.3473
14626TIP3    H165369   5.457   0.485   4.991  1.6496  0.6697  1.1487
14626TIP3    H265370   5.466   0.361   4.905  0.8605  1.5192 -0.1665
14627TIP3   OH265371   1.187   6.144   4.836 -0.2376  0.0052  0.6021
14627TIP3    H165372   1.101   6.187   4.846 -0.0608  0.5340 -0.0685
14627TIP3    H265373   1.205   6.105   4.922 -0.7053  0.7247  1.0317
14628TIP3   OH265374   3.808   4.234   4.577  0.3289  0.3465  0.5343
14628TIP3    H165375   3.846   4.240   4.489  0.4346 -0.1232  0.5454
14628TIP3    H265376   3.881   4.252   4.636  0.0688  1.5201  0.5108
14629TIP3   OH265377   1.451   4.690  11.530  0.1092  0.0786 -0.5207
14629TIP3    H165378   1.545   4.694  11.515  0.1626  0.0482 -0.1983
14629TIP3    H265379   1.438   4.610  11.581 -0.2129 -0.4870 -1.4733
14630TIP3   OH265380   5.237   3.218  11.055  0.0026 -0.1095  0.3165
14630TIP3    H165381   5.328   3.187  11.052 -0.0709 -0.3164  0.2748
14630TIP3    H265382   5.211   3.207  11.147  0.6718  1.7788  0.7722
14631TIP3   OH265383   1.604   6.652   1.761 -0.4320  0.2921  0.5873
14631TIP3    H165384   1.670   6.722   1.757  1.1122 -1.0287  2.2207
14631TIP3    H265385   1.645   6.578   1.718 -1.5954  0.0187 -0.0586
14632TIP3   OH265386   3.372   5.330  14.984 -0.0157  0.0461 -0.4100
14632TIP3    H165387   3.402   5.240  14.973  1.0874  0.2836  0.6058
14632TIP3    H265388   3.381   5.369  14.897  0.9501 -0.3978 -0.5127
14633TIP3   OH265389   2.607   5.340   0.349 -0.7239 -0.4618  0.0509
14633TIP3    H165390   2.664   5.284   0.296  1.0159  0.0278  1.3867
14633TIP3    H265391   2.580   5.410   0.289  0.8078 -0.1978 -0.3493
14634TIP3   OH265392   5.703   4.574  13.051  0.2366  0.3438 -0.2080
14634TIP3    H165393   5.715   4.485  13.086 -1.9901 -0.6310 -1.7730
14634TIP3    H265394   5.671   4.625  13.126  0.8395 -0.3447  0.5271
14635TIP3   OH265395   6.473   4.010  15.357 -0.2740 -0.4733 -0.3427
14635TIP3    H165396   6.536   3.977  15.293  0.2308 -1.4145  0.6472
14635TIP3    H265397   6.388   3.979  15.325  0.1073 -1.9898  0.1146
14636TIP3   OH265398   6.656   5.622   5.160 -0.7263 -0.0945 -0.2196
14636TIP3    H165399   6.596   5.655   5.093 -2.1398 -0.5667  0.7732
14636TIP3    H265400   6.617   5.651   5.243  0.2542 -0.6969  0.4636
14637TIP3   OH265401   6.545   5.611   3.917  0.5075 -0.1220  0.6524
14637TIP3    H165402   6.547   5.703   3.889 -2.8063 -0.3136 -0.4731
14637TIP3    H265403   6.617   5.569   3.870  1.9524  1.8531  1.0513
14638TIP3   OH265404   2.011   6.710   3.840  0.6748  0.6466 -0.0023
14638TIP3    H165405   2.069   6.715   3.916 -0.7363 -1.9257  1.2961
14638TIP3    H265406   2.058   6.653   3.779  0.7521  0.8487 -0.1350
14639TIP3   OH265407   3.826   0.806   1.751 -0.0014  0.1526 -0.2202
14639TIP3    H165408   3.870   0.886   1.779 -1.1270  0.9598 -0.7120
14639TIP3    H265409   3.736   0.833   1.734 -0.6742 -1.4361  0.6558
14640TIP3   OH265410   4.176   2.466  12.723 -0.1731  0.5145  0.2714
14640TIP3    H165411   4.176   2.502  12.811 -0.7402 -0.4019  0.6554
14640TIP3    H265412   4.122   2.387  12.729 -0.0740  0.3487 -0.8530
14641TIP3   OH265413   0.072   4.012  11.170  0.1005 -0.2836 -0.1543
14641TIP3    H165414   0.138   3.995  11.238 -0.2078 -0.8886 -0.0007
14641TIP3    H265415   0.066   3.929  11.121  0.7656  0.3385 -1.3114
14642TIP3   OH265416   2.651   2.358  14.094 -0.3731 -0.3183  0.0691
14642TIP3    H165417   2.649   2.413  14.173  2.5988  0.7984 -0.5793
14642TIP3    H265418   2.656   2.268  14.128  0.9102  0.1494  1.1513
14643TIP3   OH265419   0.645   1.196   4.126 -0.9815 -0.1635 -0.3697
14643TIP3    H165420   0.654   1.115   4.178 -0.0169  0.0009 -0.2664
14643TIP3    H265421   0.616   1.166   4.040 -0.4542 -0.6431 -0.3844
14644TIP3   OH265422   2.889   4.129   2.732 -0.0455  0.2108  0.4392
14644TIP3    H165423   2.806   4.083   2.718  0.1097 -0.3406  1.2525
14644TIP3    H265424   2.947   4.061   2.768  0.5453  0.7681  0.5373
14645TIP3   OH265425   5.477   4.861  13.534 -0.1289 -0.4253 -0.3075
14645TIP3    H165426   5.397   4.830  13.491 -1.3651  0.1030  1.5432
14645TIP3    H265427   5.515   4.782  13.575  0.2175 -0.6457 -1.0504
14646TIP3   OH265428   5.308   5.622   5.110 -0.9389  0.0444  0.1646
14646TIP3    H165429   5.331   5.640   5.201  0.2917  0.6521 -0.2508
14646TIP3    H265430   5.259   5.540   5.114 -0.1432 -0.4047  1.2903
14647TIP3   OH265431   0.579   2.573  13.861 -0.1339 -0.4893 -0.1762
14647TIP3    H165432   0.523   2.633  13.811  0.0600  0.8421  1.1795
14647TIP3    H265433   0.525   2.495  13.874 -0.7456 -0.2277 -1.1114
14648TIP3   OH265434   4.936   1.426  13.985 -0.0563  0.0075  0.0197
14648TIP3    H165435   4.976   1.410  14.071 -1.5365  1.0849  0.9318
14648TIP3    H265436   4.847   1.393  13.994 -0.8255  1.9432 -0.4764
14649TIP3   OH265437   2.724   1.376  12.687 -0.6089  0.6694 -0.3859
14649TIP3    H165438   2.642   1.422  12.701 -0.7959  0.3265 -0.3527
14649TIP3    H265439   2.779   1.440  12.641 -1.0402  0.7526 -0.7914
14650TIP3   OH265440   5.348   6.578   1.036 -0.0919 -0.2264  0.4708
14650TIP3    H165441   5.422   6.611   1.086  0.0145  0.2799 -0.0227
14650TIP3    H265442   5.273   6.587   1.095  0.0930  0.0348  0.6644
14651TIP3   OH265443   3.740   2.635  13.298 -0.5169  0.3794  0.0963
14651TIP3    H165444   3.696   2.712  13.262  0.3740  1.0731  0.4728
14651TIP3    H265445   3.790   2.600  13.225 -2.0014 -0.6526 -0.4459
14652TIP3   OH265446   5.818   0.489  12.970  0.0581 -0.2023 -0.2616
14652TIP3    H165447   5.787   0.403  12.941 -0.9665  0.7202 -1.9854
14652TIP3    H265448   5.878   0.518  12.902  0.6416  0.3148  0.4644
14653TIP3   OH265449   2.464   0.000  12.597  0.0286  0.9524 -0.1029
14653TIP3    H165450   2.535   0.062  12.579 -0.1308  0.4081 -2.8215
14653TIP3    H265451   2.467  -0.013  12.692  1.7300  3.1142  0.1793
14654TIP3   OH265452   1.969   0.036  14.188 -0.1983 -0.0032 -0.0717
14654TIP3    H165453   1.931  -0.036  14.239  0.4827  0.0677  0.5574
14654TIP3    H265454   2.064   0.019  14.192 -0.1183  0.1827 -1.0530
14655TIP3   OH265455   6.735   0.096   4.426 -0.3093  0.7291  0.7069
14655TIP3    H165456   6.777   0.122   4.345  0.7921 -1.6121  0.4961
14655TIP3    H265457   6.644   0.126   4.417 -0.3613 -0.0847 -1.6520
14656TIP3   OH265458   0.429   4.076  14.551  0.4040  0.3087  0.1836
14656TIP3    H165459   0.445   4.171  14.555 -0.3832  0.3812  2.2462
14656TIP3    H265460   0.467   4.042  14.632 -2.7097 -0.6006  1.3114
14657TIP3   OH265461   1.884   6.664  17.008 -0.3447  0.6734  0.0546
14657TIP3    H165462   1.948   6.615  17.060 -0.4733  0.1255 -0.2875
14657TIP3    H265463   1.814   6.684  17.070  0.3071  1.5593  0.5069
14658TIP3   OH265464   0.837   2.403   5.429 -0.2174  0.1522 -0.0785
14658TIP3    H165465   0.761   2.455   5.404 -0.2120 -0.0706 -0.5687
14658TIP3    H265466   0.912   2.462   5.416 -0.0754 -0.4110 -1.9980
14659TIP3   OH265467   3.969   5.363  11.682 -0.7241  0.5560  0.1795
14659TIP3    H165468   3.919   5.337  11.759 -1.7233  0.0570 -0.6289
14659TIP3    H265469   3.906   5.411  11.628 -0.8460 -1.6382 -1.6856
14660TIP3   OH265470   5.045   3.454  15.977 -0.7641  0.3768 -0.0923
14660TIP3    H165471   5.051   3.417  15.889  1.1923  0.8189 -0.1720
14660TIP3    H265472   4.953   3.476  15.988 -1.3177 -1.1548 -1.4198
14661TIP3   OH265473   3.744   6.767  13.379 -0.3516  1.1998  0.1066
14661TIP3    H165474   3.692   6.717  13.441 -0.9424  1.4361 -0.1871
14661TIP3    H265475   3.685   6.782  13.305  0.6526  0.0654 -0.9477
14662TIP3   OH265476   2.213   1.096  13.312  0.0397  0.0497 -0.1159
14662TIP3    H165477   2.260   1.019  13.343  0.8125  1.0159  1.1965
14662TIP3    H265478   2.281   1.157  13.284 -0.6079 -0.1942 -2.2950
14663TIP3   OH265479   2.239   5.198   5.633  0.0192  0.2831  0.3151
14663TIP3    H165480   2.282   5.275   5.595 -1.0243  0.9233  0.4339
14663TIP3    H265481   2.152   5.196   5.594  1.0987 -2.6957 -2.1723
14664TIP3   OH265482   0.559   3.632  12.294 -0.1242  0.3185  0.0616
14664TIP3    H165483   0.524   3.586  12.218 -1.0715  0.3575  0.4684
14664TIP3    H265484   0.485   3.640  12.354  0.0218  2.3531  0.0136
14665TIP3   OH265485   1.856   4.041   3.442  0.2244 -0.0899 -0.1049
14665TIP3    H165486   1.842   3.951   3.471  0.1801 -0.2718 -0.6795
14665TIP3    H265487   1.772   4.084   3.457 -0.0478 -0.3980 -0.7433
14666TIP3   OH265488   1.357   0.335   4.228  0.3693  0.6663  0.4070
14666TIP3    H165489   1.430   0.348   4.168 -0.4941  1.4426 -0.5063
14666TIP3    H265490   1.283   0.379   4.185 -0.5548  0.1613  1.4547
14667TIP3   OH265491   6.052   2.168   2.082  0.4506  0.6675 -0.3347
14667TIP3    H165492   6.056   2.251   2.129 -0.1635  0.4609  0.0764
14667TIP3    H265493   5.998   2.186   2.005  1.5927  1.0492 -1.0762
14668TIP3   OH265494   1.829   2.075  12.157 -0.1141 -0.0128 -0.1771
14668TIP3    H165495   1.876   2.022  12.222  1.0925  0.8917 -0.3006
14668TIP3    H265496   1.830   2.163  12.193 -1.1396  0.1378 -0.5170
14669TIP3   OH265497   3.015   4.868   1.803  0.0844 -0.0355  0.8205
14669TIP3    H165498   3.007   4.871   1.708 -0.7305  0.5545  0.9062
14669TIP3    H265499   3.008   4.959   1.831  0.2151 -0.2152  1.4543
14670TIP3   OH265500   2.455   1.731  13.722  0.0218  0.4699 -0.0010
14670TIP3    H165501   2.517   1.744  13.794  0.0739  1.2112 -0.1738
14670TIP3    H265502   2.497   1.666  13.665 -0.0305 -0.1403  0.6447
14671TIP3   OH265503   2.512   3.683   3.662  0.5262 -0.2217 -0.3551
14671TIP3    H165504   2.550   3.652   3.580 -1.4854 -0.7565 -1.0897
14671TIP3    H265505   2.490   3.775   3.645 -0.8054 -0.6103 -0.7365
14672TIP3   OH265506   6.733   2.018   4.191 -0.4131 -0.3808  0.0484
14672TIP3    H165507   6.656   2.029   4.136 -0.6294  0.6008  0.5253
14672TIP3    H265508   6.807   2.032   4.133 -0.6415  0.6910  0.0071
14673TIP3   OH265509   3.005   2.499   1.320 -0.4275 -0.2151 -0.3954
14673TIP3    H165510   3.053   2.564   1.372 -0.6588 -0.9349  0.7354
14673TIP3    H265511   2.937   2.549   1.276 -0.9759  0.2229  0.9327
14674TIP3   OH265512   4.434   1.732   1.062 -0.1805  0.1464  0.0809
14674TIP3    H165513   4.397   1.802   1.117  0.3364  0.2389  0.3159
14674TIP3    H265514   4.358   1.683   1.030 -0.4864  0.1328  0.8303
14675TIP3   OH265515   3.786   5.195  10.814  0.1065  0.0376 -0.0024
14675TIP3    H165516   3.781   5.266  10.750  1.1725 -0.1110 -0.2528
14675TIP3    H265517   3.771   5.237  10.898  0.4747  0.5221 -0.1780
14676TIP3   OH265518   2.326   2.845   5.515 -0.4311  0.4155  0.2579
14676TIP3    H165519   2.350   2.932   5.546 -0.9269 -0.0108  1.9122
14676TIP3    H265520   2.390   2.787   5.556  0.2281  0.0279 -1.2581
14677TIP3   OH265521   2.627   6.175  13.309 -0.1244 -0.1242  0.2318
14677TIP3    H165522   2.661   6.162  13.397 -1.4389 -1.0948  0.6061
14677TIP3    H265523   2.705   6.172  13.253  0.5939 -0.6104  1.2365
14678TIP3   OH265524   1.169   3.759  11.959  0.5217 -0.0514  0.6959
14678TIP3    H165525   1.121   3.743  11.878  0.7672  0.6527  0.4047
14678TIP3    H265526   1.162   3.854  11.972  0.0774 -0.2192  1.7546
14679TIP3   OH265527   5.001   4.332  13.466 -0.1151  0.1854 -0.1537
14679TIP3    H165528   5.036   4.315  13.378  1.0630  0.1056  0.3279
14679TIP3    H265529   4.967   4.422  13.461 -0.8889 -0.1402 -0.9519
14680TIP3   OH265530   6.125   2.383  15.017 -0.0033 -0.0958 -0.3783
14680TIP3    H165531   6.118   2.477  15.032 -0.9246 -0.3068  0.5800
14680TIP3    H265532   6.201   2.356  15.069 -0.3639 -0.0509  0.1746
14681TIP3   OH265533   5.363   4.552   3.140 -0.2002 -0.4193 -0.5741
14681TIP3    H165534   5.300   4.595   3.082  0.4830 -0.7212 -1.5373
14681TIP3    H265535   5.449   4.582   3.110  0.1029  0.7665  1.3515
14682TIP3   OH265536   0.034   1.744   0.336 -0.0995  0.1026  0.3306
14682TIP3    H165537  -0.045   1.717   0.383 -0.4326  1.4492  0.5656
14682TIP3    H265538   0.082   1.798   0.398  1.0006 -0.6950  0.1756
14683TIP3   OH265539   5.133   1.127  12.254 -0.1932 -0.2902 -0.1763
14683TIP3    H165540   5.129   1.199  12.191 -2.8286 -0.9726 -0.8663
14683TIP3    H265541   5.143   1.170  12.339  1.6942  0.7108 -0.8817
14684TIP3   OH265542   4.870   5.170  15.795 -0.0595 -0.3251 -0.0326
14684TIP3    H165543   4.942   5.193  15.736  2.3121 -1.8941  2.1383
14684TIP3    H265544   4.856   5.250  15.847 -1.2983  0.6396 -1.8035
14685TIP3   OH265545   3.592   2.130   5.246 -0.8054  0.3757 -0.1845
14685TIP3    H165546   3.511   2.163   5.284 -1.2508  0.0077 -0.8033
14685TIP3    H265547   3.656   2.135   5.318 -1.8183 -1.0361  0.8441
14686TIP3   OH265548   0.831   0.516   1.569 -0.6979 -0.5044  0.0320
14686TIP3    H165549   0.755   0.483   1.523 -1.3631  1.8397 -0.6294
14686TIP3    H265550   0.816   0.493   1.661 -1.9022 -0.6030 -0.1865
14687TIP3   OH265551   5.395   5.025   2.707 -0.1491  0.3390 -0.4251
14687TIP3    H165552   5.428   5.006   2.795  0.6420  1.1418 -0.5452
14687TIP3    H265553   5.361   4.941   2.676 -0.5634  0.0848  0.7017
14688TIP3   OH265554   6.662   5.639   1.468 -0.4692 -0.4427 -0.2572
14688TIP3    H165555   6.643   5.560   1.417 -1.0385  0.3931 -1.3743
14688TIP3    H265556   6.725   5.688   1.415  0.7582 -0.6687  0.9609
14689TIP3   OH265557   3.646   6.319   0.022  0.1856 -0.2521 -0.4215
14689TIP3    H165558   3.739   6.299   0.035  0.0179 -1.0208 -0.4225
14689TIP3    H265559   3.632   6.398   0.075  0.8676 -0.0532 -0.5221
14690TIP3   OH265560   0.735   0.214   1.446  0.0174 -0.1824  0.5873
14690TIP3    H165561   0.822   0.247   1.423 -0.4715  1.2548  0.7303
14690TIP3    H265562   0.690   0.290   1.483 -2.3229 -0.0702 -2.2909
14691TIP3   OH265563   5.780   1.484   4.093 -0.4409 -0.3400  0.1855
14691TIP3    H165564   5.863   1.529   4.079  0.3205 -1.3525  1.2609
14691TIP3    H265565   5.724   1.512   4.021  0.2292  1.7676  0.4457
14692TIP3   OH265566   4.629   1.581  11.970 -0.1705  0.5062 -0.3542
14692TIP3    H165567   4.686   1.547  12.039  0.1668  0.8689 -0.4550
14692TIP3    H265568   4.546   1.535  11.983  0.5913 -1.1223 -1.1196
14693TIP3   OH265569   0.557   3.760   2.658 -0.4356  0.7763 -0.5635
14693TIP3    H165570   0.596   3.769   2.571 -1.0527  0.7525 -0.8454
14693TIP3    H265571   0.467   3.791   2.647 -1.1134 -1.0538 -0.4006
14694TIP3   OH265572   3.657   5.990  16.005  0.3717  0.6440 -0.3975
14694TIP3    H165573   3.687   5.971  15.916  0.0375  1.4895 -0.6911
14694TIP3    H265574   3.585   6.052  15.993  1.1197  1.6909  0.5444
14695TIP3   OH265575   0.800   6.808   4.519 -0.0431  0.1676  0.4156
14695TIP3    H165576   0.707   6.786   4.513  0.4138 -1.6680 -0.3569
14695TIP3    H265577   0.833   6.750   4.588  0.6067  0.5296  0.4072
14696TIP3   OH265578   5.818   3.808  12.151 -0.5308 -0.1356 -0.1729
14696TIP3    H165579   5.847   3.778  12.065 -1.0914  2.0182 -1.1598
14696TIP3    H265580   5.870   3.886  12.168 -2.7545  1.3873 -0.0936
14697TIP3   OH265581   4.975   0.745   0.477 -0.0985  0.2606 -0.0241
14697TIP3    H165582   4.957   0.753   0.571 -0.9831  0.0301 -0.1624
14697TIP3    H265583   4.916   0.809   0.436  0.6230  0.6970 -0.3888
14698TIP3   OH265584   0.823   3.499   5.622 -0.3998 -0.2639  0.3018
14698TIP3    H165585   0.747   3.518   5.677 -0.6230 -0.5444  0.0934
14698TIP3    H265586   0.809   3.409   5.592  1.8784 -1.7062  3.2832
14699TIP3   OH265587   6.212   4.220  13.527  0.2499 -0.8400 -0.2894
14699TIP3    H165588   6.133   4.167  13.534 -0.0480 -0.1864  1.6525
14699TIP3    H265589   6.258   4.206  13.610  1.2224  0.2554 -0.6281
14700TIP3   OH265590   2.136   0.632  12.263  0.3601 -0.7315  0.0834
14700TIP3    H165591   2.220   0.634  12.309 -0.0953  1.0505  0.8727
14700TIP3    H265592   2.093   0.713  12.289 -0.5522 -0.4144 -2.3076
14701TIP3   OH265593   3.540   1.075   4.608  0.2766  0.2725  0.8103
14701TIP3    H165594   3.542   1.002   4.545 -0.4701 -0.0407  1.1464
14701TIP3    H265595   3.629   1.078   4.643  1.0749  1.2668 -1.1751
14702TIP3   OH265596   5.131   4.783   3.241  0.6049  0.4434  0.0913
14702TIP3    H165597   5.210   4.838   3.241  1.3596 -0.5990  0.6905
14702TIP3    H265598   5.113   4.768   3.334  0.4569 -0.3694 -0.0611
14703TIP3   OH265599   2.493   3.311   6.200 -0.6180 -0.0620  0.4895
14703TIP3    H165600   2.481   3.370   6.274  0.0346 -0.2421  0.7440
14703TIP3    H265601   2.534   3.233   6.238 -1.1500 -0.5396  0.1000
14704TIP3   OH265602   2.404   4.966   3.418 -0.3783 -0.2633  0.4642
14704TIP3    H165603   2.395   4.993   3.327  0.3209  1.2607  0.8265
14704TIP3    H265604   2.438   4.877   3.414  0.6939  0.1824 -0.7774
14705TIP3   OH265605   5.608   6.439   0.182  0.2550 -0.0821 -0.5199
14705TIP3    H165606   5.700   6.434   0.211  0.5726  0.3301 -1.4522
14705TIP3    H265607   5.600   6.370   0.116  0.4947  1.3421 -2.0649
14706TIP3   OH265608   5.525   4.233  11.341  0.1135 -0.0471 -0.0131
14706TIP3    H165609   5.451   4.279  11.300  0.3828  1.6854  1.3910
14706TIP3    H265610   5.601   4.285  11.317  0.3423  0.6629  2.1887
14707TIP3   OH265611   5.863   0.701   5.714  0.2077 -0.1445 -0.0913
14707TIP3    H165612   5.866   0.697   5.810  0.9429  4.2737  0.1640
14707TIP3    H265613   5.779   0.743   5.695  0.9678  0.8755 -1.2523
14708TIP3   OH265614   4.606   4.828  13.746  0.3770  0.4970  0.1293
14708TIP3    H165615   4.601   4.923  13.740 -0.3445  0.4636  0.1528
14708TIP3    H265616   4.528   4.803  13.795  2.6098  0.2287  3.7928
14709TIP3   OH265617   3.614   3.900   0.630  0.4107  0.1400 -0.1163
14709TIP3    H165618   3.611   3.804   0.630  0.7122  0.1068  1.9981
14709TIP3    H265619   3.551   3.926   0.562 -1.2146 -1.5193  0.7152
14710TIP3   OH265620   4.647   5.659  16.494  0.3958  0.1735 -0.0625
14710TIP3    H165621   4.689   5.579  16.464  0.2424 -0.0372  0.2826
14710TIP3    H265622   4.635   5.712  16.415  2.6301  0.8431 -0.0084
14711TIP3   OH265623   0.256   0.058  11.668  0.7547 -0.5970 -0.1748
14711TIP3    H165624   0.252   0.037  11.575 -0.1895 -1.7299  0.1139
14711TIP3    H265625   0.342   0.099  11.679  0.6674  0.0063 -1.6327
14712TIP3   OH265626   1.576   3.024  11.441 -0.1469  0.1013 -0.3000
14712TIP3    H165627   1.619   3.063  11.365  0.4010 -0.3728 -0.2355
14712TIP3    H265628   1.557   2.934  11.414  0.4888 -0.2125  0.3010
14713TIP3   OH265629   0.775   2.953  13.020  0.6516 -0.6139 -0.0940
14713TIP3    H165630   0.805   2.971  12.931  0.7289  1.1308  0.2792
14713TIP3    H265631   0.696   3.006  13.030 -0.4060 -2.2082  0.2682
14714TIP3   OH265632   5.051   0.019   2.398  0.3067 -0.0347 -0.2985
14714TIP3    H165633   5.122   0.011   2.462 -0.0823 -0.4397  0.0822
14714TIP3    H265634   5.056   0.111   2.370 -1.1008  0.8409  2.1722
14715TIP3   OH265635   6.159   5.619  17.045  0.1808  0.3032  0.1373
14715TIP3    H165636   6.129   5.534  17.079 -1.2132  1.2696  1.3526
14715TIP3    H265637   6.079   5.666  17.023  0.9797  0.9394 -1.4868
14716TIP3   OH265638   2.715   4.258   3.517 -0.2511  0.0725 -0.0020
14716TIP3    H165639   2.718   4.163   3.512 -0.0825 -0.0018  1.2202
14716TIP3    H265640   2.757   4.279   3.600  0.7292  1.2853 -0.7876
14717TIP3   OH265641   3.666   1.243   2.019 -0.1627  0.0328 -0.7719
14717TIP3    H165642   3.693   1.205   2.103 -0.4811  0.9113 -0.2527
14717TIP3    H265643   3.661   1.337   2.037 -2.4097  0.0082 -1.1468
14718TIP3   OH265644   5.133   6.759  11.573 -0.5008  0.3988  0.5152
14718TIP3    H165645   5.139   6.793  11.662 -1.2001 -0.4339  0.8906
14718TIP3    H265646   5.059   6.806  11.534  1.0770  2.2300 -0.2927
14719TIP3   OH265647   4.480   5.268  12.941  0.3093  0.1332  0.2764
14719TIP3    H165648   4.536   5.190  12.944 -0.2293 -0.3171 -0.8630
14719TIP3    H265649   4.519   5.322  12.872 -0.3898  0.0201 -0.2123
14720TIP3   OH265650   5.667   2.989   0.788 -0.1788  0.2277 -0.0146
14720TIP3    H165651   5.708   3.074   0.774 -1.2298  0.6320 -0.7058
14720TIP3    H265652   5.594   3.006   0.847  0.4763 -0.4503  1.0173
14721TIP3   OH265653   3.428   0.528  11.436  0.8840  0.5999 -0.3121
14721TIP3    H165654   3.489   0.602  11.429  0.4491  0.9596 -0.3381
14721TIP3    H265655   3.440   0.479  11.355 -0.2606  1.7603 -1.2104
14722TIP3   OH265656   6.000   2.104  11.147 -0.3329 -0.2181 -0.5224
14722TIP3    H165657   5.956   2.040  11.091 -1.3549 -0.6615  0.7430
14722TIP3    H265658   6.035   2.052  11.219  0.8685  0.3611 -0.6831
14723TIP3   OH265659   1.421   5.066   1.679  0.1074 -0.0091 -0.0932
14723TIP3    H165660   1.427   5.034   1.769 -2.7175 -0.3421  0.0175
14723TIP3    H265661   1.398   4.989   1.627 -1.5696  0.8012 -0.5870
14724TIP3   OH265662   2.217   0.117  14.695 -0.2780 -0.7548  0.2322
14724TIP3    H165663   2.265   0.157  14.767  0.8451 -1.0027 -0.3517
14724TIP3    H265664   2.242   0.025  14.698  0.2667 -0.6567 -0.8290
14725TIP3   OH265665   2.616   4.944  12.008  0.1719 -0.5451 -0.5451
14725TIP3    H165666   2.670   4.999  11.952 -0.8269 -0.5008 -1.4828
14725TIP3    H265667   2.679   4.889  12.056  1.2652  2.4382  1.5498
14726TIP3   OH265668   5.504   1.004   2.546  0.8012  0.1188 -0.1264
14726TIP3    H165669   5.487   0.960   2.462 -0.7605 -0.3168  0.3881
14726TIP3    H265670   5.519   0.932   2.608  0.7047  0.3905  0.2169
14727TIP3   OH265671   4.336   1.919   2.834 -0.4575  0.4958  0.0165
14727TIP3    H165672   4.388   1.873   2.768 -2.8762 -0.8660 -1.0158
14727TIP3    H265673   4.369   1.888   2.918  0.4655 -0.2332 -0.6139
14728TIP3   OH265674   3.666   4.705   4.082 -0.0658  0.0898  0.4825
14728TIP3    H165675   3.736   4.762   4.114  0.2965  0.7613 -1.4365
14728TIP3    H265676   3.594   4.765   4.063 -0.1180 -0.2434 -0.3692
14729TIP3   OH265677   6.732   6.674   2.225 -0.1485 -0.1993 -0.3032
14729TIP3    H165678   6.671   6.728   2.174 -1.3125 -0.6039  0.6337
14729TIP3    H265679   6.776   6.620   2.159  0.6280  1.4615 -1.1985
14730TIP3   OH265680   4.359   1.209  15.427  0.9833  0.5624 -0.2104
14730TIP3    H165681   4.451   1.214  15.453  0.8319 -0.8254  0.6158
14730TIP3    H265682   4.310   1.203  15.509  0.0439  2.6384 -0.5916
14731TIP3   OH265683   3.756   2.936   3.554 -0.2683 -0.0999 -0.3150
14731TIP3    H165684   3.807   3.016   3.566 -0.6852 -0.0370  1.0926
14731TIP3    H265685   3.744   2.930   3.459  0.5507  1.0041 -0.5080
14732TIP3   OH265686   0.287   4.121  10.974  0.2839  0.3587 -0.3003
14732TIP3    H165687   0.212   4.084  10.927  1.1693  0.2426 -1.6570
14732TIP3    H265688   0.302   4.061  11.047 -0.8958  0.3440 -0.0649
14733TIP3   OH265689   2.105   3.330   4.246  0.0356  0.4432  0.2192
14733TIP3    H165690   2.142   3.403   4.197  0.8934  0.3913  0.7819
14733TIP3    H265691   2.070   3.271   4.180 -0.7988  1.4412 -0.2360
14734TIP3   OH265692   5.378   4.568  16.011 -0.0380  0.9205  0.1464
14734TIP3    H165693   5.346   4.524  16.090 -0.0450  1.3829  0.4035
14734TIP3    H265694   5.383   4.498  15.945 -1.5983  0.8265  0.1007
14735TIP3   OH265695   6.702   1.581   3.558 -0.2312  0.5483 -0.1040
14735TIP3    H165696   6.661   1.628   3.486  0.2583  2.4321  0.8122
14735TIP3    H265697   6.796   1.597   3.546 -0.1809  1.4438  1.2899
14736TIP3   OH265698   5.194   0.627   4.168  0.2621 -0.4381 -0.3013
14736TIP3    H165699   5.120   0.573   4.194  0.9448 -1.4457 -0.4081
14736TIP3    H265700   5.187   0.634   4.073  1.4649 -2.2991 -0.5518
14737TIP3   OH265701   2.469   3.821  12.521  0.3581 -0.4913 -0.0353
14737TIP3    H165702   2.495   3.733  12.548  1.4543  0.0581  0.7336
14737TIP3    H265703   2.510   3.833  12.435  1.5206 -0.1510  0.5561
14738TIP3   OH265704   1.464   2.516   5.444 -0.4321  0.3295  0.1321
14738TIP3    H165705   1.381   2.503   5.489 -1.2806  1.1133 -1.1708
14738TIP3    H265706   1.492   2.604   5.470  0.8695 -0.5831  1.9261
14739TIP3   OH265707   5.837   4.192  12.819  0.3176  0.1145  0.3238
14739TIP3    H165708   5.796   4.139  12.887  2.8214 -1.5279  0.6104
14739TIP3    H265709   5.807   4.153  12.737 -0.1026  0.0322  0.5157
14740TIP3   OH265710   4.011   4.660  14.695  0.1407 -0.2650 -0.0511
14740TIP3    H165711   4.054   4.618  14.769 -1.3534 -1.9285 -0.0979
14740TIP3    H265712   4.073   4.649  14.622 -0.6377 -3.3173 -0.3007
14741TIP3   OH265713   3.714   1.447  15.599 -0.9063  0.3448  0.0355
14741TIP3    H165714   3.629   1.490  15.611 -1.1805 -0.1793 -0.0479
14741TIP3    H265715   3.702   1.359  15.635 -0.7231 -0.1022 -0.9957
14742TIP3   OH265716   2.540   0.512   1.198  0.1552  0.0043  0.0341
14742TIP3    H165717   2.461   0.503   1.144  0.6711 -1.0989 -0.5588
14742TIP3    H265718   2.552   0.606   1.207 -1.1649  0.1915  0.0454
14743TIP3   OH265719   4.892   6.065   3.297 -0.1366 -0.1719 -0.1433
14743TIP3    H165720   4.879   6.016   3.378 -0.6171 -1.0108 -0.7158
14743TIP3    H265721   4.931   6.148   3.325 -3.1317  0.8398  1.2760
14744TIP3   OH265722   3.856   2.586  11.632  0.4124  0.2779  0.3407
14744TIP3    H165723   3.869   2.652  11.701 -0.3917  1.1960 -0.3766
14744TIP3    H265724   3.832   2.637  11.555  0.1665 -0.8406 -0.3262
14745TIP3   OH265725   5.102   4.086  14.978  0.4656 -0.6866  0.2920
14745TIP3    H165726   5.014   4.050  14.966  0.3673 -0.4198  0.2016
14745TIP3    H265727   5.149   4.059  14.899  0.2373 -0.1685 -0.0299
14746TIP3   OH265728   5.803   6.379   1.852  0.4187 -0.3018  0.8041
14746TIP3    H165729   5.758   6.360   1.934 -1.4001  1.7284  0.3192
14746TIP3    H265730   5.896   6.379   1.875  0.0770 -2.5677  2.2507
14747TIP3   OH265731   4.681   1.355  12.762  0.2334  0.2599 -0.0836
14747TIP3    H165732   4.716   1.286  12.818 -0.6388  0.7283  1.0502
14747TIP3    H265733   4.607   1.391  12.811 -0.5021  0.7257 -1.5003
14748TIP3   OH265734   6.026   5.911  16.243 -0.2897 -0.1365 -0.5668
14748TIP3    H165735   6.070   5.986  16.202 -1.2958  0.1025 -1.2522
14748TIP3    H265736   6.056   5.912  16.333 -0.6513  1.3985 -0.4468
14749TIP3   OH265737   0.001   0.168   2.582 -0.4856  0.1945 -1.0346
14749TIP3    H165738   0.049   0.142   2.504 -0.3358  1.3910 -1.3528
14749TIP3    H265739  -0.025   0.086   2.623  1.3978 -0.4624 -1.1240
14750TIP3   OH265740   6.519   1.583   4.093  0.0671  0.3476 -0.2459
14750TIP3    H165741   6.451   1.633   4.139 -0.0115 -0.3255  0.3680
14750TIP3    H265742   6.518   1.618   4.004 -0.6663  0.7659 -0.0772
14751TIP3   OH265743   1.365   2.999   0.370 -0.1166  0.7129  0.1027
14751TIP3    H165744   1.368   2.916   0.418  0.9172 -0.0866 -1.2881
14751TIP3    H265745   1.305   2.982   0.297 -0.0705  1.2601 -0.0662
14752TIP3   OH265746   3.134   6.405  14.511  0.2849  0.0456 -0.3083
14752TIP3    H165747   3.224   6.374  14.504  0.3117 -0.1631  0.8321
14752TIP3    H265748   3.142   6.494  14.546  0.0107 -0.4986  1.2085
14753TIP3   OH265749   0.666   6.319  11.490  0.3758 -0.1175 -0.5888
14753TIP3    H165750   0.715   6.237  11.482  0.9248 -0.0647  1.8278
14753TIP3    H265751   0.722   6.384  11.448  1.1023 -0.5529 -0.3161
14754TIP3   OH265752   1.263   4.833  12.943 -0.4925 -0.2562  0.0126
14754TIP3    H165753   1.340   4.799  12.989 -0.7228  1.6141  1.8998
14754TIP3    H265754   1.188   4.793  12.988 -0.6771  0.3592  0.2687
14755TIP3   OH265755   4.508   5.925   3.776  0.3903 -0.2191 -0.4719
14755TIP3    H165756   4.540   5.888   3.694  1.0790 -0.4567 -0.1013
14755TIP3    H265757   4.564   6.001   3.791 -0.4125  0.4335 -0.7503
14756TIP3   OH265758   4.001   0.640   1.238  0.2978  0.6229 -0.2265
14756TIP3    H165759   4.052   0.720   1.250  2.4152 -0.5197 -1.2360
14756TIP3    H265760   3.946   0.634   1.316  1.1762  2.2895  0.5491
14757TIP3   OH265761   2.774   5.528  15.858 -0.9454 -0.3548  0.1485
14757TIP3    H165762   2.865   5.528  15.887 -1.0067 -0.1720  0.3417
14757TIP3    H265763   2.723   5.529  15.939 -1.1163  0.5962  0.0353
14758TIP3   OH265764   1.778   4.658  14.951 -0.1029 -0.1241 -0.4136
14758TIP3    H165765   1.815   4.583  14.998  0.5665  1.2005  1.2257
14758TIP3    H265766   1.847   4.685  14.890  1.3612  1.7425  1.9642
14759TIP3   OH265767   2.761   0.255  14.938 -0.2219 -0.5796  0.8038
14759TIP3    H165768   2.780   0.188  14.872 -2.8013 -1.0547  0.4911
14759TIP3    H265769   2.745   0.335  14.887 -0.3445 -0.4994  0.9678
14760TIP3   OH265770   1.498   0.052  11.174 -0.7964  0.5117 -0.1405
14760TIP3    H165771   1.523   0.144  11.175 -1.3097  0.6918 -2.1526
14760TIP3    H265772   1.545   0.015  11.099 -1.4451 -0.6045 -0.0114
14761TIP3   OH265773   0.066   2.940   2.595 -0.6334 -0.0818  0.2218
14761TIP3    H165774   0.050   2.965   2.504 -2.2745 -0.2944  0.4351
14761TIP3    H265775   0.091   3.022   2.638  0.5076 -0.0506 -0.4913
14762TIP3   OH265776   5.596   2.821  12.010  0.0504  0.0681 -0.0164
14762TIP3    H165777   5.677   2.789  12.049  0.3853  1.4615  0.4840
14762TIP3    H265778   5.612   2.914  11.995 -1.4369  0.3572  0.0725
14763TIP3   OH265779   5.664   1.077   4.887  0.4194 -0.4828 -0.8985
14763TIP3    H165780   5.654   1.143   4.818 -0.7251  0.6086  0.2864
14763TIP3    H265781   5.757   1.075   4.906  0.2251  2.3261  0.5193
14764TIP3   OH265782   6.592   4.581  14.010  0.3902 -0.1089  0.1910
14764TIP3    H165783   6.627   4.620  14.091 -1.2766  0.1339  0.8173
14764TIP3    H265784   6.595   4.652  13.946  0.8396 -0.0279  0.3024
14765TIP3   OH265785   1.024   4.603   3.760 -0.5517  0.1197  0.7043
14765TIP3    H165786   1.040   4.575   3.670 -0.9408 -0.0929  0.6971
14765TIP3    H265787   1.064   4.689   3.766  0.6380 -0.4260  0.7136
14766TIP3   OH265788   1.322   6.401   2.402  0.0106  0.0596 -0.1669
14766TIP3    H165789   1.332   6.474   2.464 -0.0151  0.8585 -1.0980
14766TIP3    H265790   1.412   6.372   2.385 -0.0169 -0.5495  0.6951
14767TIP3   OH265791   0.650   5.378   3.370  0.4972  1.0501  0.3550
14767TIP3    H165792   0.732   5.350   3.410  0.7730 -1.3384 -1.8073
14767TIP3    H265793   0.582   5.349   3.431  1.0269 -0.7609  0.1094
14768TIP3   OH265794   4.833   5.410  13.525  0.0634 -0.1435  0.1439
14768TIP3    H165795   4.796   5.487  13.483  0.6813  0.7551  1.1988
14768TIP3    H265796   4.765   5.343  13.517 -0.6526  0.6372 -0.4112
14769TIP3   OH265797   6.012   0.837   0.680 -0.2625  0.1159  0.4690
14769TIP3    H165798   5.923   0.869   0.671  0.8761  2.7456 -2.3017
14769TIP3    H265799   6.059   0.908   0.725  0.7486 -0.6753  0.6967
14770TIP3   OH265800   0.861   0.643   5.524  0.0495  0.5317 -0.0288
14770TIP3    H165801   0.907   0.652   5.607 -0.2024  0.8723  0.0723
14770TIP3    H265802   0.920   0.589   5.470 -0.4536 -0.9096  0.8513
14771TIP3   OH265803   3.019   4.808  12.724  0.5160  0.0652  0.0332
14771TIP3    H165804   2.938   4.757  12.733  0.2760  0.3118 -0.6428
14771TIP3    H265805   3.087   4.742  12.709  0.2730 -0.0857 -0.4166
14772TIP3   OH265806   0.559   6.559  14.444 -0.0062  0.2928 -0.8229
14772TIP3    H165807   0.566   6.622  14.516 -0.4238 -0.8330  0.2056
14772TIP3    H265808   0.558   6.614  14.365 -1.6086  1.6699  0.1152
14773TIP3   OH265809   1.337   1.425   2.523  0.2018  0.6961 -0.5060
14773TIP3    H165810   1.350   1.340   2.565 -1.3352  1.9077  2.5350
14773TIP3    H265811   1.299   1.404   2.437 -0.4675 -1.6505  0.3314
14774TIP3   OH265812   6.741   2.094  17.178  0.0187  0.3734  0.5872
14774TIP3    H165813   6.698   2.178  17.191  0.9451  0.7552  1.2620
14774TIP3    H265814   6.826   2.103  17.222 -0.3038 -1.2749  1.6106
14775TIP3   OH265815   4.251   5.111   5.348 -0.4835  0.0910  0.7950
14775TIP3    H165816   4.345   5.101   5.334 -0.4592  0.4916  0.6585
14775TIP3    H265817   4.220   5.155   5.269 -0.9287 -0.8066  0.4567
14776TIP3   OH265818   2.012   1.482  17.049  0.2143 -0.0076  0.2933
14776TIP3    H165819   2.029   1.446  16.962  1.6007 -0.9091  0.9222
14776TIP3    H265820   1.918   1.503  17.048  0.0054 -0.9426 -1.0776
14777TIP3   OH265821   1.148   2.968  16.784 -0.5229 -0.1723  0.4974
14777TIP3    H165822   1.134   3.001  16.695  1.0696  0.1437  0.3508
14777TIP3    H265823   1.241   2.945  16.786 -0.9331 -1.8169  1.5419
14778TIP3   OH265824   1.031   3.866  13.266 -0.2300 -0.0955 -0.1151
14778TIP3    H165825   1.001   3.866  13.357 -0.4039 -0.6692 -0.1706
14778TIP3    H265826   0.961   3.823  13.217  2.1609 -4.8004  0.2655
14779TIP3   OH265827   4.628   4.725   3.573  0.0309 -0.0723 -0.1755
14779TIP3    H165828   4.597   4.640   3.604  2.3987 -0.4350  1.3645
14779TIP3    H265829   4.555   4.760   3.521 -1.3083 -2.6337 -0.1086
14780TIP3   OH265830   0.758   0.374   1.867 -0.0943  0.2229 -0.2342
14780TIP3    H165831   0.716   0.355   1.950  1.7210 -0.9417  0.4624
14780TIP3    H265832   0.772   0.288   1.827  1.2134  0.6049 -0.6339
14781TIP3   OH265833   6.568   6.603  16.212 -0.4781 -0.1833 -0.9327
14781TIP3    H165834   6.567   6.572  16.302  0.4491  0.3643 -0.7237
14781TIP3    H265835   6.537   6.693  16.217  0.9448  0.3238 -0.9571
14782TIP3   OH265836   2.438   1.745  14.927 -0.0466  0.2963  0.4317
14782TIP3    H165837   2.417   1.787  15.010  3.1654  0.3091  1.2629
14782TIP3    H265838   2.529   1.717  14.935  0.5617  0.9300 -3.3371
14783TIP3   OH265839   1.302   5.496   2.725  0.5142 -0.5047 -0.0203
14783TIP3    H165840   1.334   5.494   2.815  0.6716 -0.9354 -0.0821
14783TIP3    H265841   1.221   5.547   2.729  1.4570  1.0152  0.0526
14784TIP3   OH265842   0.946   0.741   2.701  0.1463 -0.0321 -0.2459
14784TIP3    H165843   0.851   0.751   2.694 -0.1059 -1.3719  1.1184
14784TIP3    H265844   0.960   0.646   2.700  1.5925  0.1678 -1.7777
14785TIP3   OH265845   4.303   0.385  11.926 -0.2606 -0.1006 -0.5458
14785TIP3    H165846   4.355   0.384  11.845  1.0446 -2.3977  0.2759
14785TIP3    H265847   4.353   0.330  11.987 -3.6316 -2.4208  0.2622
14786TIP3   OH265848   4.336   2.573   5.790 -0.2005  0.1889 -0.7304
14786TIP3    H165849   4.271   2.634   5.826 -1.7325 -1.9156  0.2155
14786TIP3    H265850   4.418   2.621   5.793 -1.2200  1.9380  0.6951
14787TIP3   OH265851   5.579   4.961  13.811  0.1793 -0.0142 -0.1687
14787TIP3    H165852   5.532   5.015  13.875  0.8817 -0.1635  0.4868
14787TIP3    H265853   5.545   4.872  13.825 -0.0693  0.0464 -0.3863
14788TIP3   OH265854   1.882   6.028  14.404 -0.5194  0.1920 -0.3525
14788TIP3    H165855   1.882   5.936  14.378 -0.3824 -0.1602  0.8371
14788TIP3    H265856   1.918   6.075  14.329 -2.7139 -0.4598 -1.8490
14789TIP3   OH265857   6.156   5.324   0.995 -0.3293  0.4630 -0.3761
14789TIP3    H165858   6.088   5.327   0.928  0.5054  0.2045 -1.2688
14789TIP3    H265859   6.126   5.382   1.064 -2.9565 -2.1277  0.7198
14790TIP3   OH265860   1.424   5.119  13.539 -0.1190 -0.1290  0.6013
14790TIP3    H165861   1.360   5.135  13.608  0.5341  1.0980  0.9233
14790TIP3    H265862   1.403   5.031  13.507 -0.5434 -0.6129  2.2062
14791TIP3   OH265863   0.808   6.266  15.002 -0.3860 -0.1251 -0.0317
14791TIP3    H165864   0.752   6.344  14.993 -0.5972 -0.2357  0.3239
14791TIP3    H265865   0.785   6.230  15.087 -1.6543 -1.6610 -1.0110
14792TIP3   OH265866   0.381   3.811  13.779 -0.2742  0.6083  0.0408
14792TIP3    H165867   0.323   3.735  13.776 -1.0252  1.1531  0.7684
14792TIP3    H265868   0.430   3.800  13.861 -0.8137  1.2272  0.4458
14793TIP3   OH265869   1.599   0.130  16.513  0.2386  0.2122 -0.0746
14793TIP3    H165870   1.596   0.138  16.418  0.1278 -1.8704 -0.2896
14793TIP3    H265871   1.646   0.048  16.528  0.1098  0.4378  1.6608
14794TIP3   OH265872   2.839   1.277   5.136 -0.4077  0.2162  0.1331
14794TIP3    H165873   2.804   1.193   5.105 -0.9042  0.2618  0.5539
14794TIP3    H265874   2.846   1.266   5.231  3.1111 -0.6747 -0.1628
14795TIP3   OH265875   4.656   5.528  16.249 -0.2237 -0.4465 -0.0658
14795TIP3    H165876   4.568   5.496  16.229 -0.7371  1.3424 -0.6899
14795TIP3    H265877   4.698   5.454  16.293 -1.6709 -1.6938 -0.7364
14796TIP3   OH265878   1.955   2.285  16.425 -0.0893 -0.1378  0.3932
14796TIP3    H165879   2.007   2.350  16.377 -2.2910  1.9462  0.7086
14796TIP3    H265880   1.904   2.240  16.358  0.5189 -0.6709  0.2915
14797TIP3   OH265881   3.746   2.983   5.097  0.0489 -0.3740 -0.1774
14797TIP3    H165882   3.828   2.939   5.075  1.0486  0.6048  1.4445
14797TIP3    H265883   3.699   2.921   5.153  0.4909 -0.2558  0.3335
14798TIP3   OH265884   5.408   0.263   3.735 -0.3904 -0.1093  0.0028
14798TIP3    H165885   5.441   0.220   3.814 -0.1282  0.1201  0.0199
14798TIP3    H265886   5.476   0.327   3.713  0.0031 -0.8660 -0.9798
14799TIP3   OH265887   4.292   2.520  13.614  0.0745 -0.5259  0.3817
14799TIP3    H165888   4.387   2.522  13.614  0.0563  0.9937 -0.5326
14799TIP3    H265889   4.266   2.583  13.547 -1.5991  0.5264  1.9581
14800TIP3   OH265890   4.294   5.008  13.101 -0.0169 -0.1990  0.5088
14800TIP3    H165891   4.354   4.965  13.040  1.7898 -0.7078  2.5826
14800TIP3    H265892   4.281   5.095  13.063  0.9765 -0.5437 -0.6608
14801TIP3   OH265893   5.351   1.382   1.716 -0.2293  0.7089 -0.0830
14801TIP3    H165894   5.346   1.475   1.735 -0.3527  0.5162  0.8444
14801TIP3    H265895   5.263   1.358   1.688  0.4201  1.4009 -2.8797
14802TIP3   OH265896   3.335   0.876  12.412 -0.0021 -0.3067  0.5722
14802TIP3    H165897   3.308   0.910  12.497  1.0052  0.1563  0.7146
14802TIP3    H265898   3.292   0.791  12.405 -1.5674  0.4596  0.7362
14803TIP3   OH265899   6.378   5.095   1.480 -0.1863 -0.0202  0.1340
14803TIP3    H165900   6.416   5.021   1.433 -1.2649  0.5001 -1.5976
14803TIP3    H265901   6.285   5.074   1.488 -0.0854  0.0944  1.6866
14804TIP3   OH265902   1.300   1.871  13.006 -0.3468  0.1827  0.9845
14804TIP3    H165903   1.312   1.839  13.095  1.2400  0.5410  0.9152
14804TIP3    H265904   1.377   1.840  12.958 -0.3613  1.3806  0.1463
14805TIP3   OH265905   6.271   6.816   6.010 -0.1031  0.0911 -0.1118
14805TIP3    H165906   6.192   6.807   5.957  0.0847 -0.5841 -0.2874
14805TIP3    H265907   6.240   6.843   6.096 -0.4091  1.2745 -0.5904
14806TIP3   OH265908   0.472   1.859   4.325 -0.4282 -0.0241  0.0070
14806TIP3    H165909   0.509   1.772   4.341  0.9014  0.3725 -0.8433
14806TIP3    H265910   0.543   1.908   4.284 -1.2396  1.4046  0.2903
14807TIP3   OH265911   2.111   4.391   1.337  0.7155  0.0353 -0.2064
14807TIP3    H165912   2.093   4.485   1.341 -0.8286 -0.3211  2.8715
14807TIP3    H265913   2.079   4.357   1.421  0.6607 -3.3412 -1.5257
14808TIP3   OH265914   6.433   5.520   1.067 -0.0208 -0.1949  0.3458
14808TIP3    H165915   6.455   5.493   0.978  0.8486 -1.0315  0.8075
14808TIP3    H265916   6.339   5.541   1.062  0.1711  0.4613 -0.9171
14809TIP3   OH265917   2.474   3.386  13.977 -0.6706 -0.1235  0.2966
14809TIP3    H165918   2.411   3.346  13.917 -1.0191 -1.7096  1.6925
14809TIP3    H265919   2.445   3.477  13.985  0.0292  0.4223 -2.7722
14810TIP3   OH265920   3.807   5.922   4.630 -0.0722  0.3031  0.1067
14810TIP3    H165921   3.787   5.913   4.723 -0.2439  0.4634  0.0864
14810TIP3    H265922   3.902   5.916   4.624  0.0761  2.0502  0.4953
14811TIP3   OH265923   4.653   3.111  11.041  0.5291 -0.8843  0.5020
14811TIP3    H165924   4.665   3.025  11.080 -0.4674 -0.7992  0.9960
14811TIP3    H265925   4.741   3.138  11.015  1.1384 -1.1167  2.3135
14812TIP3   OH265926   2.565   0.332  17.281  0.1558 -0.6849 -0.4680
14812TIP3    H165927   2.567   0.251  17.332 -2.1462 -1.2812 -1.2828
14812TIP3    H265928   2.627   0.316  17.209  2.0062 -0.5360  1.0449
14813TIP3   OH265929   3.448   4.376   2.767 -0.2184  0.8513  0.1295
14813TIP3    H165930   3.511   4.435   2.809 -0.3348  0.2989  1.0874
14813TIP3    H265931   3.368   4.429   2.758 -0.9348  0.2858  2.7407
14814TIP3   OH265932   1.056   4.315  13.438  0.5064  0.1330 -0.2462
14814TIP3    H165933   1.084   4.390  13.386  0.2510 -1.0576 -2.1838
14814TIP3    H265934   1.069   4.240  13.380 -0.1409 -1.2073  1.3005
14815TIP3   OH265935   2.664   1.936   3.577 -0.6297  0.5071  0.3940
14815TIP3    H165936   2.645   1.893   3.660 -1.1994 -0.1994 -0.1002
14815TIP3    H265937   2.602   2.009   3.572 -0.9659  0.2178  0.3336
14816TIP3   OH265938   4.166   4.776  16.007  0.5981 -0.0024  0.8286
14816TIP3    H165939   4.090   4.832  15.994  0.3354 -0.5426  0.0130
14816TIP3    H265940   4.130   4.687  16.017  1.0929 -0.2066  0.8426
14817TIP3   OH265941   5.283   5.822  14.684  0.4172 -0.0558 -0.1790
14817TIP3    H165942   5.327   5.769  14.618 -0.9835  0.3406 -1.4580
14817TIP3    H265943   5.272   5.764  14.759  2.9231 -0.2099  0.0961
14818TIP3   OH265944   1.737   4.400  13.056 -0.2713  0.1661 -0.0314
14818TIP3    H165945   1.680   4.382  13.130 -0.7666  1.8553  0.0160
14818TIP3    H265946   1.678   4.432  12.987  0.5100  1.1944 -0.2395
14819TIP3   OH265947   5.415   2.671   5.921 -0.4133  0.1049  0.3261
14819TIP3    H165948   5.439   2.602   5.860 -0.7486  0.9836 -0.8026
14819TIP3    H265949   5.474   2.743   5.901 -0.9582  0.6338  0.6025
14820TIP3   OH265950   5.139   3.736  16.439 -0.3101  0.0274  0.0894
14820TIP3    H165951   5.090   3.667  16.395 -0.6173  0.2587  0.0685
14820TIP3    H265952   5.073   3.799  16.467 -0.2267 -0.5834  1.7435
14821TIP3   OH265953   2.614   3.793  11.643 -0.0592  0.4535  0.1675
14821TIP3    H165954   2.693   3.843  11.622 -0.4669  0.9318 -0.2126
14821TIP3    H265955   2.604   3.732  11.570  0.0036  0.3250  0.2642
14822TIP3   OH265956   3.738   0.878   5.803  0.2312  0.1864 -0.2367
14822TIP3    H165957   3.673   0.947   5.789  2.3585  2.3394  0.0158
14822TIP3    H265958   3.764   0.888   5.895  0.1117 -1.3733 -0.0319
14823TIP3   OH265959   5.931   5.740   5.065  0.4880 -0.5003 -0.3115
14823TIP3    H165960   5.881   5.676   5.014 -0.4657  0.1039 -0.1555
14823TIP3    H265961   5.955   5.695   5.145  0.4981 -0.9071 -0.5434
14824TIP3   OH265962   3.332   3.890   1.573  0.0981  0.1579 -0.4464
14824TIP3    H165963   3.424   3.897   1.599  0.2333 -0.5305 -0.7143
14824TIP3    H265964   3.299   3.979   1.577  0.8577  0.4555 -0.6364
14825TIP3   OH265965   2.134   2.097   3.333  0.2053  0.4177  0.2899
14825TIP3    H165966   2.097   2.182   3.357 -3.2490 -0.9681  0.2112
14825TIP3    H265967   2.064   2.035   3.350  2.7516 -2.4949  0.5981
14826TIP3   OH265968   6.107   4.487  14.640 -0.3374  0.3801  0.2328
14826TIP3    H165969   6.019   4.489  14.604 -0.3945  0.0555  0.3480
14826TIP3    H265970   6.103   4.422  14.710 -0.0303  0.4291  0.2976
14827TIP3   OH265971   1.421   3.580  15.134 -0.2662  0.2608  1.2166
14827TIP3    H165972   1.455   3.636  15.064  0.4038  0.5458  1.7668
14827TIP3    H265973   1.364   3.517  15.089 -0.4927  0.9614  0.5148
14828TIP3   OH265974   4.933   6.579  12.115 -0.2345 -0.1371  0.7683
14828TIP3    H165975   5.018   6.555  12.077 -0.0764 -0.7447  1.4945
14828TIP3    H265976   4.944   6.563  12.209 -0.7365  1.0189  1.0352
14829TIP3   OH265977   2.629   0.950  12.789 -0.8978 -0.0290  1.1445
14829TIP3    H165978   2.624   0.855  12.800  2.1171 -0.4839 -0.7927
14829TIP3    H265979   2.610   0.964  12.697  1.0183  0.9868  0.8769
14830TIP3   OH265980   3.052   0.193   6.020 -0.1006  0.7692 -0.1490
14830TIP3    H165981   2.972   0.204   6.071  0.2915 -0.0040  0.6500
14830TIP3    H265982   3.114   0.256   6.058  0.6665 -0.8404  1.3495
14831TIP3   OH265983   4.511   0.094  15.097  0.5306  0.4021  0.1929
14831TIP3    H165984   4.587   0.149  15.078 -0.5566  1.5265 -1.1104
14831TIP3    H265985   4.541   0.031  15.161  2.8435  0.1766 -1.0864
14832TIP3   OH265986   0.316   4.703   0.056 -0.2128  0.9538 -0.7859
14832TIP3    H165987   0.334   4.709  -0.038  1.4445 -0.7503 -0.6180
14832TIP3    H265988   0.386   4.754   0.097  0.2195  0.0764 -0.4077
14833TIP3   OH265989   3.182   1.819   0.586  0.5941 -0.2843 -0.0010
14833TIP3    H165990   3.223   1.875   0.652 -0.0799  0.3489 -0.1130
14833TIP3    H265991   3.177   1.873   0.508 -3.9242  1.0165  1.0660
14834TIP3   OH265992   2.644   5.506   2.082 -0.2444  0.0077  0.1210
14834TIP3    H165993   2.625   5.414   2.062 -3.1248  0.5673  0.0925
14834TIP3    H265994   2.680   5.542   2.000 -1.9310 -0.3625 -0.8025
14835TIP3   OH265995   6.099   6.818  12.775  0.2273 -0.1620 -0.2772
14835TIP3    H165996   6.072   6.908  12.794 -0.3241 -0.4441  0.3253
14835TIP3    H265997   6.186   6.811  12.813  0.1455  0.0296 -0.0498
14836TIP3   OH265998   2.106   4.886   1.081 -0.1936  0.3644  0.1465
14836TIP3    H165999   2.150   4.951   1.026  1.4543 -0.8799 -0.0544
14836TIP3    H266000   2.051   4.836   1.021  0.7041 -0.2298 -0.2033
14837TIP3   OH266001   3.083   4.578  13.850 -0.1952  0.4314  0.3079
14837TIP3    H166002   3.144   4.600  13.780 -1.0145  0.2434 -0.4716
14837TIP3    H266003   3.015   4.526  13.807 -3.1145  4.0123  0.2807
14838TIP3   OH266004   2.704   5.005   3.018 -0.7656 -0.4592 -0.2137
14838TIP3    H166005   2.688   4.987   3.111  1.6244 -1.9766 -0.0480
14838TIP3    H266006   2.772   4.942   2.994 -0.9387  0.3404 -2.8484
14839TIP3   OH266007   1.886   3.755   1.181  0.3693 -0.0430  0.1956
14839TIP3    H166008   1.941   3.707   1.243  0.4159  1.1606  1.1013
14839TIP3    H266009   1.799   3.719   1.194  0.4402 -0.0232  0.7355
14840TIP3   OH266010   5.112   3.030   5.547 -0.1582 -0.5457  0.1862
14840TIP3    H166011   5.106   3.016   5.452  0.3383 -0.5827  0.1594
14840TIP3    H266012   5.066   2.955   5.585  1.9719 -1.9677  0.0303
14841TIP3   OH266013   4.211   4.024  16.859 -0.0115  0.8584 -0.1636
14841TIP3    H166014   4.164   4.106  16.852 -0.7367  0.4903  0.4024
14841TIP3    H266015   4.144   3.956  16.850  0.5378  0.3271 -0.3390
14842TIP3   OH266016   3.986   3.038   3.010  0.2763 -0.4592 -0.0227
14842TIP3    H166017   4.070   3.067   3.047  0.2434 -0.7941  0.3137
14842TIP3    H266018   3.923   3.103   3.040  0.4137 -0.2178 -0.2587
14843TIP3   OH266019   1.895   2.425  11.639  0.3286  0.1268  0.2739
14843TIP3    H166020   1.923   2.516  11.645 -0.7770  0.4186  1.3782
14843TIP3    H266021   1.826   2.425  11.573  0.0722  0.1579  0.5413
14844TIP3   OH266022   0.436   6.426  12.225  0.0123 -0.5787  0.0835
14844TIP3    H166023   0.403   6.362  12.288 -1.7590 -0.2958 -0.5416
14844TIP3    H266024   0.504   6.473  12.274 -1.5254 -0.1771  1.9054
14845TIP3   OH266025   2.625   5.946   0.395  0.4956  0.6117 -0.0027
14845TIP3    H166026   2.561   6.009   0.428  0.0598 -0.4432  1.1696
14845TIP3    H266027   2.576   5.864   0.386  1.0089  0.4589 -1.7075
14846TIP3   OH266028   0.765   3.845   2.976  0.4820 -0.6036  0.1076
14846TIP3    H166029   0.816   3.852   2.895  1.9438  0.7962  1.1097
14846TIP3    H266030   0.734   3.934   2.992 -0.5124 -1.0410  0.6422
14847TIP3   OH266031   6.215   1.230  14.279  0.1993  0.2052  0.0629
14847TIP3    H166032   6.169   1.202  14.358  0.8454 -0.5445  0.1761
14847TIP3    H266033   6.149   1.223  14.209  0.3083 -1.4741  0.1115
14848TIP3   OH266034   3.755   2.923  16.884 -0.3526 -0.0836  0.1094
14848TIP3    H166035   3.756   2.990  16.816 -1.6190 -0.5898 -0.4086
14848TIP3    H266036   3.846   2.920  16.915 -0.1059  1.2732 -0.4402
14849TIP3   OH266037   2.829   5.897  13.808 -0.0808  0.4205 -0.0538
14849TIP3    H166038   2.877   5.954  13.749 -0.3579  1.8272  1.0594
14849TIP3    H266039   2.879   5.898  13.890  0.8180 -2.2562 -0.5012
14850TIP3   OH266040   6.040   6.699  16.000 -0.4585  0.1244  0.0983
14850TIP3    H166041   5.958   6.717  16.046  0.0317  1.8297  0.3465
14850TIP3    H266042   6.048   6.769  15.936  1.3907  0.6951  0.9010
14851TIP3   OH266043   2.672   5.775   5.262  0.0090 -0.5561  0.0223
14851TIP3    H166044   2.617   5.837   5.215 -0.4189 -1.7438 -1.0656
14851TIP3    H266045   2.731   5.739   5.195 -0.2904 -1.9085  0.4698
14852TIP3   OH266046   0.657   3.620  13.446  0.6568 -0.2917  0.2874
14852TIP3    H166047   0.646   3.563  13.522 -0.5014  1.3234  1.3560
14852TIP3    H266048   0.618   3.703  13.472  0.4272  0.3563 -2.0111
14853TIP3   OH266049   2.906   5.584   5.934 -0.2261 -0.1663  0.1539
14853TIP3    H166050   2.980   5.563   5.992 -0.5320 -0.2602  0.5089
14853TIP3    H266051   2.937   5.560   5.847  1.1971  2.3711 -0.0818
14854TIP3   OH266052   0.612   6.452  14.904  0.6036 -0.4601  0.0784
14854TIP3    H166053   0.599   6.415  14.817 -0.8428 -1.3312  0.6413
14854TIP3    H266054   0.526   6.445  14.946  1.7180 -1.7490  2.2159
14855TIP3   OH266055   5.371   3.032  14.988  0.2949  0.1560 -0.0834
14855TIP3    H166056   5.288   3.002  14.951 -0.3070  0.7047  0.7994
14855TIP3    H266057   5.429   3.043  14.913  0.4992 -3.0329 -0.4645
14856TIP3   OH266058   3.998   6.119  16.056  0.3076  0.5970 -0.5119
14856TIP3    H166059   4.040   6.047  16.010  1.8410  0.7211  0.6335
14856TIP3    H266060   3.926   6.146  16.000  1.6848  0.2793 -2.4812
14857TIP3   OH266061   5.205   1.313   1.269 -0.4273  0.2312  0.2146
14857TIP3    H166062   5.172   1.369   1.339 -2.0126  0.0291 -0.3395
14857TIP3    H266063   5.199   1.224   1.305  0.1951  0.2569  0.3763
14858TIP3   OH266064   2.958   6.043   3.844 -0.3897 -0.3820  0.1160
14858TIP3    H166065   2.892   6.112   3.842 -0.4804 -0.4300  1.1180
14858TIP3    H266066   3.041   6.089   3.832 -0.3402  0.0720  2.0206
14859TIP3   OH266067   5.478   2.494   5.711  0.3942  0.4993 -0.2811
14859TIP3    H166068   5.483   2.556   5.638 -1.0980  1.0564  0.0590
14859TIP3    H266069   5.549   2.520   5.769  0.7832  0.8667 -0.9113
14860TIP3   OH266070   5.591   0.227   5.680 -0.2664 -0.0957 -0.4326
14860TIP3    H166071   5.667   0.224   5.739 -0.5533  1.1765  0.0126
14860TIP3    H266072   5.604   0.307   5.629 -2.9273  1.8942  1.8663
14861TIP3   OH266073   0.176   2.791  11.611  1.0093  0.2011  0.2595
14861TIP3    H166074   0.175   2.722  11.678  1.0702 -0.3953 -0.3538
14861TIP3    H266075   0.157   2.746  11.529  1.3778  0.8612 -0.1981
14862TIP3   OH266076   1.538   0.990   6.608 -0.4070  0.0829  0.2273
14862TIP3    H166077   1.519   0.915   6.552 -0.7655 -0.7938  1.5067
14862TIP3    H266078   1.572   0.951   6.689  1.0884  1.3732  0.2367
14863TIP3   OH266079   4.184   4.628  11.396  0.4571  0.1269 -0.2790
14863TIP3    H166080   4.239   4.578  11.455  0.9843  1.1998  0.1581
14863TIP3    H266081   4.163   4.568  11.325 -0.2132 -1.1899  1.0083
14864TIP3   OH266082   0.973   1.565   2.815 -0.0010 -0.2317 -0.9874
14864TIP3    H166083   0.987   1.514   2.895  5.0902  0.6327 -1.1701
14864TIP3    H266084   0.948   1.652   2.846 -1.8097 -0.9100 -0.4892
14865TIP3   OH266085   4.026   1.211  16.849 -0.3284  0.1616  0.2893
14865TIP3    H166086   4.023   1.243  16.759 -1.3441  1.6223  0.8321
14865TIP3    H266087   4.117   1.220  16.875  0.2054 -1.3311 -0.9562
14866TIP3   OH266088   0.991   5.009   3.996  0.0915 -0.3477 -0.6311
14866TIP3    H166089   0.964   5.094   3.962 -0.9907  0.4264  2.0403
14866TIP3    H266090   1.084   5.020   4.018  0.4924 -0.5063 -2.2161
14867TIP3   OH266091   3.102   0.567   1.807  0.4703  0.1195 -0.1586
14867TIP3    H166092   3.194   0.563   1.780  0.7253 -0.2089  0.7287
14867TIP3    H266093   3.080   0.477   1.830  0.1838  0.3439  0.4580
14868TIP3   OH266094   5.008   5.482   1.820 -0.2163  0.1074  0.5897
14868TIP3    H166095   4.925   5.512   1.784 -0.2260  0.0472  0.5621
14868TIP3    H266096   5.017   5.530   1.903 -1.9679 -2.4717  2.3257
14869TIP3   OH266097   6.455   6.361  13.711 -0.2410  0.2907 -0.1610
14869TIP3    H166098   6.477   6.439  13.762 -0.3412  0.2130 -0.0011
14869TIP3    H266099   6.518   6.362  13.638 -0.7220  0.9316 -0.5788
14870TIP3   OH266100   5.471   3.328  15.902  0.4612  0.1968  0.8558
14870TIP3    H166101   5.477   3.248  15.850  0.5457  1.5926 -1.3411
14870TIP3    H266102   5.561   3.344  15.931  1.1328  1.3927 -1.7069
14871TIP3   OH266103   3.497   4.484  14.700 -0.2972  0.8418 -0.3269
14871TIP3    H166104   3.589   4.506  14.687  0.0762  0.0809  0.9446
14871TIP3    H266105   3.449   4.546  14.645  0.9462  1.6120 -0.5554
14872TIP3   OH266106   0.008   2.123   1.481 -0.1284 -0.1836 -1.0424
14872TIP3    H166107   0.066   2.050   1.505  0.5111  0.6479  0.0068
14872TIP3    H266108  -0.049   2.088   1.412 -0.6466 -2.0443  0.3025
14873TIP3   OH266109   3.578   5.889  11.403 -0.0162  0.3349 -0.9563
14873TIP3    H166110   3.593   5.877  11.497  0.9434  0.1269 -1.1249
14873TIP3    H266111   3.534   5.809  11.375  0.0943  0.2053 -0.7610
14874TIP3   OH266112   4.573   4.362   6.408 -0.5324 -0.1110  0.1145
14874TIP3    H166113   4.628   4.333   6.335  0.5645  0.9547  0.4916
14874TIP3    H266114   4.545   4.450   6.383 -1.4594 -0.3548  0.2762
14875TIP3   OH266115   4.500   6.562  16.778 -0.1304  0.2528  0.0719
14875TIP3    H166116   4.573   6.535  16.723 -0.5649  1.0071 -0.8832
14875TIP3    H266117   4.433   6.591  16.717 -1.5713 -1.2617  0.9191
14876TIP3   OH266118   1.779   2.387  14.227  0.1442  0.1669  0.5849
14876TIP3    H166119   1.804   2.332  14.301 -0.6886 -0.5870  0.3054
14876TIP3    H266120   1.723   2.454  14.266  0.9181  0.6587  0.8731
14877TIP3   OH266121   1.309   4.535  11.787  0.5990  0.8088  0.5874
14877TIP3    H166122   1.300   4.594  11.862  0.4428  0.7922  0.5798
14877TIP3    H266123   1.333   4.451  11.827 -1.1556  0.3700  0.7520
14878TIP3   OH266124   4.119   3.566  16.437 -0.3938  0.2057  0.1727
14878TIP3    H166125   4.089   3.599  16.352  0.2570 -0.6356 -0.3871
14878TIP3    H266126   4.166   3.641  16.476  0.4486  0.1900 -0.7847
14879TIP3   OH266127   0.148   1.292  15.263 -0.2583 -0.3886  0.2720
14879TIP3    H166128   0.183   1.333  15.184  2.0007  1.5915  2.2327
14879TIP3    H266129   0.099   1.361  15.307 -1.5438 -1.4912  0.6206
14880TIP3   OH266130   6.095   4.266  12.774 -0.5388  0.0563 -0.0759
14880TIP3    H166131   6.000   4.252  12.773 -0.5618  0.2310 -0.7141
14880TIP3    H266132   6.118   4.280  12.682  0.2602 -0.9467 -0.0385
14881TIP3   OH266133   0.956   1.548  16.517 -0.5638 -0.6390  0.3847
14881TIP3    H166134   0.973   1.584  16.604 -2.7675  0.1703  0.5016
14881TIP3    H266135   0.949   1.454  16.531  0.8412 -0.6976  0.7778
14882TIP3   OH266136   4.309   0.097   4.949 -0.1878  0.2263  0.3308
14882TIP3    H166137   4.301   0.189   4.924 -0.8207  0.2188  0.5159
14882TIP3    H266138   4.389   0.068   4.905  1.1817  1.4149  1.9230
14883TIP3   OH266139   6.283   5.012   1.143 -0.3872 -0.0212 -0.2720
14883TIP3    H166140   6.213   5.034   1.204 -1.3765 -1.3982 -0.8878
14883TIP3    H266141   6.316   4.927   1.174 -0.6091 -0.5309 -1.4000
14884TIP3   OH266142   4.060   3.078   3.810  0.2995  0.8304 -0.4714
14884TIP3    H166143   3.988   3.110   3.756 -0.1900 -0.2893 -0.4927
14884TIP3    H266144   4.023   3.068   3.897  0.5650  0.7190 -0.3706
14885TIP3   OH266145   3.945   3.413  14.599  0.2997 -0.2447 -0.1714
14885TIP3    H166146   4.033   3.384  14.621  0.4462  0.1095 -0.2866
14885TIP3    H266147   3.948   3.431  14.505 -0.2729 -1.5676 -0.4543
14886TIP3   OH266148   1.177   4.105   2.163 -0.3776 -0.2320 -0.2118
14886TIP3    H166149   1.193   4.179   2.104  0.0659 -0.1723 -0.0172
14886TIP3    H266150   1.199   4.028   2.110 -1.0108 -0.2340 -0.4721
14887TIP3   OH266151   5.565   6.139  14.402  0.4078  0.1384  0.5757
14887TIP3    H166152   5.526   6.052  14.402  0.5977  0.0504  0.3671
14887TIP3    H266153   5.499   6.195  14.442  0.0671 -0.0072  0.2218
14888TIP3   OH266154   1.370   3.958   3.465 -0.6164 -0.3175  0.0825
14888TIP3    H166155   1.335   3.968   3.554 -0.4575 -1.5818  0.2929
14888TIP3    H266156   1.298   3.919   3.416 -0.1738 -1.0623  0.0298
14889TIP3   OH266157   5.027   5.116  17.083  0.0799  0.5236  0.0456
14889TIP3    H166158   5.075   5.051  17.134  2.0790  0.0248 -2.3474
14889TIP3    H266159   5.001   5.069  17.004  1.0324  2.4332 -1.4518
14890TIP3   OH266160   0.058   1.179   1.760  0.4816 -0.1589  0.3610
14890TIP3    H166161   0.024   1.266   1.781 -1.0567 -0.6621  0.0420
14890TIP3    H266162  -0.005   1.143   1.697  1.8600 -0.9579 -0.5795
14891TIP3   OH266163   0.467   2.625  16.076 -0.2449  0.2929 -0.1520
14891TIP3    H166164   0.497   2.554  16.132 -0.1843  0.7230  0.3676
14891TIP3    H266165   0.535   2.692  16.083 -1.0577  1.0457  0.6030
14892TIP3   OH266166   2.657   3.814   2.428  0.2682 -0.2223 -0.0866
14892TIP3    H166167   2.751   3.802   2.441  0.4496  0.7309 -0.5220
14892TIP3    H266168   2.645   3.808   2.333 -0.1019 -0.2334 -0.0406
14893TIP3   OH266169   6.597   0.305   3.166 -0.2028  0.8506 -0.0038
14893TIP3    H166170   6.691   0.300   3.183 -0.2088 -1.0904 -0.3735
14893TIP3    H266171   6.559   0.336   3.248  0.3011 -3.0195  1.7957
14894TIP3   OH266172   1.891   2.952   1.913 -0.2351  0.3747  0.2437
14894TIP3    H166173   1.904   2.961   1.819 -0.8088  1.9364  0.3087
14894TIP3    H266174   1.971   2.987   1.952 -0.4566  0.7501  0.3641
14895TIP3   OH266175   4.945   2.965  11.052 -0.1301  0.1921  0.3074
14895TIP3    H166176   4.964   3.003  11.137 -0.5876 -0.2969  0.6350
14895TIP3    H266177   5.023   2.915  11.029  1.4917  3.2983 -1.2768
14896TIP3   OH266178   5.681   2.437   0.377 -0.4822 -0.0136  0.0332
14896TIP3    H166179   5.609   2.469   0.431 -1.1321 -1.4999  0.0481
14896TIP3    H266180   5.651   2.449   0.287 -1.2862 -1.8321  0.0480
14897TIP3   OH266181   0.374   0.458  16.912 -0.0644 -0.2090  0.3580
14897TIP3    H166182   0.414   0.374  16.934  0.7473 -0.1182 -0.6978
14897TIP3    H266183   0.439   0.502  16.857 -1.0843  0.4885 -0.3214
14898TIP3   OH266184   1.966   5.948  11.962  0.3331  0.8862 -0.4584
14898TIP3    H166185   1.970   6.006  12.039  0.3376  1.3381 -0.7999
14898TIP3    H266186   1.879   5.960  11.926  0.2918  0.5888 -0.4646
14899TIP3   OH266187   2.337   5.082   1.845  0.3150 -0.8670  0.6372
14899TIP3    H166188   2.361   5.031   1.767  0.9373 -0.6320  0.6692
14899TIP3    H266189   2.333   5.018   1.916  3.4624 -0.5723  1.1803
14900TIP3   OH266190   1.126   0.337   3.186 -0.1421 -0.4963  0.6477
14900TIP3    H166191   1.214   0.337   3.223 -0.2762  0.7410  1.0112
14900TIP3    H266192   1.073   0.288   3.250 -0.0788  0.3518  1.3617
14901TIP3   OH266193   5.426   4.356  15.805  0.1523  0.1513  0.6141
14901TIP3    H166194   5.437   4.312  15.721  0.3722  0.4457  0.4844
14901TIP3    H266195   5.386   4.291  15.863 -3.2381  0.9819 -0.6746
14902TIP3   OH266196   6.111   3.427  12.943  0.1851  0.3786  0.0652
14902TIP3    H166197   6.108   3.343  12.897 -1.6344  0.2819  0.3182
14902TIP3    H266198   6.098   3.493  12.875  0.0874  0.3693  0.0743
14903TIP3   OH266199   2.065   1.178  14.675  0.2214 -0.1118  0.0488
14903TIP3    H166200   2.060   1.102  14.616 -3.1671  2.6190 -3.4694
14903TIP3    H266201   1.982   1.177  14.723  0.2960  1.1662  0.2253
14904TIP3   OH266202   6.101   2.047   4.808  0.5213 -0.3867 -0.6090
14904TIP3    H166203   6.123   2.027   4.899  1.6566 -1.0920 -1.0304
14904TIP3    H266204   6.173   2.103   4.778 -0.8892  1.5572 -0.4726
14905TIP3   OH266205   6.779   3.649   4.949 -0.1744  0.1733 -0.3955
14905TIP3    H166206   6.744   3.620   5.034 -0.4990 -0.6646 -0.8158
14905TIP3    H266207   6.785   3.744   4.958 -1.9414  0.2778 -0.0792
14906TIP3   OH266208   4.107   0.118  15.269  0.2755  0.5321  0.2256
14906TIP3    H166209   4.129   0.192  15.212 -0.7421  1.6740  1.2878
14906TIP3    H266210   4.020   0.091  15.240  0.7568 -0.4442 -0.3429
14907TIP3   OH266211   4.788   5.379  15.957  0.4644 -0.8114 -0.1953
14907TIP3    H166212   4.699   5.378  15.923  1.0751 -0.9932 -1.8561
14907TIP3    H266213   4.811   5.471  15.962  0.9446 -0.8251 -1.8828
14908TIP3   OH266214   5.797   3.741   0.407 -0.0722  0.3964  0.6480
14908TIP3    H166215   5.807   3.716   0.315 -4.6559 -1.4350  0.5012
14908TIP3    H266216   5.868   3.696   0.452  0.2884 -1.3810 -1.5894
14909TIP3   OH266217   3.845   1.170  11.513 -0.1195 -0.2969 -0.3898
14909TIP3    H166218   3.920   1.176  11.454  0.4497  1.1321  0.4642
14909TIP3    H266219   3.883   1.156  11.599 -0.9216 -1.6200 -0.2391
14910TIP3   OH266220   2.474   6.768  14.541  0.3938 -0.1696  0.3132
14910TIP3    H166221   2.502   6.689  14.495  0.3967 -0.6391  1.1174
14910TIP3    H266222   2.475   6.744  14.633 -2.1209 -0.0404  0.4008
14911TIP3   OH266223   2.745   2.070   0.819  0.2646 -0.1826 -0.5427
14911TIP3    H166224   2.676   2.092   0.757  0.4473 -0.7892 -0.9696
14911TIP3    H266225   2.708   2.090   0.905 -0.1396  0.2756 -0.8231
14912TIP3   OH266226   5.552   1.843  11.382 -0.2596  0.2514  0.8063
14912TIP3    H166227   5.461   1.873  11.381 -0.5746 -0.7018  0.3327
14912TIP3    H266228   5.571   1.821  11.291  0.7422  1.3044  0.7475
14913TIP3   OH266229   5.263   3.410   5.112 -0.3548  0.0879 -0.1163
14913TIP3    H166230   5.213   3.474   5.164  0.5023 -0.4111  1.3584
14913TIP3    H266231   5.289   3.458   5.034 -2.6529  0.5285 -0.6504
14914TIP3   OH266232   2.843   6.387  11.556 -0.9142 -0.0233 -0.1442
14914TIP3    H166233   2.907   6.435  11.608 -2.1815  0.6497  0.8319
14914TIP3    H266234   2.760   6.400  11.602 -1.6689 -1.2843 -1.1177
14915TIP3   OH266235   3.142   3.555  15.523 -0.1707 -0.7423  0.6792
14915TIP3    H166236   3.115   3.626  15.464  1.0632 -1.5795 -0.9407
14915TIP3    H266237   3.194   3.599  15.591 -1.4554  0.2165  1.0553
14916TIP3   OH266238   5.076   5.574  11.920  0.2275 -0.1649 -0.1078
14916TIP3    H166239   5.128   5.618  11.854 -1.0981 -0.0496 -1.0841
14916TIP3    H266240   5.097   5.481  11.909 -0.4845 -0.2074 -1.1282
14917TIP3   OH266241   0.793   3.778  12.268 -0.8732 -0.5512 -0.1070
14917TIP3    H166242   0.798   3.860  12.218 -2.3409 -0.4476 -0.1162
14917TIP3    H266243   0.709   3.783  12.314 -1.0970 -2.1597 -0.3000
14918TIP3   OH266244   5.384   4.126   4.540 -0.0258  0.0762 -0.8105
14918TIP3    H166245   5.474   4.127   4.575  0.0643 -1.9396 -0.9029
14918TIP3    H266246   5.388   4.179   4.461  0.3989  2.4451  0.7519
14919TIP3   OH266247   2.941   4.919   4.599  0.0491 -0.1064 -0.1827
14919TIP3    H166248   2.925   4.919   4.505  0.0446 -1.3825 -0.1947
14919TIP3    H266249   2.874   4.976   4.636 -0.9932 -0.9394 -0.7915
14920TIP3   OH266250   4.189   5.438   1.576  0.1322  0.0090  0.0252
14920TIP3    H166251   4.250   5.509   1.593  1.3852 -0.9687 -0.2865
14920TIP3    H266252   4.162   5.408   1.663  1.8447 -1.0172  0.2253
14921TIP3   OH266253   1.022   2.568  14.125 -0.2692 -0.2433  0.6572
14921TIP3    H166254   1.089   2.572  14.056 -1.1252 -0.9329 -0.2204
14921TIP3    H266255   0.971   2.648  14.114 -0.9484 -0.7686 -0.0776
14922TIP3   OH266256   5.910   5.964   5.302  0.1287  0.2147 -0.0150
14922TIP3    H166257   5.933   5.878   5.337  2.2363  0.5108 -0.5655
14922TIP3    H266258   5.889   5.947   5.210  2.3935  0.5099 -0.6195
14923TIP3   OH266259   2.031   5.155   2.697  0.2469 -0.0833 -0.0133
14923TIP3    H166260   2.054   5.124   2.784 -0.4203  0.8106  0.4843
14923TIP3    H266261   2.102   5.123   2.641  0.2471 -1.3767  0.7061
14924TIP3   OH266262   1.291   4.869  12.681  0.2622  0.2291 -0.8068
14924TIP3    H166263   1.289   4.836  12.771 -0.6402  2.9640  0.2587
14924TIP3    H266264   1.226   4.816  12.635 -2.4688  1.5708  1.2831
14925TIP3   OH266265   6.271   6.538  13.243  0.4369 -0.2357 -0.2579
14925TIP3    H166266   6.260   6.625  13.282 -3.4533 -0.8586  0.1937
14925TIP3    H266267   6.338   6.550  13.176 -0.0800  3.1250 -0.2512
14926TIP3   OH266268   2.792   6.516   2.616 -0.1572 -0.2221  0.9888
14926TIP3    H166269   2.726   6.478   2.558  1.4571 -0.1335 -0.9312
14926TIP3    H266270   2.784   6.610   2.603  0.0279 -0.1888  1.1153
14927TIP3   OH266271   0.933   5.250   3.861 -0.1125  0.4054 -0.4997
14927TIP3    H166272   0.873   5.322   3.843 -0.6489  0.1128  0.0994
14927TIP3    H266273   0.975   5.233   3.777 -0.9998  0.4977 -0.9700
14928TIP3   OH266274   1.879   5.636  16.602  0.1720  0.4043  0.0000
14928TIP3    H166275   1.910   5.625  16.692  0.1335  0.6292  0.0394
14928TIP3    H266276   1.944   5.591  16.548  0.2759  0.3997  0.1296
14929TIP3   OH266277   3.612   6.730   1.382 -0.5135 -0.0979 -0.4789
14929TIP3    H166278   3.613   6.725   1.286  1.0938 -0.5020 -0.4636
14929TIP3    H266279   3.625   6.639   1.411  0.7232  0.2493  0.0905
14930TIP3   OH266280   2.205   6.496   5.899  0.2381 -0.1769 -0.0336
14930TIP3    H166281   2.231   6.507   5.807  0.9850  0.2439  0.2178
14930TIP3    H266282   2.272   6.544   5.948  0.4715 -1.3160  0.7920
14931TIP3   OH266283   0.026   2.708  13.655  0.8514 -0.2244 -0.5223
14931TIP3    H166284   0.038   2.803  13.658  1.4083 -0.3052  0.2043
14931TIP3    H266285   0.115   2.673  13.651  0.7348 -0.7492  0.9190
14932TIP3   OH266286   0.092   1.308   0.074 -0.0045  0.5537  0.5830
14932TIP3    H166287   0.043   1.350   0.145  0.3873 -0.5744  1.5358
14932TIP3    H266288   0.135   1.380   0.029 -2.0907  1.5051  0.0688
14933TIP3   OH266289   2.199   2.274   0.740 -0.1427  0.2717 -0.4316
14933TIP3    H166290   2.191   2.272   0.644 -0.1161 -1.3482 -0.4196
14933TIP3    H266291   2.238   2.189   0.762 -1.9038 -0.1509  1.1778
14934TIP3   OH266292   6.344   5.131  12.834 -0.2162 -0.1218  0.0077
14934TIP3    H166293   6.427   5.178  12.842 -0.1272  0.0734 -1.8536
14934TIP3    H266294   6.355   5.075  12.758 -1.1600 -1.4659  0.8352
14935TIP3   OH266295   3.153   5.068   0.637 -0.0958  0.3087  0.1535
14935TIP3    H166296   3.097   5.033   0.706 -0.3897 -1.1251 -0.7977
14935TIP3    H266297   3.138   5.010   0.562  0.6307  1.5149 -0.9468
14936TIP3   OH266298   0.121   6.057   5.251 -0.3626 -0.1892 -0.5706
14936TIP3    H166299   0.115   6.026   5.161  1.6987 -1.8512 -0.1618
14936TIP3    H266300   0.076   5.990   5.303  0.7264 -0.5762 -0.1038
14937TIP3   OH266301   0.527   5.662  16.848 -0.1850  0.2490  0.4540
14937TIP3    H166302   0.526   5.571  16.820 -3.6610  0.6965 -1.0828
14937TIP3    H266303   0.491   5.660  16.937 -1.0343  0.2193  0.1084
14938TIP3   OH266304   3.436   4.749   5.042  0.7572 -0.0294  0.1313
14938TIP3    H166305   3.385   4.736   4.962 -0.5600 -0.5309  1.0292
14938TIP3    H266306   3.523   4.775   5.012  0.2474 -0.1365 -1.4537
14939TIP3   OH266307   5.927   5.043   2.118  0.0543  0.2018  0.0321
14939TIP3    H166308   6.008   4.994   2.134  0.0409 -0.3029 -1.3890
14939TIP3    H266309   5.946   5.097   2.041 -2.0359 -2.4967 -2.4879
14940TIP3   OH266310   6.292   1.479   5.335  0.0578  0.2773 -0.5221
14940TIP3    H166311   6.238   1.508   5.408 -0.2889  3.0916 -1.8184
14940TIP3    H266312   6.242   1.503   5.257  0.9654 -1.5724 -1.7231
14941TIP3   OH266313   6.764   5.551   2.744 -0.1759  0.2640 -0.8808
14941TIP3    H166314   6.741   5.592   2.827  0.1615  1.7601 -1.5242
14941TIP3    H266315   6.735   5.613   2.677 -1.5189 -1.4494 -1.9298
14942TIP3   OH266316   5.407   5.353   4.358  0.1424  0.4146  0.6039
14942TIP3    H166317   5.407   5.383   4.449  0.4225 -0.4445  0.9017
14942TIP3    H266318   5.453   5.269   4.362  0.2674  0.4382 -0.3548
14943TIP3   OH266319   2.281   0.306  14.343 -0.0341  0.0098  0.0973
14943TIP3    H166320   2.346   0.263  14.287 -0.1321 -1.9217  1.4022
14943TIP3    H266321   2.329   0.327  14.423 -0.7860 -0.6522  0.7323
14944TIP3   OH266322   3.287   6.567   0.523 -0.9033 -0.0857  0.4926
14944TIP3    H166323   3.201   6.571   0.566 -1.2846  0.4148 -0.3007
14944TIP3    H266324   3.276   6.620   0.444 -1.0405 -3.2917 -1.7118
14945TIP3   OH266325   4.964   3.556   4.914 -0.1886  0.4338  0.4886
14945TIP3    H166326   4.870   3.541   4.910 -0.4789  2.5386 -1.3719
14945TIP3    H266327   4.973   3.648   4.935  1.3809  1.2214 -3.2159
14946TIP3   OH266328   5.283   2.794   6.367 -0.6257 -0.1490 -0.7111
14946TIP3    H166329   5.217   2.789   6.298 -1.6048  0.4793  0.1551
14946TIP3    H266330   5.324   2.708   6.368 -0.7256 -0.2098 -1.9583
14947TIP3   OH266331   6.055   2.706  16.820  0.1874  0.8315 -0.7322
14947TIP3    H166332   6.146   2.677  16.823 -0.3150 -0.7238  1.4791
14947TIP3    H266333   6.051   2.777  16.884 -0.4281 -0.0605  0.2413
14948TIP3   OH266334   3.335   0.900  14.719  0.0994  0.0428  0.0155
14948TIP3    H166335   3.287   0.939  14.793 -1.5721  0.0867 -1.0622
14948TIP3    H266336   3.412   0.956  14.708 -0.7784  1.3529  0.3381
14949TIP3   OH266337   2.662   0.807   2.078  0.1533 -0.3269 -0.4256
14949TIP3    H166338   2.690   0.768   1.995 -0.8611 -1.5415 -0.2054
14949TIP3    H266339   2.609   0.882   2.052 -1.5366 -1.6517 -0.9316
14950TIP3   OH266340   0.283   2.754  17.035  0.1738 -0.4723  0.7807
14950TIP3    H166341   0.198   2.721  17.004 -1.0094  0.3603  3.0144
14950TIP3    H266342   0.301   2.704  17.114  0.5611  1.0480  1.6858
14951TIP3   OH266343   3.195   4.936  12.897  0.2301  0.1958 -0.0833
14951TIP3    H166344   3.190   5.031  12.896 -1.1889  0.1258 -0.5940
14951TIP3    H266345   3.144   4.908  12.821  0.3257 -0.9717  0.2673
14952TIP3   OH266346   3.630   5.592  10.626  0.1002  0.3265  0.6984
14952TIP3    H166347   3.570   5.531  10.668  0.3248  0.4003  1.1387
14952TIP3    H266348   3.678   5.633  10.699  1.6280 -0.7107  0.3053
14953TIP3   OH266349   6.640   4.635  11.569 -0.2660 -0.1910  0.6462
14953TIP3    H166350   6.640   4.625  11.474  0.6669 -0.2998  0.6533
14953TIP3    H266351   6.548   4.626  11.594 -0.5996  0.5489 -0.3134
14954TIP3   OH266352   5.424   3.849  13.591 -0.4164  0.4296 -0.0642
14954TIP3    H166353   5.442   3.866  13.683 -1.1542  1.1218 -0.0475
14954TIP3    H266354   5.508   3.865  13.547 -0.1239  0.3231  0.4569
14955TIP3   OH266355   4.313   0.629  12.534 -0.4742  0.4372 -0.0701
14955TIP3    H166356   4.350   0.594  12.615  0.4698  0.9105 -0.2856
14955TIP3    H266357   4.310   0.723  12.548  1.0719  0.6631 -1.1286
14956TIP3   OH266358   3.094   6.120   5.845  0.3900 -0.2440  0.4760
14956TIP3    H166359   2.999   6.121   5.858  0.2322 -0.2172 -0.6397
14956TIP3    H266360   3.108   6.168   5.764  1.2935 -0.8956  0.2380
14957TIP3   OH266361   3.663   6.592   0.500 -0.6659 -0.6056 -0.3480
14957TIP3    H166362   3.629   6.512   0.460  1.1380 -0.3517 -2.4845
14957TIP3    H266363   3.714   6.562   0.576 -0.6938 -1.4158 -0.6516
14958TIP3   OH266364   1.863   0.526   3.461 -0.8022  0.1385  0.0655
14958TIP3    H166365   1.815   0.565   3.387 -0.1471 -0.0696 -0.4740
14958TIP3    H266366   1.950   0.508   3.426 -0.5377 -0.1140  0.8487
14959TIP3   OH266367   0.496   1.967   2.707  0.5613 -0.3011 -0.4278
14959TIP3    H166368   0.505   2.044   2.650  1.9766 -0.9077 -1.0545
14959TIP3    H266369   0.586   1.939   2.722  0.1329 -0.8354  1.1870
14960TIP3   OH266370   0.361   4.276  11.873 -0.1564  0.6410 -0.2198
14960TIP3    H166371   0.284   4.219  11.875 -0.7467  1.3972 -0.7274
14960TIP3    H266372   0.375   4.301  11.964 -1.0989  1.2576 -0.2334
14961TIP3   OH266373   4.446   3.319  14.412 -0.2241 -0.3241  0.6131
14961TIP3    H166374   4.526   3.269  14.427 -0.1162 -0.8586 -1.5746
14961TIP3    H266375   4.475   3.409  14.403  0.2441 -0.6267 -1.0134
14962TIP3   OH266376   1.024   6.083  13.391  0.9269  0.4224 -0.1115
14962TIP3    H166377   1.037   6.070  13.485  1.6706  0.3693 -0.2192
14962TIP3    H266378   0.985   6.001  13.360  1.2843  0.2015  0.0307
14963TIP3   OH266379   5.721   6.100   4.678 -0.5655 -0.0933  0.2461
14963TIP3    H166380   5.654   6.167   4.661 -1.4505 -0.8425  0.7573
14963TIP3    H266381   5.748   6.116   4.768  0.9240  1.0505 -0.3742
14964TIP3   OH266382   5.251   5.252  12.501 -0.2884  0.9275 -0.1082
14964TIP3    H166383   5.175   5.273  12.446  0.0729  1.0199 -0.5747
14964TIP3    H266384   5.227   5.285  12.588 -1.6874 -1.0339  0.2767
14965TIP3   OH266385   4.494   6.012  16.471 -0.8171  0.0218 -0.7073
14965TIP3    H166386   4.460   6.089  16.516  0.5900  1.0847 -1.4150
14965TIP3    H266387   4.481   5.940  16.532 -0.0508  1.2250  0.9127
14966TIP3   OH266388   2.374   5.248  15.745  0.1441  0.1394 -0.0788
14966TIP3    H166389   2.411   5.270  15.830  0.4760 -1.3272  0.1694
14966TIP3    H266390   2.392   5.324  15.691 -0.3442  1.2073  1.2401
14967TIP3   OH266391   0.479   1.304  16.198  0.3315 -0.2868  0.6459
14967TIP3    H166392   0.542   1.376  16.198 -1.5255  1.3823  0.8307
14967TIP3    H266393   0.504   1.249  16.272  1.5436  0.3678  0.7308
14968TIP3   OH266394   5.968   5.689  13.760 -0.1827  0.0604 -0.5903
14968TIP3    H166395   6.025   5.613  13.773  0.1601  0.3802 -0.1973
14968TIP3    H266396   5.956   5.726  13.848  0.9347  1.3670 -0.9599
14969TIP3   OH266397   2.879   3.549   1.099 -0.4553 -0.1061  0.4102
14969TIP3    H166398   2.796   3.522   1.139 -0.0316 -0.6041  0.9702
14969TIP3    H266399   2.946   3.518   1.161  0.1895 -0.4711 -0.4634
14970TIP3   OH266400   2.590   4.204  11.911  0.3822 -0.3881  0.0640
14970TIP3    H166401   2.624   4.166  11.992  0.3179 -2.2288 -0.7325
14970TIP3    H266402   2.508   4.246  11.936  0.9765  0.1130  1.1671
14971TIP3   OH266403   3.712   4.492   4.999 -0.1005  0.5798  0.3244
14971TIP3    H166404   3.671   4.447   4.925  0.8143 -1.3952  0.9874
14971TIP3    H266405   3.799   4.516   4.968  0.8159 -1.5078  1.1659
14972TIP3   OH266406   5.337   6.017  14.964 -0.1500 -0.5219  0.1027
14972TIP3    H166407   5.426   5.986  14.948  0.1275  0.5473 -0.4622
14972TIP3    H266408   5.310   6.057  14.882 -1.2837 -1.1303  0.1627
14973TIP3   OH266409   4.745   1.098   4.560 -0.1334  0.0274  0.2111
14973TIP3    H166410   4.741   1.004   4.579 -0.2844  0.3156  1.6286
14973TIP3    H266411   4.833   1.124   4.588 -0.3259  0.4431  0.4180
14974TIP3   OH266412   3.180   6.682   6.832  0.0693 -0.1004  0.1221
14974TIP3    H166413   3.179   6.587   6.841 -1.8780 -0.2484 -1.2425
14974TIP3    H266414   3.256   6.701   6.777 -1.5472 -1.2012 -2.5667
14975TIP3   OH266415   2.307   0.744   2.277  0.6256 -0.4729 -0.3461
14975TIP3    H166416   2.233   0.772   2.330  1.1951  1.2175 -0.4207
14975TIP3    H266417   2.329   0.820   2.223  1.7624 -1.2835 -1.0645
14976TIP3   OH266418   3.122   4.226  11.001 -0.1528  0.2265  0.0513
14976TIP3    H166419   3.096   4.295  11.061 -0.7551 -0.4765  0.6111
14976TIP3    H266420   3.203   4.190  11.038  0.6240  1.1851 -0.6966
14977TIP3   OH266421   3.972   6.455   4.014  0.3518 -0.1254  0.9172
14977TIP3    H166422   3.980   6.385   4.078 -0.2639 -0.0650  1.0637
14977TIP3    H266423   3.937   6.413   3.936  1.0019 -0.1795  0.6589
14978TIP3   OH266424   3.798   4.165  16.085  0.1081  0.4916 -0.6979
14978TIP3    H166425   3.811   4.241  16.142 -2.5184 -1.5629  2.8707
14978TIP3    H266426   3.725   4.190  16.028  0.7211  1.4549 -1.0629
14979TIP3   OH266427   1.195   3.760   2.260 -0.6756  0.1537  0.0053
14979TIP3    H166428   1.252   3.686   2.278  1.3690  1.3302 -1.4573
14979TIP3    H266429   1.231   3.800   2.181 -3.0666  1.3962 -0.5120
14980TIP3   OH266430   2.775   2.131   4.293  0.3950  0.5281  0.4952
14980TIP3    H166431   2.772   2.187   4.371 -1.9057 -3.5734  3.5475
14980TIP3    H266432   2.839   2.063   4.316  0.5667 -0.0813 -1.7227
14981TIP3   OH266433   6.136   2.899   0.728  0.5756 -0.2702  0.0189
14981TIP3    H166434   6.114   2.967   0.792  0.4032 -0.4240  0.1260
14981TIP3    H266435   6.220   2.926   0.692  1.0792 -0.6105  0.9108
14982TIP3   OH266436   2.398   5.151  16.233  0.2328 -0.1791  0.1073
14982TIP3    H166437   2.325   5.159  16.294 -0.5970 -1.4250 -0.7098
14982TIP3    H266438   2.454   5.084  16.272  0.8603  0.6370  0.6331
14983TIP3   OH266439   5.790   3.482  16.469 -0.2491  0.1192  0.5714
14983TIP3    H166440   5.719   3.423  16.442  0.5652  0.0127 -1.4220
14983TIP3    H266441   5.758   3.523  16.549 -2.6038  0.0793 -0.3036
14984TIP3   OH266442   3.411   3.693   5.689  0.2815 -0.2278 -0.4121
14984TIP3    H166443   3.434   3.739   5.770  3.1360 -0.0119 -1.2749
14984TIP3    H266444   3.403   3.601   5.715 -1.8047  0.2297  0.6438
14985TIP3   OH266445   2.645   5.685   2.606 -0.6420  0.2995  0.2926
14985TIP3    H166446   2.655   5.706   2.699 -0.2425  1.2871  0.0252
14985TIP3    H266447   2.591   5.755   2.571  0.0587  0.4813 -0.4386
14986TIP3   OH266448   0.933   1.100   6.334 -0.4781 -0.1280  0.9261
14986TIP3    H166449   1.025   1.090   6.356 -0.3311 -1.7270 -0.3306
14986TIP3    H266450   0.902   1.010   6.318 -2.4469  0.2975  2.1116
14987TIP3   OH266451   1.268   1.301   1.448  0.6575 -0.9928  0.1073
14987TIP3    H166452   1.337   1.354   1.488  1.4250 -1.4316 -0.5883
14987TIP3    H266453   1.208   1.281   1.519  0.1012  1.1868  0.2817
14988TIP3   OH266454   6.068   1.103  13.436 -0.3808  0.3378  1.0423
14988TIP3    H166455   6.075   1.162  13.361  0.7350 -0.1309  0.7601
14988TIP3    H266456   6.146   1.121  13.489 -0.0451 -0.8269  0.9715
14989TIP3   OH266457   6.515   2.781   5.610 -0.7408 -0.1443  0.2224
14989TIP3    H166458   6.558   2.698   5.590 -0.1366  0.8212 -2.7146
14989TIP3    H266459   6.474   2.807   5.528  0.8739  3.5022  0.4796
14990TIP3   OH266460   3.452   2.513  15.678  0.5932  0.6420 -0.1571
14990TIP3    H166461   3.390   2.584  15.664  0.0270  0.2984  0.5301
14990TIP3    H266462   3.411   2.437  15.637 -0.0471  0.1326  1.3890
14991TIP3   OH266463   0.520   5.709   2.767 -0.0826 -0.0706  1.0973
14991TIP3    H166464   0.500   5.643   2.701 -0.9904 -0.2203  1.5156
14991TIP3    H266465   0.593   5.673   2.817 -0.6938 -0.8400  1.4370
14992TIP3   OH266466   6.015   3.683  13.895  0.1109  0.0930 -0.2934
14992TIP3    H166467   5.999   3.748  13.963  1.0503 -0.7143  0.7139
14992TIP3    H266468   6.080   3.724  13.838  2.1033 -0.6707  1.3828
14993TIP3   OH266469   2.418   2.197  15.895  0.4727  0.2173 -0.2731
14993TIP3    H166470   2.429   2.132  15.826  0.9994 -0.7046  0.6721
14993TIP3    H266471   2.334   2.174  15.936  0.3041  0.5856 -0.4042
14994TIP3   OH266472   3.672   1.932  13.242  0.2017 -0.0118 -0.5528
14994TIP3    H166473   3.710   1.876  13.309  1.2510  1.1921 -0.1093
14994TIP3    H266474   3.622   1.997  13.291 -0.1226  0.0732 -0.9984
14995TIP3   OH266475   5.832   1.734  11.433  0.2527  0.1974  0.1020
14995TIP3    H166476   5.834   1.816  11.482 -0.4501 -0.1131  0.6735
14995TIP3    H266477   5.768   1.749  11.364 -3.1098 -1.2083  2.7346
14996TIP3   OH266478   2.370   2.051  15.095 -0.5156 -0.4247 -0.1525
14996TIP3    H166479   2.342   1.978  15.149 -0.5060  0.5079  1.1333
14996TIP3    H266480   2.290   2.081  15.051 -0.7065 -0.5768  0.0937
14997TIP3   OH266481   0.061   0.548   4.688 -0.3058  0.1934  0.3055
14997TIP3    H166482   0.024   0.610   4.625 -1.0867  0.4105  0.9566
14997TIP3    H266483   0.124   0.599   4.739 -0.5494  0.3207  0.4808
14998TIP3   OH266484   0.756   4.711   2.489 -0.9525  0.2680  0.3749
14998TIP3    H166485   0.744   4.775   2.559  0.0057 -0.8003  1.5428
14998TIP3    H266486   0.839   4.735   2.448 -0.5885 -0.2495  0.8196
14999TIP3   OH266487   2.820   6.565   0.144 -0.0158 -0.7119 -0.0548
14999TIP3    H166488   2.776   6.574   0.229  1.3497  0.6557  0.5296
14999TIP3    H266489   2.896   6.510   0.162  1.2193  0.9655 -0.0098
15000TIP3   OH266490   3.117   2.437   6.018 -0.1724 -0.1661  0.1282
15000TIP3    H166491   3.211   2.452   6.019 -0.0267 -1.0869  2.0901
15000TIP3    H266492   3.106   2.352   6.061 -1.8252 -0.4787 -0.8746
15001TIP3   OH266493   3.820   0.302   3.563 -0.1234 -0.0998  0.0864
15001TIP3    H166494   3.786   0.311   3.652  0.6226  1.2598  0.2407
15001TIP3    H266495   3.766   0.362   3.511  1.3560  1.2969  0.1512
15002TIP3   OH266496   6.456   3.323   3.121 -0.3702 -0.1275 -0.4946
15002TIP3    H166497   6.437   3.392   3.184 -1.2987 -0.0357 -0.8655
15002TIP3    H266498   6.372   3.277   3.110 -0.4228  0.3637 -2.2828
15003TIP3   OH266499   0.080   0.616  12.830 -0.8285  0.2598 -0.4158
15003TIP3    H166500   0.004   0.563  12.850 -2.0104  2.2529  0.5586
15003TIP3    H266501   0.044   0.700  12.800  0.9478  1.2839  0.2053
15004TIP3   OH266502   1.405   3.758  11.616  0.2876  0.1388 -0.1656
15004TIP3    H166503   1.444   3.809  11.546 -0.3013  0.3090 -0.3743
15004TIP3    H266504   1.479   3.718  11.662  0.7656  1.4189  0.1865
15005TIP3   OH266505   0.630   0.355  12.169 -0.2475  0.4900 -0.3640
15005TIP3    H166506   0.675   0.322  12.246 -0.0547  0.2934 -0.5582
15005TIP3    H266507   0.567   0.287  12.146  0.8226 -0.1777 -1.3372
15006TIP3   OH266508   2.718   0.081  12.621  0.0044  0.0323  0.2812
15006TIP3    H166509   2.716   0.129  12.704  1.1733 -2.0783  1.5885
15006TIP3    H266510   2.807   0.094  12.588 -0.6326  1.3494 -0.9631
15007TIP3   OH266511   4.492   0.419  15.524 -0.7099  0.1945  0.2602
15007TIP3    H166512   4.549   0.360  15.475 -1.1994 -0.0841  0.0231
15007TIP3    H266513   4.550   0.461  15.587 -0.3167 -0.3742  0.2813
15008TIP3   OH266514   5.408   6.007   4.322 -0.0962  0.0274 -0.5475
15008TIP3    H166515   5.364   5.960   4.252 -0.0828 -0.4773 -0.2149
15008TIP3    H266516   5.345   6.074   4.349 -0.2256  0.0172 -0.8226
15009TIP3   OH266517   2.807   0.630   5.194 -0.3052  0.6138 -0.8218
15009TIP3    H166518   2.733   0.690   5.188 -0.9231 -0.1198 -0.5529
15009TIP3    H266519   2.805   0.581   5.112 -1.5205 -1.0203  0.1591
15010TIP3   OH266520   6.358   5.358   6.246 -0.4141  0.4991 -0.3821
15010TIP3    H166521   6.430   5.382   6.188  1.2341 -1.5172  0.7717
15010TIP3    H266522   6.389   5.281   6.294 -2.8328  0.3620  1.0958
15011TIP3   OH266523   3.132   3.657   0.876  0.0974  0.4970  0.0777
15011TIP3    H166524   3.215   3.689   0.912  0.2903  0.1385 -0.0534
15011TIP3    H266525   3.149   3.566   0.853 -0.0836  0.6682 -0.7535
15012TIP3   OH266526   6.702   0.994  13.193 -0.0930  0.5301 -0.3721
15012TIP3    H166527   6.646   0.981  13.269 -0.4717 -0.6245 -0.8481
15012TIP3    H266528   6.645   1.036  13.128  0.1376  1.1980 -0.1462
15013TIP3   OH266529   2.853   2.696   3.511 -0.3334 -0.0877 -0.2556
15013TIP3    H166530   2.790   2.765   3.530 -1.7168 -1.5446  0.5603
15013TIP3    H266531   2.938   2.739   3.515 -1.1751  1.5669  0.2170
15014TIP3   OH266532   1.916   6.436  12.921 -0.4015  0.0212 -0.8245
15014TIP3    H166533   2.000   6.391  12.937 -0.2300 -0.4096 -2.7501
15014TIP3    H266534   1.912   6.445  12.826 -2.3953  0.3511 -0.7293
15015TIP3   OH266535   3.885   2.869   2.326  0.1465 -0.6258  0.2109
15015TIP3    H166536   3.869   2.898   2.416 -1.1517 -0.7988  0.0412
15015TIP3    H266537   3.832   2.790   2.316  1.6812 -1.6352 -0.1485
15016TIP3   OH266538   1.877   2.306  15.762  0.2970  0.3588  0.1542
15016TIP3    H166539   1.828   2.367  15.705 -0.4329 -0.6558 -0.3147
15016TIP3    H266540   1.861   2.338  15.850 -1.6285 -0.2562  0.0406
15017TIP3   OH266541   2.369   2.263  13.198 -0.1615 -0.1834 -0.6527
15017TIP3    H166542   2.382   2.229  13.287  0.2568 -0.0529 -0.6611
15017TIP3    H266543   2.355   2.185  13.145  1.9741 -0.4548 -0.8729
15018TIP3   OH266544   4.699   6.594  12.543 -0.4574  0.3143  0.3820
15018TIP3    H166545   4.641   6.660  12.582 -1.6516 -0.8772  0.6787
15018TIP3    H266546   4.751   6.562  12.617 -0.0851  0.7123  0.2929
15019TIP3   OH266547   5.812   6.039  14.555  0.1988 -0.4653 -0.1858
15019TIP3    H166548   5.756   6.078  14.489  4.2225  2.8804 -1.8875
15019TIP3    H266549   5.781   6.075  14.638  0.0951  1.7084 -1.1445
15020TIP3   OH266550   5.389   3.307   2.688 -0.3775 -0.0370 -0.0913
15020TIP3    H166551   5.420   3.298   2.598 -0.2233 -1.1426  0.0611
15020TIP3    H266552   5.294   3.293   2.682 -0.2140 -1.2468  0.0680
15021TIP3   OH266553   2.409   6.698   2.189 -0.1351  0.1277 -0.6464
15021TIP3    H166554   2.466   6.753   2.243 -2.8572  2.4270  0.0207
15021TIP3    H266555   2.357   6.649   2.253  0.6720 -1.5408 -1.2444
15022TIP3   OH266556   5.271   2.755  14.143  0.2608 -0.3008 -0.1484
15022TIP3    H166557   5.257   2.662  14.128  0.2493 -0.7364  2.4372
15022TIP3    H266558   5.239   2.771  14.232 -0.2417  2.2821 -0.7417
15023TIP3   OH266559   3.558   6.422   1.622 -0.1239  0.1909 -0.0207
15023TIP3    H166560   3.483   6.436   1.681 -1.1025 -1.4773 -0.8414
15023TIP3    H266561   3.612   6.358   1.668 -0.9172 -1.1571 -0.9451
15024TIP3   OH266562   5.414   0.569   5.806  0.3054  0.0668 -0.0037
15024TIP3    H166563   5.411   0.661   5.832 -0.5625 -0.4881  1.9753
15024TIP3    H266564   5.502   0.541   5.827 -0.1567 -0.1703  1.6940
15025TIP3   OH266565   4.634   4.974   0.791  0.0826 -0.5537 -0.1898
15025TIP3    H166566   4.575   4.948   0.862  0.5080  0.0720  0.4005
15025TIP3    H266567   4.676   4.892   0.764 -1.6517 -1.1319 -1.1789
15026TIP3   OH266568   2.578   3.854  16.821  0.1988 -0.0517  0.2413
15026TIP3    H166569   2.617   3.936  16.793 -1.1123  0.3297 -0.5032
15026TIP3    H266570   2.576   3.800  16.742  0.5466 -0.5947  0.6013
15027TIP3   OH266571   1.765   0.812   0.287 -0.4509  0.3397 -0.5013
15027TIP3    H166572   1.757   0.896   0.332 -0.1134 -0.0143  0.2239
15027TIP3    H266573   1.674   0.783   0.276 -0.5545  0.6258 -0.4220
15028TIP3   OH266574   4.134   0.807   0.081  0.0830  0.0932  0.3868
15028TIP3    H166575   4.049   0.850   0.076  0.3647  0.7320  1.0085
15028TIP3    H266576   4.117   0.716   0.056 -1.2058 -0.3654  2.8496
15029TIP3   OH266577   0.764   1.871   2.122  0.1290  0.0636  0.3369
15029TIP3    H166578   0.670   1.885   2.121 -0.4164 -3.2544  0.5903
15029TIP3    H266579   0.789   1.877   2.214  0.0010 -0.0379  0.3782
15030TIP3   OH266580   0.559   2.938   4.183  0.1561 -0.4420  0.2219
15030TIP3    H166581   0.630   2.879   4.156 -0.3743 -1.3305  0.7597
15030TIP3    H266582   0.567   2.943   4.278  0.8471  1.1977  0.1019
15031TIP3   OH266583   6.046   4.574  16.784  0.4392 -0.5232 -0.3233
15031TIP3    H166584   6.057   4.660  16.824 -1.2170  0.4034 -1.7639
15031TIP3    H266585   6.113   4.570  16.715  0.9839 -0.6913  0.2111
15032TIP3   OH266586   5.133   0.793  10.645  0.0380  0.5712  0.7276
15032TIP3    H166587   5.206   0.828  10.593 -1.0430  2.0105  0.1324
15032TIP3    H266588   5.076   0.751  10.581  0.3889 -0.6438  1.2075
15033TIP3   OH266589   5.962   3.997   5.225 -0.2898 -0.4997 -0.6051
15033TIP3    H166590   6.004   4.048   5.294 -0.7964  0.7571 -1.1991
15033TIP3    H266591   5.976   3.906   5.250 -0.9975 -0.0634  1.4575
15034TIP3   OH266592   0.538   2.870  16.959 -0.0959 -0.6362  0.0763
15034TIP3    H166593   0.521   2.963  16.971  0.2414 -0.5254 -0.2913
15034TIP3    H266594   0.620   2.854  17.006  0.4497 -0.5060 -0.8116
15035TIP3   OH266595   0.639   3.939   0.093 -0.0648  0.6461 -0.8487
15035TIP3    H166596   0.628   3.846   0.076 -1.0516  0.7061 -0.5316
15035TIP3    H266597   0.665   3.975   0.008  0.5913  0.0449 -0.9078
15036TIP3   OH266598   1.215   4.668   1.208 -0.4378 -0.0395 -0.3300
15036TIP3    H166599   1.209   4.716   1.125 -0.4284  1.1728  0.3707
15036TIP3    H266600   1.136   4.693   1.257  1.2473  1.9262  1.4432
15037TIP3   OH266601   3.810   0.381  16.198 -0.6658 -0.0083  0.8597
15037TIP3    H166602   3.838   0.464  16.236 -0.1028 -0.4660  1.4526
15037TIP3    H266603   3.718   0.396  16.173 -0.1108  1.2904 -0.5008
15038TIP3   OH266604   1.621   4.111  11.621 -0.4313 -0.4310  0.2806
15038TIP3    H166605   1.714   4.100  11.603 -0.0852  1.6279  0.6840
15038TIP3    H266606   1.577   4.065  11.550  0.9055  0.4152 -1.1163
15039TIP3   OH266607   4.086   4.687  13.329  0.2570  0.0553 -0.0920
15039TIP3    H166608   4.077   4.616  13.266  0.3534  0.2292 -0.3049
15039TIP3    H266609   4.010   4.679  13.386  1.0059 -1.0683  0.7598
15040TIP3   OH266610   2.073   5.951  13.536 -0.5420 -0.0299  0.0476
15040TIP3    H166611   2.094   5.979  13.625 -0.8798  0.7992 -0.1288
15040TIP3    H266612   2.151   5.906  13.505 -0.8508 -1.3748  1.1859
15041TIP3   OH266613   2.260   3.114   4.860 -0.1508  0.0103 -0.5350
15041TIP3    H166614   2.322   3.060   4.810  0.9333  1.0303 -0.2990
15041TIP3    H266615   2.180   3.062   4.862 -0.5759  0.3900 -4.2980
15042TIP3   OH266616   2.332   0.884  13.555  0.0745  0.3408 -0.2882
15042TIP3    H166617   2.286   0.952  13.603  0.7696 -0.0058  0.8784
15042TIP3    H266618   2.319   0.805  13.606 -0.3134 -0.3144 -1.3842
15043TIP3   OH266619   0.428   4.028  15.824 -0.6285 -0.3397  0.3809
15043TIP3    H166620   0.484   4.100  15.853 -1.7904  0.3195  1.0308
15043TIP3    H266621   0.354   4.071  15.781 -1.1281 -1.1629  0.3985
15044TIP3   OH266622   4.605   6.169   4.145 -0.0278  0.1114  0.8472
15044TIP3    H166623   4.576   6.085   4.183 -0.7826 -0.4645 -0.9345
15044TIP3    H266624   4.540   6.232   4.175 -0.2033 -0.1913  1.1129
15045TIP3   OH266625   5.823   5.944  17.061 -0.3027  0.2686  0.2552
15045TIP3    H166626   5.901   5.979  17.105 -2.0937  3.2437  1.2075
15045TIP3    H266627   5.844   5.949  16.967  2.3192 -3.1883  0.5504
15046TIP3   OH266628   4.245   3.613   1.717 -0.2607  0.9253  1.2867
15046TIP3    H166629   4.164   3.616   1.767 -1.4851 -1.3789 -0.4428
15046TIP3    H266630   4.219   3.637   1.628  0.6253 -1.2371  0.4024
15047TIP3   OH266631   1.584   0.467  16.262 -0.2397  0.1968  0.0907
15047TIP3    H166632   1.675   0.491  16.248 -0.6162  0.8338 -1.3756
15047TIP3    H266633   1.566   0.401  16.195 -1.2736  1.1652 -0.5986
15048TIP3   OH266634   5.697   4.022  15.455  0.3234 -0.1701  0.0206
15048TIP3    H166635   5.656   4.053  15.374 -3.6368  1.7622  2.5719
15048TIP3    H266636   5.647   3.944  15.478  1.1342 -0.4610  0.7933
15049TIP3   OH266637   0.624   1.324   5.617 -0.1045 -0.3047 -0.4616
15049TIP3    H166638   0.699   1.328   5.558 -0.2403 -1.2369 -0.7002
15049TIP3    H266639   0.593   1.415   5.623  0.0059 -0.1813 -1.6911
15050TIP3   OH266640   1.007   5.048  12.939 -0.2053  0.6029  0.3829
15050TIP3    H166641   0.936   5.047  13.003 -0.4048  2.0489  0.2044
15050TIP3    H266642   1.082   5.011  12.986 -1.0994 -1.0505  0.5310
15051TIP3   OH266643   5.869   6.305  15.356 -0.3988 -0.0958 -0.1730
15051TIP3    H166644   5.863   6.400  15.364  2.3356  0.0169  1.2840
15051TIP3    H266645   5.778   6.275  15.353 -1.3109  2.4417  0.7784
15052TIP3   OH266646   3.593   4.876   0.158 -0.1631 -0.0157 -0.0200
15052TIP3    H166647   3.651   4.814   0.114 -1.7467 -1.1051 -0.5793
15052TIP3    H266648   3.561   4.829   0.234 -0.3756  0.5712  0.2533
15053TIP3   OH266649   4.631   2.562  15.355  0.7515  0.5576  0.0469
15053TIP3    H166650   4.642   2.467  15.363 -0.4181  0.3774 -0.2527
15053TIP3    H266651   4.560   2.583  15.416 -0.1499  0.9596 -1.1016
15054TIP3   OH266652   0.539   3.449   6.271  0.0059 -0.2161 -0.3059
15054TIP3    H166653   0.585   3.437   6.354  1.3327  0.5802 -0.9131
15054TIP3    H266654   0.447   3.459   6.296  0.3611 -0.2111  1.0493
15055TIP3   OH266655   2.996   1.645   4.370  0.2421 -0.5828 -0.4910
15055TIP3    H166656   2.943   1.598   4.306  0.2966 -1.8720  0.4155
15055TIP3    H266657   3.048   1.706   4.317 -0.7241 -0.6738 -1.5477
15056TIP3   OH266658   0.022   4.127   1.281 -0.3435 -0.0341  0.0743
15056TIP3    H166659  -0.021   4.081   1.208  2.1665 -1.7251 -0.3958
15056TIP3    H266660   0.033   4.059   1.348 -0.5949  0.9737  1.1449
15057TIP3   OH266661   2.039   3.813   3.284 -0.5785  0.5700  0.0352
15057TIP3    H166662   2.057   3.789   3.375 -0.8641  0.4333  0.0581
15057TIP3    H266663   2.105   3.765   3.233 -0.7207  0.2616  0.1351
15058TIP3   OH266664   0.398   5.922   2.433 -0.2214  0.5457 -0.1524
15058TIP3    H166665   0.443   5.841   2.412 -1.5022  0.2744 -1.9321
15058TIP3    H266666   0.389   5.968   2.349 -2.1863  1.1305  0.3358
15059TIP3   OH266667   2.287   6.299   3.547 -0.3276  0.1797  0.1743
15059TIP3    H166668   2.219   6.335   3.491 -0.5581  1.3360  1.1957
15059TIP3    H266669   2.261   6.207   3.560 -2.2547  0.8752  1.4177
15060TIP3   OH266670   6.805   2.996   1.957  0.0864 -0.0876  0.2877
15060TIP3    H166671   6.880   3.042   1.995 -1.1169  1.4766  0.8202
15060TIP3    H266672   6.790   3.040   1.874  1.9352 -2.7057 -1.5365
15061TIP3   OH266673   0.248   6.484   0.529  0.1377 -0.1654  0.2832
15061TIP3    H166674   0.304   6.539   0.475 -0.5175  0.4063  0.1752
15061TIP3    H266675   0.267   6.510   0.619  0.8539 -0.7543  0.3036
15062TIP3   OH266676   3.143   4.772   5.995 -0.2086  0.3764 -0.5368
15062TIP3    H166677   3.078   4.794   6.062 -1.0420  4.2305 -2.4948
15062TIP3    H266678   3.096   4.713   5.936  0.3195 -2.4742  1.7512
15063TIP3   OH266679   2.371   3.767   2.873  0.7512 -0.7349 -0.3060
15063TIP3    H166680   2.353   3.676   2.851 -0.9397 -0.2898 -0.8617
15063TIP3    H266681   2.312   3.817   2.816  1.9062  0.7065 -0.2459
15064TIP3   OH266682   6.313   4.086  16.800  0.1453  0.2531  0.1819
15064TIP3    H166683   6.326   4.092  16.705  2.4025 -0.7415  0.3989
15064TIP3    H266684   6.294   3.994  16.816 -0.5767  0.4816  0.6635
15065TIP3   OH266685   5.877   5.351   1.231 -0.4728  0.1945  0.0615
15065TIP3    H166686   5.800   5.341   1.176 -0.1064  0.2672 -0.4774
15065TIP3    H266687   5.864   5.435   1.276 -0.1120  0.8500 -1.0146
15066TIP3   OH266688   6.016   0.510  12.752 -0.1775  0.8809  0.1389
15066TIP3    H166689   6.000   0.423  12.717 -0.2855  0.0575  2.1643
15066TIP3    H266690   6.025   0.566  12.675  2.2014 -1.3139 -1.2227
15067TIP3   OH266691   6.390   6.316  15.138 -0.5464 -0.5880 -0.0205
15067TIP3    H166692   6.359   6.401  15.171  0.3531 -0.4570  0.4833
15067TIP3    H266693   6.393   6.327  15.043 -0.7366 -0.1608  0.0204
15068TIP3   OH266694   6.321   2.450  15.442 -0.1979  0.5464  0.4645
15068TIP3    H166695   6.227   2.430  15.438  0.2788 -1.7599  0.1349
15068TIP3    H266696   6.346   2.434  15.533  0.0541  0.3902  0.3676
15069TIP3   OH266697   1.350   5.342   5.637  0.3456  0.6082 -0.0490
15069TIP3    H166698   1.350   5.333   5.542 -0.5909 -0.8673  0.0706
15069TIP3    H266699   1.315   5.259   5.669 -0.7832  1.6620  1.5351
15070TIP3   OH266700   1.353   4.897  11.386  0.3300  0.0617 -0.1083
15070TIP3    H166701   1.314   4.852  11.311 -1.7215 -0.0261  0.9532
15070TIP3    H266702   1.392   4.826  11.438 -0.0897 -0.1287 -0.0458
15071TIP3   OH266703   1.730   2.865   1.019  0.2584 -0.4375 -0.5640
15071TIP3    H166704   1.775   2.856   1.103 -1.5666  1.3065  0.6358
15071TIP3    H266705   1.759   2.949   0.984  1.7363 -1.5842 -2.1473
15072TIP3   OH266706   0.739   1.854  15.269  0.0318 -0.6884 -0.1095
15072TIP3    H166707   0.791   1.875  15.191 -1.1605 -0.4378 -0.8651
15072TIP3    H266708   0.719   1.761  15.260 -2.0282 -0.1726 -1.3284
15073TIP3   OH266709   3.799   4.368  16.590  0.6907 -0.3444 -0.8079
15073TIP3    H166710   3.836   4.449  16.626  0.6306 -0.4554 -0.5039
15073TIP3    H266711   3.708   4.390  16.569  0.3312 -0.6882  0.3941
15074TIP3   OH266712   6.392   3.742   2.303  0.6168  0.1117 -0.3310
15074TIP3    H166713   6.311   3.759   2.353  1.8259  2.2848  0.9709
15074TIP3    H266714   6.396   3.814   2.241  2.3642  0.9167  0.6918
15075TIP3   OH266715   1.478   0.618  16.495 -0.4535 -0.6581  0.2481
15075TIP3    H166716   1.541   0.601  16.565  1.0431 -0.5045 -1.0421
15075TIP3    H266717   1.491   0.547  16.433 -1.7047 -0.7371  0.0659
15076TIP3   OH266718   0.993   4.389   4.001 -0.1935  0.1250  0.3837
15076TIP3    H166719   0.901   4.405   3.978 -0.2008 -3.0844 -2.2327
15076TIP3    H266720   1.043   4.423   3.927  0.5358 -0.6555  0.5073
15077TIP3   OH266721   5.055   3.725  12.559 -0.2625 -0.3340  0.2343
15077TIP3    H166722   4.997   3.670  12.612 -0.9372 -0.5295 -0.6909
15077TIP3    H266723   5.137   3.676  12.555 -1.1400 -1.7333 -1.3335
15078TIP3   OH266724   3.878   3.700   0.805  0.2366 -0.2679  0.1283
15078TIP3    H166725   3.911   3.723   0.892 -0.5750  1.0715  0.0977
15078TIP3    H266726   3.945   3.643   0.769  0.6101 -0.7912  1.6113
15079TIP3   OH266727   5.506   6.538   2.421  0.1598 -0.4006  0.3670
15079TIP3    H166728   5.553   6.601   2.476  1.3710 -1.5832  0.7075
15079TIP3    H266729   5.572   6.473   2.398 -0.2057  0.3680 -2.9966
15080TIP3   OH266730   4.134   1.544  15.326 -0.5968 -0.1960  0.0602
15080TIP3    H166731   4.070   1.579  15.264 -0.6838  1.3066  0.9870
15080TIP3    H266732   4.166   1.620  15.374 -2.2243 -1.5357  3.4804
15081TIP3   OH266733   4.749   1.287   6.440 -0.1680  0.1870  0.0605
15081TIP3    H166734   4.833   1.320   6.408 -0.8206  3.2689  1.2988
15081TIP3    H266735   4.768   1.254   6.528  0.1055 -0.8935 -0.4019
15082TIP3   OH266736   1.744   2.190   0.861  0.3602 -0.4148  0.1585
15082TIP3    H166737   1.748   2.243   0.781  0.3029  0.9192  1.0275
15082TIP3    H266738   1.721   2.102   0.830 -0.0400  0.1687 -1.2566
15083TIP3   OH266739   0.831   4.861  11.511  0.3079 -0.0007 -0.2230
15083TIP3    H166740   0.892   4.843  11.440  0.3988 -1.4020  0.1993
15083TIP3    H266741   0.877   4.923  11.567  1.7756 -1.8296  0.6456
15084TIP3   OH266742   1.102   1.414  16.864  0.0688 -0.0069  0.1069
15084TIP3    H166743   1.088   1.452  16.950  1.2196  0.2493  0.1949
15084TIP3    H266744   1.197   1.415  16.853 -0.0950  0.5116 -1.4067
15085TIP3   OH266745   0.463   4.453  12.087 -0.8156 -0.3295 -0.3390
15085TIP3    H166746   0.404   4.521  12.122 -1.6317 -0.8526 -0.6775
15085TIP3    H266747   0.516   4.499  12.021  0.9589  0.7492  1.7538
15086TIP3   OH266748   5.556   5.649  15.338  0.0115 -0.0570 -0.0889
15086TIP3    H166749   5.532   5.678  15.426  1.2081  1.6952 -0.3048
15086TIP3    H266750   5.637   5.599  15.350  0.2633  0.3179 -0.1990
15087TIP3   OH266751   6.390   1.172   4.389  0.3318  0.0244 -0.2235
15087TIP3    H166752   6.374   1.117   4.467  0.8140 -1.3593 -1.0730
15087TIP3    H266753   6.351   1.256   4.411 -0.7338 -0.7578  0.9923
15088TIP3   OH266754   4.944   2.040   6.075  0.2643 -0.0026 -0.2828
15088TIP3    H166755   4.941   2.115   6.134 -0.7095 -0.5378  0.3637
15088TIP3    H266756   4.957   1.964   6.132  0.2915 -0.4219 -0.8363
15089TIP3   OH266757   2.320   2.902  15.173  0.2007 -0.2178  0.5355
15089TIP3    H166758   2.336   2.809  15.188  0.7574 -0.3718 -0.9017
15089TIP3    H266759   2.243   2.922  15.227  0.3975 -1.3776  1.2688
15090TIP3   OH266760   4.551   4.516   3.003  0.1334  0.2288 -0.3972
15090TIP3    H166761   4.508   4.437   3.037 -0.7042  0.7271 -0.2802
15090TIP3    H266762   4.629   4.525   3.058 -1.0406  0.8391  1.2089
15091TIP3   OH266763   4.927   1.314  11.048  0.1219  0.2300  0.0135
15091TIP3    H166764   4.853   1.286  10.993 -0.8670  0.3139  1.2656
15091TIP3    H266765   4.965   1.387  10.999 -0.1917 -0.2551 -0.9876
15092TIP3   OH266766   5.082   5.694  15.589  0.5010  0.0607  0.2780
15092TIP3    H166767   5.026   5.701  15.666  0.4710  0.1003  0.2527
15092TIP3    H266768   5.170   5.710  15.621  0.4411  0.5106  0.2319
15093TIP3   OH266769   2.544   4.284  17.119  0.0072 -0.1598  0.2550
15093TIP3    H166770   2.498   4.245  17.193 -0.5970  0.0330 -0.0113
15093TIP3    H266771   2.484   4.273  17.045 -0.8912  2.6617  0.4991
15094TIP3   OH266772   2.796   1.566  11.103 -1.0675  0.6361  0.5333
15094TIP3    H166773   2.753   1.484  11.080 -1.1955  1.0873 -0.8953
15094TIP3    H266774   2.747   1.598  11.179 -1.9122  0.0773  0.2328
15095TIP3   OH266775   5.737   2.614   5.032  0.1925  0.1551 -0.1166
15095TIP3    H166776   5.718   2.561   5.109  0.6059  1.2227  0.7402
15095TIP3    H266777   5.719   2.704   5.060  0.4523  0.5663 -1.2321
15096TIP3   OH266778   0.993   2.042   0.072  0.0465  0.4507  0.2295
15096TIP3    H166779   1.052   2.034   0.147  1.0137  1.0049 -0.4506
15096TIP3    H266780   1.051   2.039  -0.004 -0.7315  1.6760 -0.4393
15097TIP3   OH266781   1.668   6.009   5.819 -0.2919  0.3360  0.0770
15097TIP3    H166782   1.657   6.099   5.849 -2.2791  0.4038 -0.7354
15097TIP3    H266783   1.631   6.010   5.730  2.0874 -0.6804 -0.9560
15098TIP3   OH266784   2.473   5.833  11.316 -0.4238 -0.0065 -0.2524
15098TIP3    H166785   2.444   5.821  11.406  0.0346 -0.9101 -0.2255
15098TIP3    H266786   2.415   5.901  11.282  0.1440  1.1512  1.0581
15099TIP3   OH266787   2.205   2.368   3.711  0.0486  0.1914  0.1834
15099TIP3    H166788   2.249   2.422   3.646  0.2785  1.0298  1.0076
15099TIP3    H266789   2.252   2.387   3.793 -1.3818  0.5592  0.9354
15100TIP3   OH266790   6.800   1.420   1.874  0.4424  0.1034 -0.4926
15100TIP3    H166791   6.814   1.507   1.838  0.1489  0.6843  0.7410
15100TIP3    H266792   6.705   1.407   1.867  0.6374 -0.6373 -1.8168
15101TIP3   OH266793   6.025   0.595  15.706  1.0083  1.0756 -0.0258
15101TIP3    H166794   5.958   0.636  15.651  2.1704  2.2682 -0.5811
15101TIP3    H266795   6.093   0.662  15.715  1.5584  0.3342  1.5749
15102TIP3   OH266796   5.789   2.423   1.154  0.4722  0.2245 -0.1877
15102TIP3    H166797   5.743   2.453   1.076  0.6035 -1.6711 -1.0263
15102TIP3    H266798   5.881   2.417   1.126  0.5706 -0.1382  0.2189
15103TIP3   OH266799   5.136   1.075  13.903 -0.0269  0.0289  0.6620
15103TIP3    H166800   5.081   1.005  13.868  1.0833 -0.7910  0.5626
15103TIP3    H266801   5.099   1.094  13.989  0.6724 -1.8021  1.3787
15104TIP3   OH266802   5.563   5.084   3.551  0.3178 -0.3084  0.3044
15104TIP3    H166803   5.558   5.101   3.457 -1.1350 -0.3284  0.3615
15104TIP3    H266804   5.473   5.062   3.576  0.5321  0.4642  1.8367
15105TIP3   OH266805   0.385   3.217  11.975  0.6211 -0.0661 -0.0049
15105TIP3    H166806   0.377   3.149  12.041 -2.1408  0.0514 -0.1350
15105TIP3    H266807   0.301   3.265  11.980  2.2572  2.9709 -0.2672
15106TIP3   OH266808   1.570   4.900  14.914  0.0268 -0.0442  0.1427
15106TIP3    H166809   1.489   4.886  14.865  0.2077 -1.6197  0.2944
15106TIP3    H266810   1.625   4.826  14.891  1.5971  1.2187 -0.2638
15107TIP3   OH266811   5.932   2.431  13.347  0.2620 -0.9682  0.1532
15107TIP3    H166812   5.874   2.495  13.306  0.5022 -0.7158  0.2045
15107TIP3    H266813   5.932   2.455  13.440  2.2143  0.4342 -0.1728
15108TIP3   OH266814   1.617   0.211  13.428  0.1082  0.0238  0.5735
15108TIP3    H166815   1.710   0.188  13.437  0.3337  0.5153 -0.3746
15108TIP3    H266816   1.577   0.182  13.510  0.8659 -1.3448  0.4854
15109TIP3   OH266817   2.173   4.976  13.344 -0.2260 -0.3127  0.1321
15109TIP3    H166818   2.255   5.003  13.385  1.0409 -1.0069 -1.9040
15109TIP3    H266819   2.185   4.994  13.251 -2.7600  0.4793 -0.0924
15110TIP3   OH266820   3.779   0.970   6.064  0.1457  0.0392 -0.3055
15110TIP3    H166821   3.826   0.900   6.109  3.0830  0.6560 -2.2802
15110TIP3    H266822   3.736   1.019   6.135 -0.3930 -2.5956  1.2459
15111TIP3   OH266823   0.991   5.323  14.047  0.2301  0.5270 -0.2940
15111TIP3    H166824   1.078   5.284  14.054 -0.8286 -2.3368 -2.0181
15111TIP3    H266825   0.972   5.357  14.134  2.6555  0.3134  0.3558
15112TIP3   OH266826   4.601   1.801   3.797  0.6680  0.2844 -0.1285
15112TIP3    H166827   4.693   1.780   3.814  0.5235  0.6757  1.2321
15112TIP3    H266828   4.552   1.737   3.848  0.1608 -0.8128 -1.9575
15113TIP3   OH266829   3.176   0.701   2.702  0.0480  0.3676  0.9158
15113TIP3    H166830   3.095   0.750   2.716 -0.9244 -1.1577  0.7740
15113TIP3    H266831   3.182   0.691   2.607 -0.8261 -1.5079  1.0422
15114TIP3   OH266832   1.770   0.828   2.883  0.2369 -0.4919 -0.0188
15114TIP3    H166833   1.794   0.921   2.877 -1.0656  0.0488  2.4830
15114TIP3    H266834   1.847   0.786   2.921  0.8847 -0.4929 -1.2906
15115TIP3   OH266835   1.287   1.426   2.249  0.0252  0.2750  0.0279
15115TIP3    H166836   1.356   1.487   2.224 -1.2322  1.7396  0.0716
15115TIP3    H266837   1.206   1.478   2.245 -0.9825 -1.2083  0.7059
15116TIP3   OH266838   1.898   4.961   1.786 -0.0708 -0.2250 -0.2166
15116TIP3    H166839   1.890   5.046   1.743 -0.7020  0.7835  1.8412
15116TIP3    H266840   1.900   4.897   1.714  1.2925  1.5737 -1.8181
15117TIP3   OH266841   6.156   0.744   4.656 -0.1914  0.4699 -0.5161
15117TIP3    H166842   6.221   0.676   4.639 -0.7759 -0.1726 -0.2213
15117TIP3    H266843   6.207   0.824   4.665  0.6219 -0.1195  0.2985
15118TIP3   OH266844   1.901   0.390   2.737 -0.3595 -0.7738  0.4262
15118TIP3    H166845   1.928   0.482   2.739 -0.6733 -0.5035 -3.3793
15118TIP3    H266846   1.807   0.393   2.757 -0.7077 -0.0546 -1.2001
15119TIP3   OH266847   1.853   5.516   4.533 -0.1548 -0.0270  0.7871
15119TIP3    H166848   1.914   5.457   4.488 -0.6128  0.1908 -0.1250
15119TIP3    H266849   1.777   5.520   4.475  0.9811  3.6767 -0.5551
15120TIP3   OH266850   1.556   4.873  11.893 -0.2102 -0.3772 -0.3729
15120TIP3    H166851   1.593   4.867  11.805 -0.1462  0.0090 -0.3717
15120TIP3    H266852   1.627   4.844  11.950 -0.5945 -1.6633 -0.5184
15121TIP3   OH266853   6.809   4.005  12.426 -0.3709 -0.5198  0.5426
15121TIP3    H166854   6.748   4.077  12.444  0.2243 -0.0329  0.6506
15121TIP3    H266855   6.803   3.991  12.332 -0.5406 -0.3744  0.5319
15122TIP3   OH266856   4.736   5.714   0.252 -0.0858 -0.2449  0.5379
15122TIP3    H166857   4.766   5.668   0.174 -0.0278  1.8535 -0.6977
15122TIP3    H266858   4.761   5.805   0.239  1.4238 -0.1175  3.7787
15123TIP3   OH266859   5.270   2.125  16.317  0.1111  0.1291  0.9054
15123TIP3    H166860   5.218   2.059  16.361  3.0049 -1.5997  1.8664
15123TIP3    H266861   5.235   2.127  16.227  0.1337 -2.8939  0.7856
15124TIP3   OH266862   5.248   1.558  11.502 -0.7130  0.3899  0.4740
15124TIP3    H166863   5.248   1.515  11.588 -1.0514 -0.1914  0.1847
15124TIP3    H266864   5.335   1.540  11.467 -1.1557 -0.8323 -0.0243
15125TIP3   OH266865   3.796   5.271   6.564  0.3757 -0.0980  0.4458
15125TIP3    H166866   3.814   5.189   6.519 -0.0867 -0.4810  0.9594
15125TIP3    H266867   3.805   5.251   6.657 -1.4988 -0.0058  0.6578
15126TIP3   OH266868   1.149   4.540   2.121 -0.0471 -0.6303  0.1571
15126TIP3    H166869   1.225   4.568   2.173  0.3656  0.0726 -0.8042
15126TIP3    H266870   1.074   4.577   2.167  0.2687 -0.5730  0.6273
15127TIP3   OH266871   2.109   5.917  16.837 -0.0173 -0.2151 -0.3496
15127TIP3    H166872   2.075   5.975  16.905  0.8120  1.5717 -1.3899
15127TIP3    H266873   2.049   5.929  16.763  0.6551  0.0059 -0.8696
15128TIP3   OH266874   3.364   4.462  13.329  0.0196 -0.2999 -0.4544
15128TIP3    H166875   3.350   4.390  13.390  2.7476  0.9548  1.7325
15128TIP3    H266876   3.392   4.420  13.248 -0.6598 -1.7956  0.0766
15129TIP3   OH266877   2.672   5.604   4.503 -0.4479 -0.2117 -0.3245
15129TIP3    H166878   2.684   5.698   4.517 -1.0377 -0.1554 -0.1804
15129TIP3    H266879   2.743   5.563   4.553  0.2459  0.1862 -0.9713
15130TIP3   OH266880   2.891   3.882   1.670 -0.1582  0.2057  0.3107
15130TIP3    H166881   2.948   3.838   1.733 -1.8821  0.2280  1.9172
15130TIP3    H266882   2.928   3.970   1.662  0.6576 -0.1134  0.4888
15131TIP3   OH266883   3.867   2.399   3.149 -0.2280  0.2886 -0.3157
15131TIP3    H166884   3.806   2.402   3.222 -0.6912  2.3309 -0.7574
15131TIP3    H266885   3.913   2.483   3.153  1.3635 -0.5328 -1.0016
15132TIP3   OH266886   3.962   3.317   0.971  0.0379 -0.1454  0.1612
15132TIP3    H166887   3.931   3.315   1.062  0.7996 -1.2519  0.4137
15132TIP3    H266888   3.883   3.305   0.918 -0.3124 -0.2545  0.7085
15133TIP3   OH266889   4.006   0.921   1.368 -0.5628 -0.1339  0.0554
15133TIP3    H166890   4.083   0.958   1.410 -1.1530  1.2221 -0.0233
15133TIP3    H266891   3.932   0.957   1.418 -1.1925 -0.0929 -0.8900
15134TIP3   OH266892   1.472   3.429   0.956 -0.0630  0.6789 -0.1113
15134TIP3    H166893   1.388   3.475   0.951 -0.7374 -0.1777  2.2639
15134TIP3    H266894   1.450   3.338   0.935  0.8711  1.0098 -2.6423
15135TIP3   OH266895   2.544   6.346   6.306  0.0327  0.2877 -0.2716
15135TIP3    H166896   2.550   6.433   6.346  1.2097 -0.9986  2.4872
15135TIP3    H266897   2.451   6.324   6.311 -0.4195  1.7159 -1.8122
15136TIP3   OH266898   5.719   3.702   2.367 -0.2965 -0.3224  0.1501
15136TIP3    H166899   5.663   3.777   2.384 -0.1562 -0.0562 -0.5486
15136TIP3    H266900   5.678   3.658   2.292  0.4597 -0.0958 -0.3994
15137TIP3   OH266901   2.171   6.207  14.843  0.3354  1.0054  0.3516
15137TIP3    H166902   2.238   6.147  14.811  0.0931  0.2707  1.2042
15137TIP3    H266903   2.090   6.176  14.801  0.2085  0.7246  0.8013
15138TIP3   OH266904   4.516   2.449   3.734  0.3146 -0.2706 -0.5927
15138TIP3    H166905   4.509   2.528   3.789  5.5378 -0.6366  0.9343
15138TIP3    H266906   4.546   2.482   3.650 -0.4175 -0.3818 -0.8994
15139TIP3   OH266907   0.467   2.800   1.513  0.0591  0.0305 -0.5008
15139TIP3    H166908   0.397   2.838   1.566 -1.0321  1.9940 -3.2204
15139TIP3    H266909   0.488   2.718   1.557 -2.4650  0.4139  1.5799
15140TIP3   OH266910   2.407   6.601   1.293 -0.0946  0.3722 -0.5089
15140TIP3    H166911   2.403   6.526   1.352  0.4255  1.3832  0.8462
15140TIP3    H266912   2.501   6.620   1.283 -0.2365  1.1581 -0.4222
15141TIP3   OH266913   4.358   4.566  12.492 -0.3704  0.0292  0.1379
15141TIP3    H166914   4.364   4.477  12.456 -0.7199  0.1339 -0.1870
15141TIP3    H266915   4.284   4.605  12.445 -0.0695  0.5695  0.1117
15142TIP3   OH266916   6.811   0.490  14.964 -0.3561  0.2510  0.6708
15142TIP3    H166917   6.744   0.484  15.032  0.9355  0.1393  1.9491
15142TIP3    H266918   6.765   0.526  14.888 -2.6849 -3.0321  0.4093
15143TIP3   OH266919   0.789   5.785   5.794 -0.1595 -0.0186 -0.1346
15143TIP3    H166920   0.736   5.736   5.857 -0.5732  0.6584  0.0469
15143TIP3    H266921   0.795   5.727   5.718 -0.6125 -0.3698  0.0960
15144TIP3   OH266922   5.686   4.449  15.869 -0.6749 -0.0380  0.1885
15144TIP3    H166923   5.741   4.407  15.803 -0.2630  0.3599  0.2731
15144TIP3    H266924   5.597   4.424  15.846 -0.5319  0.0834 -0.5096
15145TIP3   OH266925   2.146   1.319  15.826  0.0841  0.3524 -0.1220
15145TIP3    H166926   2.156   1.230  15.860  0.4154  0.0710 -0.9460
15145TIP3    H266927   2.168   1.376  15.900  0.3239 -0.2489  0.2696
15146TIP3   OH266928   4.378   1.146   0.238 -0.1493 -0.3264  0.0097
15146TIP3    H166929   4.370   1.197   0.158  1.0627  0.9301  0.6622
15146TIP3    H266930   4.463   1.103   0.231  0.7158  1.1220  1.3474
15147TIP3   OH266931   0.854   3.957   2.709  0.7123 -0.1747  0.0628
15147TIP3    H166932   0.891   3.959   2.621 -1.9185 -2.2500 -1.1613
15147TIP3    H266933   0.799   4.036   2.714  0.4082 -0.3627 -0.3519
15148TIP3   OH266934   3.497   4.212  11.577  0.0349  0.2506 -0.4310
15148TIP3    H166935   3.427   4.181  11.519 -0.0450 -2.8904  1.2221
15148TIP3    H266936   3.461   4.200  11.665  1.3730  1.9211  0.3748
15149TIP3   OH266937   3.156   4.901  16.337 -0.3254  0.0956  0.2918
15149TIP3    H166938   3.160   4.875  16.429  0.6715 -0.3494  0.1210
15149TIP3    H266939   3.069   4.874  16.308  0.0487 -1.4333  0.5964
15150TIP3   OH266940   2.303   5.882  13.050  0.2077 -0.0641  0.2403
15150TIP3    H166941   2.254   5.804  13.025  0.2093 -0.2102  0.6884
15150TIP3    H266942   2.295   5.941  12.975 -0.1946 -0.3051  0.0955
15151TIP3   OH266943   5.883   0.831  16.728 -0.1356 -0.5395 -0.2071
15151TIP3    H166944   5.907   0.745  16.765  1.2171 -0.3729 -0.6579
15151TIP3    H266945   5.967   0.870  16.703 -0.9213 -0.0175 -2.0801
15152TIP3   OH266946   1.002   2.447  16.357  0.4043  0.5563  0.1411
15152TIP3    H166947   1.093   2.467  16.380  0.9367 -0.6909 -0.7720
15152TIP3    H266948   0.974   2.522  16.304  0.8730  0.9730  0.4699
15153TIP3   OH266949   5.378   5.251  12.795  0.3757 -0.1590 -0.4515
15153TIP3    H166950   5.409   5.256  12.886  1.5995  0.6874 -0.8916
15153TIP3    H266951   5.329   5.332  12.783 -0.4635 -0.6432 -0.3144
15154TIP3   OH266952   0.859   0.051   3.574 -0.3431 -0.1902  0.2703
15154TIP3    H166953   0.893  -0.035   3.597  1.0870  0.4222  0.5089
15154TIP3    H266954   0.853   0.098   3.657 -0.7863  0.0645  0.0977
15155TIP3   OH266955   4.798   1.267   3.309  0.0259 -0.2504  0.1364
15155TIP3    H166956   4.868   1.203   3.298 -0.0518  0.0408 -2.3586
15155TIP3    H266957   4.721   1.216   3.330  0.4889 -0.7695  0.5732
15156TIP3   OH266958   4.791   3.118   6.480 -0.8825  0.4731 -0.2648
15156TIP3    H166959   4.743   3.200   6.467 -1.5922  0.1456  0.2524
15156TIP3    H266960   4.857   3.139   6.547 -2.5478  0.0434  1.5504
15157TIP3   OH266961   4.675   4.265  12.671 -0.6160 -0.1896  0.3115
15157TIP3    H166962   4.658   4.200  12.604 -1.1733  1.9688 -1.7179
15157TIP3    H266963   4.750   4.231  12.720 -0.3359 -1.9011 -1.2669
15158TIP3   OH266964   3.709   4.352  11.009 -0.0420 -0.3033  0.1745
15158TIP3    H166965   3.800   4.366  10.983 -0.2715  0.0575 -0.4541
15158TIP3    H266966   3.662   4.346  10.927 -0.3448 -2.2096  0.4725
15159TIP3   OH266967   5.301   2.214  14.459 -0.0379  0.4718 -0.2717
15159TIP3    H166968   5.261   2.231  14.373 -0.2718  2.0956  0.1314
15159TIP3    H266969   5.317   2.302  14.495 -0.0530 -0.1980  1.3905
15160TIP3   OH266970   2.588   3.351   3.434  0.3467 -0.2778  0.2209
15160TIP3    H166971   2.545   3.417   3.379  2.3971  0.5502 -0.4131
15160TIP3    H266972   2.681   3.358   3.413  0.6763 -2.9650  0.5996
15161TIP3   OH266973   3.668   3.496  14.636  0.2304 -0.1751  0.5113
15161TIP3    H166974   3.752   3.461  14.606  0.4957  1.3460 -0.5777
15161TIP3    H266975   3.661   3.581  14.593 -1.1756  0.3759  1.7971
15162TIP3   OH266976   4.623   2.223  13.231 -0.1371 -0.0279  0.4223
15162TIP3    H166977   4.610   2.158  13.162 -1.6656 -0.3590  0.9887
15162TIP3    H266978   4.717   2.240  13.231  0.2955 -2.2802  0.3052
15163TIP3   OH266979   4.602   6.760  15.293  0.5259 -0.0499  0.0057
15163TIP3    H166980   4.609   6.737  15.385  0.8891 -1.2327 -0.3141
15163TIP3    H266981   4.674   6.714  15.251  0.8940  1.1976 -0.7373
15164TIP3   OH266982   0.866   1.514   1.392 -0.2440 -0.1572 -0.4883
15164TIP3    H166983   0.790   1.512   1.335 -0.2696 -1.6838 -0.4227
15164TIP3    H266984   0.837   1.471   1.473  1.0019 -1.7996 -0.8905
15165TIP3   OH266985   5.194   6.075  16.471  0.0496  0.1785 -0.4072
15165TIP3    H166986   5.172   5.987  16.440  0.9788 -0.0436 -0.4625
15165TIP3    H266987   5.152   6.082  16.557 -0.3357 -0.1841 -0.5685
15166TIP3   OH266988   2.625   2.693  16.003  0.4170  0.6043 -0.2042
15166TIP3    H166989   2.621   2.777  16.050  4.1647  0.2969  0.8488
15166TIP3    H266990   2.604   2.628  16.069  1.6724  0.4606  0.0719
15167TIP3   OH266991   0.229   1.825  10.797 -0.2693 -0.4661 -0.0902
15167TIP3    H166992   0.274   1.907  10.814 -0.0831 -0.0874 -2.2368
15167TIP3    H266993   0.234   1.814  10.702 -2.0887 -1.9125 -0.0598
15168TIP3   OH266994   0.087   1.250   4.716  0.1627  0.6647 -0.7518
15168TIP3    H166995   0.168   1.300   4.711 -0.0296  0.8478 -2.0813
15168TIP3    H266996   0.025   1.298   4.661 -0.8897  0.5789  0.3199
15169TIP3   OH266997   1.603   6.758   1.374  0.3225 -0.3231 -0.0115
15169TIP3    H166998   1.576   6.680   1.423  1.8383  0.4334  2.0833
15169TIP3    H266999   1.627   6.724   1.288  0.0902 -2.0383  0.5694
15170TIP3   OH267000   2.228   3.369  11.109 -0.0521 -0.0513 -0.1524
15170TIP3    H167001   2.135   3.355  11.095  0.1174 -0.2101 -1.1222
15170TIP3    H267002   2.263   3.391  11.023  0.6521  0.8732  0.3576
15171TIP3   OH267003   2.940   1.247   4.879  0.3840 -0.1548  0.0710
15171TIP3    H167004   2.912   1.283   4.963 -0.2160  0.8157 -0.5309
15171TIP3    H267005   2.962   1.324   4.826 -0.0927 -0.7199 -0.9548
15172TIP3   OH267006   2.333   2.885  12.345 -0.0832  0.0176  0.1371
15172TIP3    H167007   2.425   2.881  12.317  0.5851 -2.0879  2.4636
15172TIP3    H267008   2.333   2.948  12.417 -0.5492  0.1778  0.0016
15173TIP3   OH267009   0.164   5.720   2.181  0.2553 -0.4736  0.6693
15173TIP3    H167010   0.135   5.678   2.100 -1.3706  0.8851  0.4978
15173TIP3    H267011   0.184   5.810   2.155  2.3532 -0.7487  1.2771
15174TIP3   OH267012   1.618   6.801   6.184 -0.7705  0.0703  0.0688
15174TIP3    H167013   1.565   6.837   6.255 -0.0977 -0.4208  0.8435
15174TIP3    H267014   1.570   6.724   6.155 -2.0596  1.3972 -1.3912
15175TIP3   OH267015   3.273   5.703  12.409 -0.1350  0.2706  0.0361
15175TIP3    H167016   3.320   5.780  12.376 -1.6989  1.7154  1.1139
15175TIP3    H267017   3.256   5.651  12.330  2.1127  0.3318 -0.5368
15176TIP3   OH267018   5.713   6.518  13.619  0.2717 -0.3206 -0.1872
15176TIP3    H167019   5.639   6.480  13.572 -0.8996  1.2254  0.3528
15176TIP3    H267020   5.789   6.503  13.561 -0.7080 -0.6307 -1.4125
15177TIP3   OH267021   1.206   1.958   0.265  0.5571  0.2283  0.8429
15177TIP3    H167022   1.288   2.002   0.244  1.1309 -1.2790 -0.1646
15177TIP3    H267023   1.230   1.890   0.328  0.2271 -0.6637  0.0345
15178TIP3   OH267024   1.308   5.214  12.029 -0.3982 -0.2507  0.4002
15178TIP3    H167025   1.392   5.213  12.075 -1.8786  1.5442  3.3335
15178TIP3    H267026   1.330   5.235  11.939  2.4350 -1.3926  0.7699
15179TIP3   OH267027   0.552   3.480   1.466 -0.5236 -0.2476  0.4194
15179TIP3    H167028   0.527   3.398   1.423  0.2298 -0.9133  1.2347
15179TIP3    H267029   0.468   3.522   1.486 -0.8979 -0.4605 -0.6736
15180TIP3   OH267030   2.807   3.714  12.572 -0.2782 -0.1350  0.2074
15180TIP3    H167031   2.853   3.726  12.489 -1.2228  0.6930 -0.2103
15180TIP3    H267032   2.733   3.656  12.550 -1.9326  2.0090 -0.0805
15181TIP3   OH267033   0.296   6.323   1.391  0.6697 -0.9350 -0.1661
15181TIP3    H167034   0.207   6.344   1.417  0.0501 -1.8053 -1.5579
15181TIP3    H267035   0.293   6.232   1.363  1.7449 -0.6465 -1.3029
15182TIP3   OH267036   0.333   6.816  11.139 -0.7001  0.6490  0.1461
15182TIP3    H167037   0.417   6.770  11.136  0.5057  2.8163  0.0107
15182TIP3    H267038   0.337   6.878  11.066 -1.6360  2.1052  1.3088
15183TIP3   OH267039   0.861   4.391   0.743  0.4732  0.2381 -0.6840
15183TIP3    H167040   0.836   4.387   0.651 -1.2391  1.2443 -0.2871
15183TIP3    H267041   0.819   4.470   0.776  0.0736 -0.7371  1.2413
15184TIP3   OH267042   4.694   5.799  14.761 -0.2491  0.5737 -0.6245
15184TIP3    H167043   4.780   5.825  14.727 -0.4299  0.8949 -0.8464
15184TIP3    H267044   4.712   5.725  14.819  0.0690  0.0112 -1.4225
15185TIP3   OH267045   3.318   0.127  15.830 -0.1280 -0.1433 -0.8172
15185TIP3    H167046   3.244   0.183  15.804 -0.0569  0.9119  1.0861
15185TIP3    H267047   3.391   0.188  15.843 -0.1828 -0.5555  1.7682
15186TIP3   OH267048   3.710   0.347  11.998  0.0633  0.2377  0.1479
15186TIP3    H167049   3.663   0.292  12.060 -0.5150  0.3248 -0.2058
15186TIP3    H267050   3.642   0.404  11.961  0.4673  0.4321 -0.2938
15187TIP3   OH267051   4.773   3.559   6.282  0.1957  0.2468  0.8995
15187TIP3    H167052   4.755   3.561   6.188  0.3349  0.5381  0.8758
15187TIP3    H267053   4.843   3.623   6.293 -0.9785  1.4673  1.4444
15188TIP3   OH267054   6.560   0.217   6.258 -0.0095  0.8573  0.4954
15188TIP3    H167055   6.607   0.134   6.253  3.0425  2.5485  0.0859
15188TIP3    H267056   6.585   0.255   6.342 -0.9862  1.5789  0.4719
15189TIP3   OH267057   1.041   4.755  12.327 -0.2396  0.4745 -0.4219
15189TIP3    H167058   1.061   4.725  12.416 -0.0190  0.5767 -0.4375
15189TIP3    H267059   1.120   4.801  12.298  0.5512 -1.5516 -1.5467
15190TIP3   OH267060   5.354   6.488   1.429  0.3744 -0.1378  0.3100
15190TIP3    H167061   5.393   6.571   1.404 -1.9195  0.8926  0.0271
15190TIP3    H267062   5.378   6.428   1.359  0.4158  0.7897 -0.4735
15191TIP3   OH267063   1.443   2.417   3.153  0.3384 -0.3248 -0.3730
15191TIP3    H167064   1.455   2.327   3.181  1.7080  0.0436  0.2564
15191TIP3    H267065   1.441   2.468   3.234  1.4393  0.4084 -0.7919
15192TIP3   OH267066   0.286   5.865   1.524  0.0829  0.1469  0.2048
15192TIP3    H167067   0.340   5.787   1.511 -0.8906 -0.1948 -2.0300
15192TIP3    H267068   0.339   5.921   1.581  2.1252 -0.8592 -0.6278
15193TIP3   OH267069   3.535   3.592  16.238  0.2029 -0.6454 -0.3015
15193TIP3    H167070   3.478   3.573  16.313  0.9009 -1.1324  0.1009
15193TIP3    H267071   3.620   3.555  16.261  1.2840  1.8834 -0.0009
15194TIP3   OH267072   4.675   6.304  14.391  0.2978  0.4638 -0.3616
15194TIP3    H167073   4.621   6.329  14.316 -0.5584 -0.3028 -0.0099
15194TIP3    H267074   4.641   6.219  14.418  1.0428  0.4241  0.4793
15195TIP3   OH267075   0.214   4.702   2.194 -0.1801  0.1916 -0.5604
15195TIP3    H167076   0.171   4.648   2.128  0.1241 -0.9480  0.1820
15195TIP3    H267077   0.306   4.677   2.190 -0.0122  0.7479 -0.3060
15196TIP3   OH267078   0.317   3.405   3.305 -0.2905 -0.4594 -0.1139
15196TIP3    H167079   0.266   3.327   3.327  0.2292 -0.5819  0.7239
15196TIP3    H267080   0.388   3.406   3.370  1.6098 -1.0883 -2.1022
15197TIP3   OH267081   3.089   3.082   3.574 -0.7233  0.1034  0.0888
15197TIP3    H167082   3.023   3.141   3.609 -0.8072  0.1754 -0.1887
15197TIP3    H267083   3.152   3.070   3.646 -1.4570 -0.5923  0.6241
15198TIP3   OH267084   3.179   2.245  11.316 -0.2372 -0.2043  0.2097
15198TIP3    H167085   3.147   2.333  11.296 -0.6193 -0.4229 -0.1531
15198TIP3    H267086   3.272   2.258  11.336 -0.3623  0.3208  0.4586
15199TIP3   OH267087   2.456   1.719   0.184 -0.2773 -0.0385 -1.0386
15199TIP3    H167088   2.398   1.668   0.240 -0.4569 -0.2294 -1.3998
15199TIP3    H267089   2.408   1.730   0.102 -0.1189  0.4582 -1.0665
15200TIP3   OH267090   3.936   3.120   6.289 -0.0522 -0.4866  0.0792
15200TIP3    H167091   3.944   3.167   6.372 -2.9620  0.9364 -0.3883
15200TIP3    H267092   3.863   3.060   6.303 -0.0725 -0.7775 -1.2231
15201TIP3   OH267093   0.471   3.891  11.365  0.0008 -0.0363 -0.0290
15201TIP3    H167094   0.475   3.986  11.362 -1.7857  0.1179  1.1901
15201TIP3    H267095   0.388   3.872  11.410  0.3605 -2.1552 -0.1868
15202TIP3   OH267096   4.177   5.316   0.848  0.9943  0.6234 -0.2725
15202TIP3    H167097   4.091   5.358   0.846  0.9454  0.4949 -2.2907
15202TIP3    H267098   4.239   5.389   0.841  1.1021  0.8036  2.2949
15203TIP3   OH267099   6.474   1.590   6.500  0.2283  0.6465 -0.3559
15203TIP3    H167100   6.541   1.620   6.562 -0.4612  1.3995  0.0394
15203TIP3    H267101   6.463   1.497   6.520 -0.8817  1.1577  1.5084
15204TIP3   OH267102   6.434   0.601  10.663  0.4420 -0.0235  0.7051
15204TIP3    H167103   6.514   0.642  10.698  0.5648 -0.2466  0.6850
15204TIP3    H267104   6.450   0.507  10.670 -1.3122 -0.1240  4.0661
15205TIP3   OH267105   6.708   0.832   0.613  0.1146  0.2411  0.5844
15205TIP3    H167106   6.650   0.801   0.682 -1.8761 -3.1195 -2.4792
15205TIP3    H267107   6.678   0.921   0.595  1.5222  1.7137  4.8015
15206TIP3   OH267108   0.381   3.591  11.735 -0.7480 -0.5813 -0.1246
15206TIP3    H167109   0.375   3.602  11.640  0.0582  0.4579 -0.0678
15206TIP3    H267110   0.441   3.518  11.747  0.9170  0.6887 -0.4118
15207TIP3   OH267111   0.890   2.286  12.187  0.4512 -0.2864 -0.3882
15207TIP3    H167112   0.946   2.358  12.158  1.3031  0.7514  3.5080
15207TIP3    H267113   0.951   2.221  12.222 -0.5215 -1.2696 -0.4994
15208TIP3   OH267114   2.765   0.313   4.720  0.3410  0.0394  0.3911
15208TIP3    H167115   2.816   0.318   4.640  0.2856  0.2888  0.3695
15208TIP3    H267116   2.760   0.220   4.741  1.4662  0.0640  0.8193
15209TIP3   OH267117   6.548   2.073  14.270  0.0058  0.1255  0.2560
15209TIP3    H167118   6.527   2.030  14.187  0.7801  1.2175 -0.5179
15209TIP3    H267119   6.610   2.013  14.312 -0.1242 -0.2674 -0.0986
15210TIP3   OH267120   3.078   3.558   6.048 -0.2766 -0.5596 -0.9096
15210TIP3    H167121   3.168   3.588   6.031 -0.7639  0.6633 -1.4107
15210TIP3    H267122   3.023   3.628   6.012 -1.4067 -0.7424  0.4231
15211TIP3   OH267123   5.681   0.317   5.223  0.0092  0.3461 -0.1568
15211TIP3    H167124   5.773   0.323   5.199  0.3679  2.3442  1.5571
15211TIP3    H267125   5.635   0.363   5.153  0.3518 -0.4363 -0.8886
15212TIP3   OH267126   6.060   5.865   3.133  0.1009  0.1744 -0.0513
15212TIP3    H167127   5.996   5.895   3.198  0.5085  1.5873 -0.2790
15212TIP3    H267128   6.017   5.793   3.087 -0.6912  0.0347  0.8966
15213TIP3   OH267129   4.648   4.545  15.310 -0.4768 -0.2400 -1.0556
15213TIP3    H167130   4.712   4.555  15.380  1.1752  0.8003 -2.6914
15213TIP3    H267131   4.574   4.599  15.338  0.3271  0.4791 -0.2967
15214TIP3   OH267132   6.598   3.608   3.233  0.6515  0.3671 -0.3289
15214TIP3    H167133   6.612   3.690   3.281  1.3351 -0.3033  0.6372
15214TIP3    H267134   6.523   3.568   3.277  1.0958 -0.1147 -0.0122
15215TIP3   OH267135   6.263   1.831   3.226  0.1842  0.1598 -0.0460
15215TIP3    H167136   6.349   1.857   3.259 -0.0890 -0.0566  0.8273
15215TIP3    H267137   6.274   1.739   3.202  0.3263  0.2637 -0.3935
15216TIP3   OH267138   2.736   4.760   4.970 -0.4599 -0.4121  0.3215
15216TIP3    H167139   2.818   4.806   4.992 -0.6756  1.1128 -1.8729
15216TIP3    H267140   2.669   4.804   5.023 -0.3073  0.3303 -0.0926
15217TIP3   OH267141   0.470   0.245  14.600 -0.2951  0.4386 -0.1513
15217TIP3    H167142   0.541   0.296  14.561 -0.0703  0.7949  0.7217
15217TIP3    H267143   0.392   0.299  14.589 -0.5893 -0.2762 -1.7876
15218TIP3   OH267144   3.794   0.598   0.845  0.7067  0.2795  0.5566
15218TIP3    H167145   3.875   0.641   0.872  1.2888  1.1968 -2.5238
15218TIP3    H267146   3.748   0.664   0.794  0.2660 -1.7797 -1.7761
15219TIP3   OH267147   6.319   2.836  15.464 -0.6716  0.2168 -0.4463
15219TIP3    H167148   6.265   2.799  15.534 -0.0291  1.0201  0.4729
15219TIP3    H267149   6.266   2.909  15.430 -0.4536  0.5882  0.0125
15220TIP3   OH267150   1.484   4.612   3.760  0.1877 -0.1475 -0.5114
15220TIP3    H167151   1.434   4.539   3.723 -0.6159 -0.1747  0.5942
15220TIP3    H267152   1.575   4.581   3.759 -0.0764 -0.9455 -0.5781
15221TIP3   OH267153   2.707   1.512  15.394 -0.0583  0.1243 -0.2031
15221TIP3    H167154   2.792   1.506  15.350  0.0954  0.9812 -0.0203
15221TIP3    H267155   2.729   1.528  15.486 -0.4156 -0.0761 -0.0793
15222TIP3   OH267156   6.464   3.684   1.946  0.4570 -0.3509  0.1887
15222TIP3    H167157   6.511   3.767   1.951  0.9362 -0.7041  1.8925
15222TIP3    H267158   6.532   3.619   1.925 -0.1292 -0.1520 -2.5112
15223TIP3   OH267159   3.267   1.039   3.964  0.1752 -0.1634 -0.1587
15223TIP3    H167160   3.193   0.984   3.990  0.7359 -1.5967 -1.5493
15223TIP3    H267161   3.226   1.116   3.923 -0.5666 -0.1520  0.5772
15224TIP3   OH267162   4.322   1.998  15.679 -0.3504 -0.5961 -0.7323
15224TIP3    H167163   4.235   2.035  15.695 -0.2094 -0.6890  0.2453
15224TIP3    H267164   4.338   1.941  15.754  0.8739  0.0140 -0.5201
15225TIP3   OH267165   0.097   2.720  12.477  0.3288 -0.0544 -0.0524
15225TIP3    H167166   0.004   2.724  12.457  0.4761 -0.8218 -0.8550
15225TIP3    H267167   0.111   2.793  12.538 -1.1274 -0.9926  1.4290
15226TIP3   OH267168   5.585   1.819  11.087 -0.5290 -0.0936  0.5260
15226TIP3    H167169   5.568   1.728  11.060  1.5724 -0.0588 -1.0186
15226TIP3    H267170   5.680   1.824  11.096 -0.4769  2.3699 -1.0354
15227TIP3   OH267171   1.683   6.169  12.838 -0.2749 -0.5182 -0.4609
15227TIP3    H167172   1.720   6.143  12.922  0.2017  2.2261  0.2480
15227TIP3    H267173   1.641   6.254  12.856 -0.1832  0.1112 -2.9752
15228TIP3   OH267174   5.914   6.279   1.613 -0.9246  0.4987 -0.1977
15228TIP3    H167175   5.849   6.312   1.675  0.5376  1.1283  1.0542
15228TIP3    H267176   5.895   6.186   1.604 -1.2162  0.4239  1.1336
15229TIP3   OH267177   4.871   2.005   5.304 -0.4137  0.1108 -0.2527
15229TIP3    H167178   4.796   2.017   5.246 -0.9838  1.6457  0.7505
15229TIP3    H267179   4.835   2.018   5.392  0.9823  0.6824  0.2583
15230TIP3   OH267180   4.420   5.650   4.186 -0.2513 -0.7604 -0.1315
15230TIP3    H167181   4.342   5.598   4.203 -1.5666  0.6523 -1.5891
15230TIP3    H267182   4.487   5.586   4.162 -1.0896 -1.9587  0.6961
15231TIP3   OH267183   1.070   3.111   6.618 -0.3721 -0.3146 -0.6031
15231TIP3    H167184   1.155   3.139   6.649 -0.7504  0.6602 -0.4209
15231TIP3    H267185   1.015   3.106   6.696 -1.4354  2.5497 -1.0872
15232TIP3   OH267186   4.832   5.125  11.666 -0.2365 -0.0993  0.3916
15232TIP3    H167187   4.764   5.191  11.672  0.9282  1.0181  1.8354
15232TIP3    H267188   4.799   5.061  11.603 -1.6584  1.5201 -0.5327
15233TIP3   OH267189   0.453   4.862   2.077  0.0534 -0.2659  0.4434
15233TIP3    H167190   0.428   4.777   2.041 -1.0853  0.0050  0.5811
15233TIP3    H267191   0.391   4.877   2.148  1.1068  0.0657  1.3013
15234TIP3   OH267192   0.119   6.713  14.267  0.4655 -0.3118  0.3437
15234TIP3    H167193   0.065   6.645  14.308  0.1917  0.9874  2.2056
15234TIP3    H267194   0.158   6.760  14.341  1.9343  0.5378 -0.9461
15235TIP3   OH267195   4.165   3.124   5.052 -0.6875  0.3204  0.3073
15235TIP3    H167196   4.147   3.216   5.066 -0.9410  0.2938  0.1497
15235TIP3    H267197   4.094   3.078   5.096 -0.4554  0.1973  0.5509
15236TIP3   OH267198   3.312   2.895   4.276 -0.8133  0.9495 -0.4082
15236TIP3    H167199   3.383   2.831   4.270 -1.0533  0.4275  1.9738
15236TIP3    H267200   3.337   2.963   4.213  1.3503  0.3454 -0.2701
15237TIP3   OH267201   1.815   3.752  15.190  0.6297  0.0310  0.4299
15237TIP3    H167202   1.800   3.677  15.248  2.3071  0.1801  1.0800
15237TIP3    H267203   1.835   3.712  15.105  0.9016 -0.2510  0.6218
15238TIP3   OH267204   6.688   3.596  17.067  0.3748  0.3592 -0.3231
15238TIP3    H167205   6.760   3.644  17.027  1.2907 -0.2217  0.6187
15238TIP3    H267206   6.719   3.506  17.073 -0.4870  0.0765 -0.0441
15239TIP3   OH267207   5.922   6.385  11.407 -0.0318 -0.4334 -0.0619
15239TIP3    H167208   5.956   6.309  11.453 -1.2744 -0.9576 -0.0040
15239TIP3    H267209   5.840   6.407  11.452  0.7808  1.5158  0.5268
15240TIP3   OH267210   2.068   1.329   5.623 -0.0283  0.0269  0.3415
15240TIP3    H167211   2.021   1.303   5.702 -1.6253 -0.2894 -0.6908
15240TIP3    H267212   2.151   1.282   5.629 -1.5170 -2.7486  0.1646
15241TIP3   OH267213   6.032   1.820  16.819 -0.2053  0.1782  0.7193
15241TIP3    H167214   6.012   1.745  16.763  0.3953  0.6200 -0.1080
15241TIP3    H267215   5.968   1.886  16.793 -1.1610 -0.2602  1.9087
15242TIP3   OH267216   2.470   3.052   4.193  0.3310  0.1181  0.1044
15242TIP3    H167217   2.479   3.126   4.132  0.0424  0.6406  0.6812
15242TIP3    H267218   2.433   2.982   4.140 -0.8705  0.8819 -0.1086
15243TIP3   OH267219   6.590   3.462   0.650 -0.3238  0.0545  0.6068
15243TIP3    H167220   6.550   3.538   0.608 -3.0565 -0.6017  1.8612
15243TIP3    H267221   6.595   3.486   0.743  0.4205 -0.6358  0.7528
15244TIP3   OH267222   5.791   1.431   2.789  0.2182  0.0693  0.3257
15244TIP3    H167223   5.754   1.482   2.717  0.6386 -0.5749 -0.3489
15244TIP3    H267224   5.736   1.353   2.794  0.4265 -0.0685  0.4553
15245TIP3   OH267225   4.427   1.863  16.723  0.9035  0.0870 -0.3461
15245TIP3    H167226   4.374   1.942  16.731  0.2870 -0.3978  0.3588
15245TIP3    H267227   4.422   1.821  16.809 -0.9639 -2.1029 -1.4632
15246TIP3   OH267228   6.414   6.203  16.317  0.2470  0.0789 -0.9463
15246TIP3    H167229   6.350   6.236  16.253  0.6812  4.4206  0.6649
15246TIP3    H267230   6.499   6.228  16.281  0.7147 -0.7152 -0.4002
15247TIP3   OH267231   4.204   3.486   0.640 -0.8270  0.0761  0.5140
15247TIP3    H167232   4.140   3.545   0.602  0.8773  0.7489 -1.3785
15247TIP3    H267233   4.195   3.499   0.735 -0.3909  3.5057  0.1538
15248TIP3   OH267234   3.228   2.872  10.116  0.1040  0.2291 -0.0534
15248TIP3    H167235   3.224   2.962  10.150 -0.3460  0.0497  0.3645
15248TIP3    H267236   3.147   2.862  10.067  0.4221  0.2441 -0.5850
15249TIP3   OH267237   1.839   1.106   0.641 -0.4260 -0.3940  0.4405
15249TIP3    H167238   1.757   1.156   0.643 -1.8135 -2.5594 -0.4255
15249TIP3    H267239   1.875   1.122   0.555 -0.4447 -0.2236  0.4637
15250TIP3   OH267240   3.352   0.382  12.261 -0.5543 -0.2536  0.7024
15250TIP3    H167241   3.260   0.361  12.278 -0.6181 -1.9353 -1.5407
15250TIP3    H267242   3.401   0.309  12.301 -0.2081  0.3559  1.4063
15251TIP3   OH267243   1.649   0.849   1.917  0.0538 -0.0613  0.0621
15251TIP3    H167244   1.637   0.793   1.840  0.5021 -0.9686  0.6485
15251TIP3    H267245   1.720   0.808   1.966  1.5394  1.9404 -0.3491
15252TIP3   OH267246   5.856   5.480   4.667  0.0507  0.6678  0.2206
15252TIP3    H167247   5.907   5.486   4.747  0.1762 -0.4788  0.2287
15252TIP3    H267248   5.879   5.559   4.618 -0.3208  1.5644  1.4765
15253TIP3   OH267249   2.075   6.644   6.183 -0.8417  0.3086 -0.4343
15253TIP3    H167250   2.153   6.615   6.230 -0.6488  2.0890  0.4038
15253TIP3    H267251   2.003   6.627   6.244 -0.8080  0.8857 -0.2251
15254TIP3   OH267252   1.938   1.900   4.822  0.2209  0.1211 -0.1922
15254TIP3    H167253   1.874   1.968   4.842 -0.2917 -0.6149  0.6901
15254TIP3    H267254   1.959   1.914   4.729  1.2882  2.4346  0.3506
15255TIP3   OH267255   2.938   4.323  14.538  0.4382  0.2127  0.4902
15255TIP3    H167256   2.877   4.388  14.575  1.3259  1.6741 -0.5348
15255TIP3    H267257   2.980   4.283  14.614 -0.8934  0.0791  1.1728
15256TIP3   OH267258   3.124   1.632   2.071  0.6020  0.2709  0.0035
15256TIP3    H167259   3.080   1.571   2.130 -1.0877 -0.5612 -2.0229
15256TIP3    H267260   3.188   1.579   2.024 -0.6430  0.0742 -1.5274
15257TIP3   OH267261   1.435   1.196  12.431 -0.2272  0.4242 -0.2619
15257TIP3    H167262   1.463   1.279  12.393  0.6944 -0.1821 -0.9275
15257TIP3    H267263   1.387   1.152  12.361  1.1970 -0.5544 -0.6509
15258TIP3   OH267264   1.478   3.428  14.128 -0.5923  0.1774 -0.0968
15258TIP3    H167265   1.435   3.432  14.213 -0.8837 -2.2199 -0.1143
15258TIP3    H267266   1.443   3.503  14.080 -1.3027  0.8702  1.4619
15259TIP3   OH267267   1.857   5.703   2.035  0.9146  0.2536 -0.0222
15259TIP3    H167268   1.866   5.635   1.968  0.4969  1.9546 -1.8379
15259TIP3    H267269   1.874   5.785   1.989  2.1063  1.3572  2.2880
15260TIP3   OH267270   4.639   4.233   2.883 -0.0341  0.3586 -0.2901
15260TIP3    H167271   4.590   4.228   2.965 -0.4800  0.8332 -0.5242
15260TIP3    H267272   4.731   4.242   2.910 -0.0236 -0.9244  0.1512
15261TIP3   OH267273   5.136   3.044   6.229  0.0752 -0.1534  0.4661
15261TIP3    H167274   5.041   3.030   6.226  0.2785 -1.3658 -1.0521
15261TIP3    H267275   5.160   3.026   6.320 -1.0370 -0.6373  0.6714
15262TIP3   OH267276   1.684   4.875   5.986 -0.2110  0.5117 -0.2171
15262TIP3    H167277   1.595   4.844   5.970  0.6249 -1.4470 -1.2099
15262TIP3    H267278   1.678   4.928   6.065 -1.9776 -0.8263  0.5458
15263TIP3   OH267279   0.427   3.936  11.685 -0.2479 -0.3014  0.1494
15263TIP3    H167280   0.445   3.845  11.708 -0.0532 -0.4081 -0.3951
15263TIP3    H267281   0.499   3.959  11.625 -0.5281  0.0757 -0.0428
15264TIP3   OH267282   2.348   4.110  13.312  0.8344 -0.1785 -0.7442
15264TIP3    H167283   2.278   4.163  13.275  2.4514  2.9875  0.5137
15264TIP3    H267284   2.407   4.093  13.239  1.2159  1.3297 -0.7948
15265TIP3   OH267285   0.670   0.767   5.207 -0.0285  0.0627  0.1200
15265TIP3    H167286   0.652   0.710   5.281 -0.8383 -1.1671 -1.0083
15265TIP3    H267287   0.728   0.716   5.151 -1.6519 -0.1073 -1.4499
15266TIP3   OH267288   6.695   4.668   3.717 -0.2700  0.5748 -0.0806
15266TIP3    H167289   6.661   4.708   3.636  0.8316  0.0684 -0.7951
15266TIP3    H267290   6.628   4.605   3.742 -1.8277  2.5271  0.8128
15267TIP3   OH267291   4.391   4.830  10.804 -0.2996 -0.0760  0.7571
15267TIP3    H167292   4.336   4.778  10.864  1.0967 -1.0658  1.2036
15267TIP3    H267293   4.414   4.908  10.854 -2.0082  0.7719  0.2570
15268TIP3   OH267294   3.791   1.884  11.665  0.4391 -0.1741 -0.5171
15268TIP3    H167295   3.844   1.814  11.629  1.5374 -0.4678  1.5700
15268TIP3    H267296   3.708   1.842  11.687  1.2078 -0.9202  1.0277
15269TIP3   OH267297   0.874   1.507   0.676  1.0210  0.0787  0.1891
15269TIP3    H167298   0.948   1.464   0.718 -0.1790  1.2217  3.6500
15269TIP3    H267299   0.826   1.436   0.634  0.9235 -1.5137  2.8787
15270TIP3   OH267300   1.478   1.049   0.529  0.0637  0.0070 -0.2200
15270TIP3    H167301   1.399   1.032   0.477 -0.9511  2.2359  0.5242
15270TIP3    H267302   1.542   1.080   0.465 -0.2786  0.0698 -0.5382
15271TIP3   OH267303   3.756   3.520  13.993 -0.2933 -0.3375  0.2188
15271TIP3    H167304   3.807   3.478  13.924  0.2911 -0.6297  0.8277
15271TIP3    H267305   3.760   3.613  13.973  1.7743 -0.2054  1.1261
15272TIP3   OH267306   3.395   0.032   1.572  0.1695  0.0497 -0.0734
15272TIP3    H167307   3.440  -0.003   1.494 -1.0208  1.4402 -1.3947
15272TIP3    H267308   3.328  -0.033   1.592 -0.8399  0.6594 -1.4314
15273TIP3   OH267309   1.125   1.825   5.798 -0.0436 -0.0607 -0.5866
15273TIP3    H167310   1.201   1.768   5.791 -0.2071 -0.2632 -0.7243
15273TIP3    H267311   1.161   1.913   5.798  0.3065 -0.1868  0.9715
15274TIP3   OH267312   4.777   0.273  15.648  0.3084  0.0393 -0.5355
15274TIP3    H167313   4.699   0.217  15.642  0.5297 -0.3536  0.2707
15274TIP3    H267314   4.741   0.362  15.653 -0.1515 -0.2250  1.2397
15275TIP3   OH267315   4.131   6.809  11.570 -0.3614  0.5023  0.5529
15275TIP3    H167316   4.069   6.736  11.570 -1.1277  1.1456  0.7357
15275TIP3    H267317   4.172   6.806  11.483 -0.1107 -0.3789  0.7057
15276TIP3   OH267318   0.587   2.198   2.043 -0.1036  0.3017  0.6526
15276TIP3    H167319   0.541   2.277   2.015  0.4737  0.4765  0.1897
15276TIP3    H267320   0.665   2.195   1.988 -0.7182 -1.2491 -0.1860
15277TIP3   OH267321   2.082   3.916   1.086  0.0246  0.0526  0.2684
15277TIP3    H167322   2.006   3.888   1.137 -1.2826  0.4259 -1.4213
15277TIP3    H267323   2.083   3.857   1.010  0.9862  0.5234 -0.0992
15278TIP3   OH267324   6.661   5.623  14.292  0.3892 -0.3456 -0.0780
15278TIP3    H167325   6.714   5.641  14.369  0.5597  2.0426 -0.7197
15278TIP3    H267326   6.724   5.597  14.225  0.1534 -3.4929  0.8110
15279TIP3   OH267327   2.147   3.572   5.651 -0.8858  0.0492  0.1900
15279TIP3    H167328   2.179   3.574   5.561  1.1554  0.6669  0.8953
15279TIP3    H267329   2.080   3.504   5.652 -1.1144  0.2194 -1.8431
15280TIP3   OH267330   5.353   0.881  16.259  0.0479 -0.5115 -0.7874
15280TIP3    H167331   5.308   0.829  16.326 -0.3695 -1.7537 -2.0011
15280TIP3    H267332   5.390   0.955  16.307  0.0272 -1.5431  0.8585
15281TIP3   OH267333   5.234   3.571   2.370 -0.4783  0.2007  0.4225
15281TIP3    H167334   5.142   3.557   2.348 -1.1987  0.5397  3.0337
15281TIP3    H267335   5.234   3.652   2.422  1.0077 -0.8637  2.1279
15282TIP3   OH267336   5.018   4.009  11.514  0.6739  0.2345 -0.3746
15282TIP3    H167337   5.045   3.918  11.508  1.2909  0.4038 -0.1712
15282TIP3    H267338   5.090   4.059  11.474  0.6008  0.6744  0.0349
15283TIP3   OH267339   1.253   1.118   3.734  0.1287 -0.4401 -0.1479
15283TIP3    H167340   1.172   1.082   3.771 -1.1840  1.2181 -1.3648
15283TIP3    H267341   1.248   1.212   3.750  1.5548 -0.2401 -0.7574
15284TIP3   OH267342   0.621   0.579   3.636  0.5001  0.3848  0.1589
15284TIP3    H167343   0.569   0.557   3.714  0.6426  0.4757  0.2807
15284TIP3    H267344   0.710   0.589   3.669  0.5943  0.2302 -0.0510
15285TIP3   OH267345   5.871   6.439   0.250  0.1614  0.2209  0.5682
15285TIP3    H167346   5.866   6.344   0.264 -0.5728  0.2609  0.5949
15285TIP3    H267347   5.891   6.475   0.337  1.8836 -0.0066  0.2952
15286TIP3   OH267348   4.397   5.821  12.305  0.2693  0.8785  0.0888
15286TIP3    H167349   4.343   5.887  12.349  1.4830  0.3470  2.4599
15286TIP3    H267350   4.334   5.754  12.278 -0.8445  2.5024 -1.4800
15287TIP3   OH267351   4.105   1.985   1.543 -0.0537  0.4146  1.1075
15287TIP3    H167352   4.135   1.896   1.524 -1.1648  0.0328  1.0671
15287TIP3    H267353   4.171   2.042   1.506  0.0155 -0.3882 -0.0076
15288TIP3   OH267354   3.633   3.333   3.287 -0.6002  0.0542 -0.1001
15288TIP3    H167355   3.555   3.301   3.332 -1.3975  0.3076 -1.2756
15288TIP3    H267356   3.639   3.426   3.312 -1.8195  0.5519 -1.5455
15289TIP3   OH267357   0.343   0.841   4.659  0.1826 -0.0336  0.6414
15289TIP3    H167358   0.330   0.748   4.679 -1.4312 -0.0063 -0.1935
15289TIP3    H267359   0.256   0.873   4.637  0.8570  1.5044  0.1533
15290TIP3   OH267360   2.810   4.166  10.983 -0.0607 -0.3525 -0.0247
15290TIP3    H167361   2.866   4.109  11.036 -1.6441 -1.8319  0.0737
15290TIP3    H267362   2.855   4.172  10.899  0.5761 -0.9778  0.2647
15291TIP3   OH267363   5.337   1.503  15.819 -0.2500  0.2273 -0.2904
15291TIP3    H167364   5.416   1.452  15.835  0.5677  2.0224  1.5150
15291TIP3    H267365   5.366   1.594  15.819 -2.1502  0.8545 -0.5435
15292TIP3   OH267366   1.007   5.458   2.930 -0.0716 -0.4660  0.3604
15292TIP3    H167367   1.013   5.365   2.905  0.8312 -1.1310  2.9396
15292TIP3    H267368   0.913   5.474   2.939 -0.2933 -0.8276 -1.1113
15293TIP3   OH267369   1.023   1.729  16.037  0.4632  0.7276  0.0296
15293TIP3    H167370   0.998   1.690  15.954  0.7109  2.1280 -0.7230
15293TIP3    H267371   1.114   1.701  16.051  0.3000  0.1940  0.0150
15294TIP3   OH267372   0.773   0.268   5.666 -0.5400  0.5954 -0.9136
15294TIP3    H167373   0.811   0.204   5.606  1.1237  1.0670 -0.3864
15294TIP3    H267374   0.790   0.353   5.625 -1.5972  0.7826 -0.9807
15295TIP3   OH267375   4.878   0.905  16.267 -0.4624 -0.0378  0.0642
15295TIP3    H167376   4.840   0.829  16.313  1.1144 -1.3398 -0.7247
15295TIP3    H267377   4.833   0.907  16.183 -1.3411  0.6318  0.5401
15296TIP3   OH267378   2.459   4.714  14.223  0.1107 -0.6508  0.1005
15296TIP3    H167379   2.510   4.657  14.167  1.6324  1.1103 -0.3533
15296TIP3    H267380   2.493   4.699  14.311  0.1048 -0.8872  0.0612
15297TIP3   OH267381   3.992   2.073   0.620 -0.1533 -0.2295 -0.5148
15297TIP3    H167382   3.975   2.093   0.528  1.0310  0.7485 -0.5396
15297TIP3    H267383   3.935   2.132   0.669 -1.2812 -1.2266 -0.6233
15298TIP3   OH267384   6.352   0.909   0.156 -0.1643  0.0276 -0.3501
15298TIP3    H167385   6.385   0.845   0.218 -1.1607 -2.2769 -2.1405
15298TIP3    H267386   6.429   0.959   0.130  0.6479 -0.5480  0.9165
15299TIP3   OH267387   5.054   6.114   4.858 -0.4434 -0.9852  0.2064
15299TIP3    H167388   4.960   6.096   4.853 -0.5634 -0.5392  0.7425
15299TIP3    H267389   5.062   6.176   4.931  0.1791 -0.4133 -0.3469
15300TIP3   OH267390   1.173   6.534   4.182 -0.3119  0.0056 -0.5933
15300TIP3    H167391   1.245   6.483   4.218 -0.3167  0.1973 -0.3112
15300TIP3    H267392   1.163   6.501   4.092 -1.0539 -1.2746 -0.0477
15301TIP3   OH267393   0.958   2.041  13.770 -0.1901 -0.1309 -0.0278
15301TIP3    H167394   0.880   2.034  13.716  0.4853  0.3251 -1.0694
15301TIP3    H267395   0.943   2.119  13.824 -1.2055 -1.0366  1.0212
15302TIP3   OH267396   6.794   5.114  15.126 -0.0051  0.2112 -0.0282
15302TIP3    H167397   6.751   5.040  15.084 -0.7615  0.2601  0.6573
15302TIP3    H267398   6.724   5.162  15.169  0.7549  0.1070  1.3747
15303TIP3   OH267399   3.119   3.293   5.983 -0.1221 -0.5950  0.7124
15303TIP3    H167400   3.102   3.382   6.014  0.7894 -0.0301 -0.3699
15303TIP3    H267401   3.136   3.302   5.889 -0.1840 -1.9279  0.5553
15304TIP3   OH267402   0.709   0.544  16.876  0.2730  0.1981 -0.0624
15304TIP3    H167403   0.733   0.519  16.965 -0.7303  1.0407  0.4394
15304TIP3    H267404   0.705   0.460  16.828 -1.0500 -0.4310  1.1235
15305TIP3   OH267405   6.449   4.144   5.330  0.5269  0.3410  0.2094
15305TIP3    H167406   6.386   4.212   5.354  1.4925  1.2875  0.0917
15305TIP3    H267407   6.418   4.066   5.375  0.3048  1.2405  1.6298
15306TIP3   OH267408   2.246   3.308  15.192 -0.0436  0.1887  0.1473
15306TIP3    H167409   2.233   3.400  15.172 -0.3092  0.1702  0.2274
15306TIP3    H267410   2.283   3.307  15.280 -0.7147  0.1904  0.4311
15307TIP3   OH267411   6.754   0.371  13.657  0.3604  0.2976  0.2633
15307TIP3    H167412   6.780   0.446  13.603  2.0373  0.7831  1.7282
15307TIP3    H267413   6.702   0.409  13.728  2.2528  0.2292  1.6986
15308TIP3   OH267414   6.689   3.794  13.818 -0.4983  0.4260  0.4712
15308TIP3    H167415   6.779   3.827  13.816 -0.2698 -0.0654  1.8396
15308TIP3    H267416   6.688   3.735  13.893 -2.0487  0.6835  0.6556
15309TIP3   OH267417   5.859   1.925   3.476  0.0484 -0.6532  0.5116
15309TIP3    H167418   5.900   1.953   3.557 -1.6366  0.0556  1.1397
15309TIP3    H267419   5.912   1.850   3.447  0.2610 -1.3628  2.6258
15310TIP3   OH267420   4.275   6.620  16.620  0.3327  0.2773 -0.1370
15310TIP3    H167421   4.255   6.643  16.529 -0.4011  0.9282  0.1850
15310TIP3    H267422   4.248   6.528  16.628 -1.8923  0.9271  0.0866
15311TIP3   OH267423   0.950   6.283  11.208  0.1090 -0.0206 -0.4818
15311TIP3    H167424   1.004   6.287  11.129  0.8455 -0.2784  0.0057
15311TIP3    H267425   0.923   6.374  11.224  0.0598  0.0491 -0.9590
15312TIP3   OH267426   6.547   2.627  10.241  0.2785  0.0705  0.2991
15312TIP3    H167427   6.626   2.638  10.293  0.0164  0.3119  0.6501
15312TIP3    H267428   6.539   2.532  10.229  0.5850  0.0429  0.3151
15313TIP3   OH267429   3.056   6.756  17.014  0.1874 -0.5187 -0.1097
15313TIP3    H167430   3.104   6.707  16.946  0.0412  0.4264 -0.8957
15313TIP3    H267431   3.077   6.709  17.095 -0.1329 -2.0397 -0.8759
15314TIP3   OH267432   1.297   3.110  15.326 -0.2166 -0.8290 -0.0023
15314TIP3    H167433   1.291   3.176  15.395  0.3710 -1.3075  0.5155
15314TIP3    H267434   1.214   3.062  15.331 -0.7757  0.0609 -0.5895
15315TIP3   OH267435   2.421   3.699   6.078 -0.2200 -0.1283 -0.2050
15315TIP3    H167436   2.384   3.689   6.166  0.2935 -0.0130  0.0270
15315TIP3    H267437   2.380   3.629   6.027 -1.1088  0.2869 -0.0739
15316TIP3   OH267438   1.470   4.192  15.207  0.1003  0.0804 -0.1565
15316TIP3    H167439   1.534   4.249  15.165  0.4820 -0.9904 -1.0572
15316TIP3    H267440   1.503   4.104  15.192 -1.2123 -0.4459  0.0105
15317TIP3   OH267441   0.309   6.103   1.839 -0.7459 -0.1058  0.2102
15317TIP3    H167442   0.317   6.155   1.918 -2.7473 -0.7131  0.8414
15317TIP3    H267443   0.297   6.167   1.769  1.5980  0.4576  0.2849
15318TIP3   OH267444   2.181   1.078   4.084 -0.3203  0.2264 -0.0498
15318TIP3    H167445   2.182   0.983   4.092  0.5946  0.3312  1.2756
15318TIP3    H267446   2.130   1.108   4.159  2.2047  0.9097  1.4514
15319TIP3   OH267447   2.642   3.781   1.253  0.8432  0.1751 -0.0380
15319TIP3    H167448   2.625   3.869   1.221 -1.6052 -0.1047  0.3780
15319TIP3    H267449   2.557   3.738   1.251  2.2594 -2.6733 -1.6681
15320TIP3   OH267450   6.695   0.667  10.693  0.1787 -0.0800 -0.3728
15320TIP3    H167451   6.704   0.762  10.699 -1.3365  0.0353  0.2836
15320TIP3    H267452   6.776   0.638  10.650  0.9543  1.4277  0.0298
15321TIP3   OH267453   0.133   4.239   0.435  0.1299 -0.3828 -0.4534
15321TIP3    H167454   0.162   4.305   0.498 -2.1725 -0.1612  0.4091
15321TIP3    H267455   0.125   4.159   0.487  1.0343 -0.9083 -1.0996
15322TIP3   OH267456   0.268   2.556   1.830  0.1943 -0.3036  0.3075
15322TIP3    H167457   0.192   2.498   1.841  0.4056 -0.9818 -1.6626
15322TIP3    H267458   0.343   2.499   1.845  0.4409 -0.8627 -2.8159
15323TIP3   OH267459   4.184   3.899  11.729  0.7639 -0.3376 -0.5229
15323TIP3    H167460   4.218   3.930  11.813 -0.8450  0.1158 -0.0303
15323TIP3    H267461   4.193   3.804  11.733 -0.4977 -0.4221  0.6969
15324TIP3   OH267462   6.537   2.141  14.696  0.2682 -0.1693  1.0059
15324TIP3    H167463   6.541   2.173  14.605 -0.3160 -0.8346  0.7326
15324TIP3    H267464   6.560   2.217  14.749  2.4300 -0.2575  0.2290
15325TIP3   OH267465   6.175   4.169   1.257 -0.3902 -0.1271 -0.6313
15325TIP3    H167466   6.187   4.257   1.222  0.0855  0.2842  0.5457
15325TIP3    H267467   6.264   4.134   1.267 -0.5738 -0.7135 -1.0200
15326TIP3   OH267468   0.152   2.425  11.533  0.3688  0.4857  0.5141
15326TIP3    H167469   0.214   2.449  11.602  0.2671  1.2460  0.3420
15326TIP3    H267470   0.078   2.387  11.581  1.3415 -1.2631  0.6577
15327TIP3   OH267471   5.438   2.618   2.419 -0.1654  0.0030  0.0787
15327TIP3    H167472   5.365   2.670   2.385 -0.9002 -0.9377  0.2364
15327TIP3    H267473   5.432   2.626   2.514  0.1659  0.2195  0.0862
15328TIP3   OH267474   2.642   0.271   3.036  0.3435  0.0896 -0.6754
15328TIP3    H167475   2.555   0.302   3.010 -0.2556 -1.8717 -1.0726
15328TIP3    H267476   2.634   0.176   3.039  1.4889  0.0104  2.8131
15329TIP3   OH267477   5.481   1.527  14.537  0.1183  0.3026  0.5396
15329TIP3    H167478   5.424   1.560  14.607 -0.8016 -1.5224  0.6663
15329TIP3    H267479   5.472   1.592  14.467 -1.6968  0.3311  0.7729
15330TIP3   OH267480   0.383   5.203  13.653 -0.0889 -0.0869 -0.3266
15330TIP3    H167481   0.462   5.167  13.694 -0.1533  0.3935  0.2217
15330TIP3    H267482   0.417   5.260  13.584  0.0383 -0.1567 -0.3227
15331TIP3   OH267483   6.503   6.301   3.933 -0.3729 -0.1626  0.2284
15331TIP3    H167484   6.477   6.359   4.005  0.0476  0.6416 -0.2516
15331TIP3    H267485   6.527   6.219   3.975 -1.4841 -0.1610  0.8789
15332TIP3   OH267486   0.006   3.047   3.506  0.6142 -1.2054 -0.5585
15332TIP3    H167487   0.038   3.046   3.596 -1.8192  2.9983  0.4647
15332TIP3    H267488  -0.089   3.034   3.515 -0.0692  2.1924 -2.1932
15333TIP3   OH267489   4.922   0.478  16.146  0.3990  0.1605 -0.5160
15333TIP3    H167490   4.990   0.528  16.100  0.4453  1.2003  0.6511
15333TIP3    H267491   4.840   0.507  16.107  0.5745 -0.6324 -1.4953
15334TIP3   OH267492   2.523   0.935  15.153  0.0382 -0.1354  0.3550
15334TIP3    H167493   2.523   0.874  15.079  2.1267 -0.5397  0.6454
15334TIP3    H267494   2.527   0.878  15.230 -0.3556  0.3189  0.7109
15335TIP3   OH267495   6.274   1.147   5.866 -0.4356 -0.5198  0.0529
15335TIP3    H167496   6.290   1.152   5.961  1.1243  1.2805 -0.2838
15335TIP3    H267497   6.213   1.219   5.849 -1.6774 -1.5983 -0.1438
15336TIP3   OH267498   1.336   0.711  13.183 -0.3443  0.4659 -0.1796
15336TIP3    H167499   1.333   0.662  13.265 -0.7145  1.3641  0.3613
15336TIP3    H267500   1.297   0.796  13.205  0.3516  1.0252 -1.0683
15337TIP3   OH267501   2.707   4.988  14.325  0.4364 -0.0534  0.3695
15337TIP3    H167502   2.755   5.070  14.334 -0.5771  0.7339 -1.2958
15337TIP3    H267503   2.761   4.924  14.372  0.9945  1.6292  2.0960
15338TIP3   OH267504   0.556   1.318  14.122 -0.5389 -0.5738 -0.1976
15338TIP3    H167505   0.521   1.229  14.117 -0.6486 -0.5596  0.2655
15338TIP3    H267506   0.641   1.307  14.166 -0.2517 -0.5295 -0.7348
15339TIP3   OH267507   4.279   0.434  13.920  0.1994  0.3850 -0.4940
15339TIP3    H167508   4.301   0.472  14.005  0.6335  0.7452 -0.7678
15339TIP3    H267509   4.211   0.369  13.940 -0.0102  0.7730  0.0705
15340TIP3   OH267510   3.537   3.467   4.289 -0.4659 -0.0628  0.5091
15340TIP3    H167511   3.496   3.528   4.350  1.4735  2.1889 -0.3743
15340TIP3    H267512   3.604   3.518   4.244  1.0324 -2.7776 -0.4862
15341TIP3   OH267513   5.086   3.566  11.709  0.5483  0.1220  0.1830
15341TIP3    H167514   5.067   3.475  11.686  0.2005  0.1150  0.4956
15341TIP3    H267515   5.167   3.562  11.760  0.0256 -0.1202  1.0148
15342TIP3   OH267516   4.936   1.310   1.413  0.3110 -0.2586 -0.4069
15342TIP3    H167517   4.868   1.243   1.423 -0.2042  0.3492  0.2301
15342TIP3    H267518   4.954   1.312   1.320 -1.7612  0.7381 -0.8288
15343TIP3   OH267519   2.945   0.800   5.480  0.0905  0.2836  0.3418
15343TIP3    H167520   2.942   0.871   5.544 -0.4651 -0.7732  1.4990
15343TIP3    H267521   3.017   0.823   5.422  1.9103  0.2640  2.5231
15344TIP3   OH267522   2.671   6.198   0.683  0.3957  0.0439  0.2973
15344TIP3    H167523   2.724   6.226   0.608  0.3781 -0.6044  0.0395
15344TIP3    H267524   2.722   6.226   0.759 -0.8072  3.0505  0.0884
15345TIP3   OH267525   2.242   5.930  11.639 -0.3507 -0.1580 -0.5052
15345TIP3    H167526   2.249   5.835  11.643  0.4839 -0.0404  1.5531
15345TIP3    H267527   2.153   5.949  11.669 -0.3181 -0.2599 -0.3445
15346TIP3   OH267528   3.989   1.121   3.052 -0.4456  0.0443  0.2437
15346TIP3    H167529   3.928   1.183   3.011 -0.5286 -0.3151 -0.1773
15346TIP3    H267530   3.932   1.058   3.096 -0.4675 -1.7363 -2.2220
15347TIP3   OH267531   4.373   6.394   2.498  0.1319  0.6302  0.4851
15347TIP3    H167532   4.350   6.429   2.412  1.8431  0.3346 -0.1173
15347TIP3    H267533   4.382   6.471   2.554  0.1555  0.9015  0.1054
15348TIP3   OH267534   2.302   4.662   0.872  0.1232  0.5980 -0.5653
15348TIP3    H167535   2.371   4.723   0.845 -0.1573  1.0951 -0.1934
15348TIP3    H267536   2.310   4.588   0.813  4.1110 -1.5897  2.4576
15349TIP3   OH267537   4.659   1.370  11.750 -0.0672  0.6929 -0.2560
15349TIP3    H167538   4.678   1.460  11.724 -1.2208  1.0491  0.1473
15349TIP3    H267539   4.683   1.365  11.842  0.3946  0.4643 -0.3842
15350TIP3   OH267540   0.437   1.007  15.094 -0.0436  0.3059  0.4562
15350TIP3    H167541   0.409   1.045  15.010 -0.0124 -0.9546 -0.1341
15350TIP3    H267542   0.357   0.969  15.131  0.3054 -0.7834  0.1134
15351TIP3   OH267543   5.788   2.295   2.208 -0.3254  0.2413 -0.0495
15351TIP3    H167544   5.850   2.239   2.255  0.8557 -0.1681 -2.0688
15351TIP3    H267545   5.733   2.333   2.277  0.6253 -1.2591  1.5621
15352TIP3   OH267546   2.565   2.477   1.100  0.4238  0.3488 -0.4384
15352TIP3    H167547   2.478   2.505   1.072 -0.1031  1.1287  1.8340
15352TIP3    H267548   2.550   2.428   1.181  2.1896  1.6827  0.7495
15353TIP3   OH267549   2.932   6.793  11.418 -0.9916 -0.4708 -0.5894
15353TIP3    H167550   2.913   6.755  11.504 -2.1583  2.1220  0.3582
15353TIP3    H267551   2.850   6.787  11.370 -0.6746 -0.7961 -1.1027
15354TIP3   OH267552   2.522   5.684   5.473  0.0174 -0.1355  0.1686
15354TIP3    H167553   2.558   5.684   5.384 -0.0571 -1.6153  0.1216
15354TIP3    H267554   2.451   5.749   5.470 -1.2276 -1.5116 -1.3863
15355TIP3   OH267555   0.303   5.943  14.005 -0.3177 -0.5732  0.1527
15355TIP3    H167556   0.225   5.904  13.964  0.5619 -1.2596 -0.8886
15355TIP3    H267557   0.361   5.963  13.932  1.1066 -1.4390  1.0133
15356TIP3   OH267558   1.061   0.102  12.592  0.5261 -0.1371  0.5543
15356TIP3    H167559   1.149   0.139  12.585  0.4580 -0.2235 -0.8408
15356TIP3    H267560   1.004   0.178  12.606  0.5495  0.1677 -0.9352
15357TIP3   OH267561   6.405   5.992   5.931  0.8700 -0.8596  0.1418
15357TIP3    H167562   6.336   5.966   5.991  1.0395 -1.0616  0.2499
15357TIP3    H267563   6.458   5.913   5.919  1.0844 -0.7048  0.0643
15358TIP3   OH267564   1.758   3.007  11.702  0.1459 -0.2174  0.2540
15358TIP3    H167565   1.690   2.941  11.684  1.8166 -1.9886  0.3285
15358TIP3    H267566   1.837   2.972  11.660  1.1947  1.4948  0.7628
15359TIP3   OH267567   4.838   5.346   2.568 -0.1037 -0.0514  0.4577
15359TIP3    H167568   4.927   5.313   2.558  0.1072  0.2461  1.3530
15359TIP3    H267569   4.800   5.338   2.480  1.2373  1.0893 -0.2498
15360TIP3   OH267570   0.216   3.221  16.584  0.7788  0.1259 -0.1193
15360TIP3    H167571   0.230   3.311  16.552 -0.3640  0.2119 -0.4065
15360TIP3    H267572   0.260   3.219  16.669  1.9805  0.5472 -0.7126
15361TIP3   OH267573   6.572   6.552  16.947  0.0034  0.3917 -0.5888
15361TIP3    H167574   6.605   6.630  16.990 -3.3704  1.5940 -0.0656
15361TIP3    H267575   6.523   6.584  16.871  0.3846 -1.3492 -1.6168
15362TIP3   OH267576   5.936   1.100  16.449  0.2696  0.3822  0.9474
15362TIP3    H167577   6.019   1.071  16.485  1.6147  0.3277 -2.0065
15362TIP3    H267578   5.960   1.151  16.371 -2.4362  0.7827  0.3158
15363TIP3   OH267579   4.593   0.758   6.187  0.3777 -0.2642  0.6444
15363TIP3    H167580   4.524   0.820   6.212  1.5524  0.6277  1.7896
15363TIP3    H267581   4.608   0.706   6.267  1.8050  0.3187  0.7723
15364TIP3   OH267582   1.972   4.782  14.479  0.1690  0.0314  0.1117
15364TIP3    H167583   2.059   4.756  14.510  0.4989 -1.5148 -2.0479
15364TIP3    H267584   1.978   4.777  14.384 -2.1978  0.2496 -0.0746
15365TIP3   OH267585   5.186   2.463   2.903  0.2153 -0.1070 -0.6243
15365TIP3    H167586   5.118   2.397   2.916  1.6923 -1.2411  1.4355
15365TIP3    H267587   5.229   2.471   2.987 -1.0139  4.7611 -0.2485
15366TIP3   OH267588   2.645   5.635   2.902 -0.1101  0.0676  0.5173
15366TIP3    H167589   2.705   5.561   2.914  0.3873  0.4404  0.3492
15366TIP3    H267590   2.564   5.595   2.871 -0.2701 -0.5466  1.6942
15367TIP3   OH267591   1.894   2.801   1.590  0.8371  0.3805 -0.4100
15367TIP3    H167592   1.822   2.861   1.608  0.1828 -0.7901  0.9281
15367TIP3    H267593   1.972   2.848   1.619  0.2282  0.2153  1.5872
15368TIP3   OH267594   0.287   1.283   4.943 -0.3494 -0.1874  0.2941
15368TIP3    H167595   0.339   1.215   4.901 -0.0746 -0.2578  0.7357
15368TIP3    H267596   0.281   1.353   4.879  1.2037  0.2647  0.6214
15369TIP3   OH267597   6.140   5.745  16.703  0.3264  0.1557 -0.5476
15369TIP3    H167598   6.091   5.730  16.622  2.1893 -2.0121 -1.3355
15369TIP3    H267599   6.087   5.704  16.771  0.6492 -1.5586 -1.2864
15370TIP3   OH267600   0.777   5.666  12.697  0.0063 -0.1982  0.1965
15370TIP3    H167601   0.794   5.733  12.764  2.9660 -0.1071 -0.5637
15370TIP3    H267602   0.695   5.625  12.724  0.6589  0.4507  3.3991
15371TIP3   OH267603   4.858   3.826  15.913 -0.6370 -0.2937 -0.5975
15371TIP3    H167604   4.786   3.887  15.929 -0.2508  0.3778 -1.3847
15371TIP3    H267605   4.888   3.846  15.825  1.1222  0.0883  0.0636
15372TIP3   OH267606   6.237   0.796   3.343  0.0328 -0.9468  0.4281
15372TIP3    H167607   6.148   0.826   3.325 -0.0794 -1.5203  0.0049
15372TIP3    H267608   6.293   0.860   3.300 -0.2233 -1.9308 -1.3819
15373TIP3   OH267609   2.233   4.431  14.466  0.6293  0.0381  0.0694
15373TIP3    H167610   2.296   4.360  14.478 -0.1012 -0.7105 -0.4836
15373TIP3    H267611   2.216   4.432  14.371 -0.7836 -0.2894  0.3107
15374TIP3   OH267612   4.679   3.966   4.950  0.2549 -0.2459 -0.2461
15374TIP3    H167613   4.705   4.046   4.997 -0.1569  0.8352 -1.8069
15374TIP3    H267614   4.761   3.920   4.934  0.3980 -0.6466  1.5432
15375TIP3   OH267615   6.555   0.209  13.533  0.2621 -0.4456 -0.0222
15375TIP3    H167616   6.623   0.254  13.584 -1.4278  2.3175 -0.0525
15375TIP3    H267617   6.556   0.253  13.448  0.2162 -2.1790 -0.9285
15376TIP3   OH267618   4.928   3.641  10.769  0.3890 -0.3201 -0.2092
15376TIP3    H167619   4.889   3.713  10.719 -0.6399 -0.1776  0.7890
15376TIP3    H267620   5.007   3.678  10.807 -0.1352  0.2867  0.2936
15377TIP3   OH267621   1.868   3.503   5.792 -0.2726  0.1188  0.1927
15377TIP3    H167622   1.837   3.575   5.737  3.0787  1.4060 -0.1469
15377TIP3    H267623   1.885   3.432   5.730  2.2417  1.1262 -0.3141
15378TIP3   OH267624   4.417   4.896   4.717  0.1704  0.2941 -0.2707
15378TIP3    H167625   4.441   4.816   4.763 -1.3454  1.2283  2.2772
15378TIP3    H267626   4.360   4.867   4.646  1.0272 -1.0112 -0.4425
15379TIP3   OH267627   5.943   2.166  15.093 -0.2874 -0.4766  0.4332
15379TIP3    H167628   6.001   2.090  15.092 -0.2309 -0.5217  3.0450
15379TIP3    H267629   5.998   2.239  15.063  0.1864 -1.0930 -0.2174
15380TIP3   OH267630   0.652   2.204   2.709 -0.1616 -0.5153  0.7999
15380TIP3    H167631   0.657   2.252   2.626  0.3107 -0.3181  0.9430
15380TIP3    H267632   0.560   2.211   2.735 -0.3430 -0.7091  0.2158
15381TIP3   OH267633   4.789   2.220  12.356 -0.0631 -0.3050 -0.3786
15381TIP3    H167634   4.746   2.202  12.440  1.8252  0.7260  0.8540
15381TIP3    H267635   4.825   2.136  12.328  0.9876 -0.2549  0.8224
15382TIP3   OH267636   5.414   5.838  13.496 -0.6690  0.4684  0.0983
15382TIP3    H167637   5.414   5.776  13.569 -1.2768  1.7191  1.1936
15382TIP3    H267638   5.467   5.911  13.527  1.7089 -0.3467 -1.9461
15383TIP3   OH267639   5.869   4.210   3.235  0.0932 -0.7181  0.5326
15383TIP3    H167640   5.817   4.288   3.216 -1.2294 -1.5614  0.5978
15383TIP3    H267641   5.806   4.138   3.231  1.7695 -2.1371 -2.2103
15384TIP3   OH267642   0.522   6.361   3.657 -0.2809  0.2524  0.1635
15384TIP3    H167643   0.467   6.283   3.668  0.4149 -0.4265 -1.0080
15384TIP3    H267644   0.479   6.412   3.589 -0.2723  0.4482  0.3076
15385TIP3   OH267645   0.178   1.629   4.788  0.0871  0.5588  0.1361
15385TIP3    H167646   0.117   1.656   4.719 -0.0487 -1.0844 -0.4293
15385TIP3    H267647   0.130   1.644   4.869  0.0303  1.9885 -0.1510
15386TIP3   OH267648   5.573   0.129  15.960  0.3062  0.0135 -0.2160
15386TIP3    H167649   5.546   0.163  16.045  1.2172  0.4827 -0.1052
15386TIP3    H267650   5.537   0.192  15.897 -0.5297 -0.4392 -0.1905
15387TIP3   OH267651   3.134   0.281   0.188 -0.1764 -0.5269 -0.0526
15387TIP3    H167652   3.051   0.232   0.190 -0.0892 -0.6520  0.5336
15387TIP3    H267653   3.181   0.252   0.266 -0.3115  0.8222  0.5430
15388TIP3   OH267654   1.390   6.336  16.632  0.2536 -0.8299 -0.0483
15388TIP3    H167655   1.295   6.320  16.627  0.3755 -0.9133 -3.1336
15388TIP3    H267656   1.427   6.277  16.567  2.0311  2.0048 -1.7130
15389TIP3   OH267657   6.112   5.326  12.811  0.8874  0.2868  0.5390
15389TIP3    H167658   6.042   5.261  12.818  0.4866  0.6291 -0.1981
15389TIP3    H267659   6.174   5.288  12.750  1.6227 -0.2520  1.6030
15390TIP3   OH267660   4.534   6.022   0.047 -0.6874  0.2424 -0.0208
15390TIP3    H167661   4.485   6.101   0.074  0.2002  0.1265  2.0067
15390TIP3    H267662   4.601   6.011   0.115 -1.2123 -2.6397  0.0914
15391TIP3   OH267663   5.702   0.219  11.657 -0.2832  0.1986  0.3199
15391TIP3    H167664   5.781   0.184  11.616 -0.6153 -0.1592 -0.0164
15391TIP3    H267665   5.678   0.153  11.722 -1.3423 -0.5793 -0.8362
15392TIP3   OH267666   4.562   3.570  11.217 -0.1509 -0.9688 -0.6368
15392TIP3    H167667   4.525   3.487  11.187 -0.8577 -1.1260  0.6855
15392TIP3    H267668   4.555   3.627  11.140  0.0063 -2.0051 -1.4458
15393TIP3   OH267669   4.314   5.782  13.857  0.0287 -0.7510  0.1749
15393TIP3    H167670   4.391   5.807  13.909 -1.5869 -1.3810  3.0124
15393TIP3    H267671   4.262   5.729  13.917 -2.1745 -1.0962 -1.9960
15394TIP3   OH267672   3.870   4.021   3.483  0.1760  0.1364 -0.5223
15394TIP3    H167673   3.903   3.951   3.539  0.2757  0.6152  0.0178
15394TIP3    H267674   3.893   4.102   3.529  0.7156  0.5480 -1.4986
15395TIP3   OH267675   3.450   2.336   3.357 -0.1334 -0.2546  0.6492
15395TIP3    H167676   3.505   2.257   3.357  1.1647  0.4963 -3.6531
15395TIP3    H267677   3.363   2.304   3.335  0.6210 -0.4743 -2.2838
15396TIP3   OH267678   2.002   1.769   3.190  0.0036  0.2448  0.2328
15396TIP3    H167679   2.037   1.681   3.206 -1.0399 -0.2949 -0.4381
15396TIP3    H267680   2.072   1.815   3.143  0.2732 -0.4544 -0.0521
15397TIP3   OH267681   0.482   1.430   2.460 -0.2770 -0.5195 -0.1945
15397TIP3    H167682   0.522   1.396   2.540 -0.3537 -0.5222 -0.1570
15397TIP3    H267683   0.475   1.354   2.403  0.9764 -0.2605 -0.6994
15398TIP3   OH267684   5.797   2.266  11.041  0.0599 -0.1597  0.2337
15398TIP3    H167685   5.849   2.186  11.053 -0.3326 -0.5792 -0.7853
15398TIP3    H267686   5.850   2.335  11.080 -0.0080 -1.0536  1.9415
15399TIP3   OH267687   3.435   0.253   3.179  0.0948 -0.1174 -0.4322
15399TIP3    H167688   3.518   0.263   3.133  0.2101 -1.2485 -0.4810
15399TIP3    H267689   3.374   0.310   3.131  0.5326 -0.2580 -1.1636
15400TIP3   OH267690   6.017   2.154   0.320  0.2704 -0.0981  0.1090
15400TIP3    H167691   6.089   2.147   0.383  0.1595 -0.3381  0.2118
15400TIP3    H267692   5.957   2.083   0.345 -1.6735  2.1787  2.1819
15401TIP3   OH267693   2.421   1.655   2.936  0.6262  0.1633 -0.1511
15401TIP3    H167694   2.383   1.739   2.911  0.4499  0.1185 -0.0334
15401TIP3    H267695   2.346   1.597   2.946  0.7408  0.0206 -0.1203
15402TIP3   OH267696   2.511   3.485  15.609  0.2833  0.0949  0.0598
15402TIP3    H167697   2.534   3.415  15.669  0.8520  1.7750  1.8526
15402TIP3    H267698   2.591   3.502  15.559 -0.3676 -1.7317 -1.6776
15403TIP3   OH267699   0.989   6.599   0.560 -0.2554  0.1389  0.5767
15403TIP3    H167700   0.920   6.558   0.507  0.3226  0.1111 -0.1612
15403TIP3    H267701   1.056   6.624   0.497 -1.1654  3.4045  0.8580
15404TIP3   OH267702   0.538   0.757   2.994  0.1431 -0.8097  0.1170
15404TIP3    H167703   0.480   0.818   3.039  1.5443 -0.3788  1.4091
15404TIP3    H267704   0.610   0.743   3.056  1.6011 -1.0306 -1.5854
15405TIP3   OH267705   3.013   1.870  16.835  0.0303 -0.3472  0.0969
15405TIP3    H167706   2.950   1.837  16.770  0.2001 -0.1923 -0.1455
15405TIP3    H267707   3.091   1.816  16.822  0.0809 -0.2852  0.1423
15406TIP3   OH267708   0.435   3.086  13.800  0.2426  0.1403 -0.1652
15406TIP3    H167709   0.498   3.134  13.853 -0.8901  0.2753  1.0701
15406TIP3    H267710   0.363   3.149  13.785 -0.4579 -0.6103  0.0152
15407TIP3   OH267711   5.752   6.423  16.627 -0.5849  0.0917 -0.5433
15407TIP3    H167712   5.724   6.437  16.718 -0.9782  0.4521 -0.7176
15407TIP3    H267713   5.846   6.437  16.628 -0.6896  0.7836 -0.3288
15408TIP3   OH267714   6.007   3.741   4.473  0.1012 -0.4159 -0.3746
15408TIP3    H167715   5.941   3.744   4.404 -0.1674 -1.3560 -0.1801
15408TIP3    H267716   5.970   3.681   4.538  0.1163  0.8551  0.8334
15409TIP3   OH267717   6.669   5.694   1.105  0.4112 -0.3687  0.3222
15409TIP3    H167718   6.716   5.617   1.136 -0.7190 -1.3075 -0.2635
15409TIP3    H267719   6.576   5.670   1.113  0.0629  0.6740 -0.5214
15410TIP3   OH267720   2.730   5.031  12.908 -0.0893  0.6917 -0.3643
15410TIP3    H167721   2.788   5.094  12.950  0.3094 -0.8987  1.5374
15410TIP3    H267722   2.754   4.947  12.946 -0.4357 -0.6769 -3.0598
15411TIP3   OH267723   0.908   3.150   0.785 -0.3758 -0.5083 -0.2202
15411TIP3    H167724   0.999   3.158   0.755 -0.4351  2.4870  0.2425
15411TIP3    H267725   0.909   3.074   0.844  1.9310 -0.2223  0.1704
15412TIP3   OH267726   2.669   6.528  14.776  0.0774 -0.1969  0.2463
15412TIP3    H167727   2.706   6.558  14.859  0.4449  0.9110 -0.3077
15412TIP3    H267728   2.727   6.457  14.748  1.3002  0.9598 -0.1957
15413TIP3   OH267729   0.934   2.918  15.975 -0.6123 -0.3220  0.5224
15413TIP3    H167730   1.027   2.914  15.999 -0.6238  0.7507  0.7465
15413TIP3    H267731   0.919   2.837  15.926  0.2106 -0.9602  1.2935
15414TIP3   OH267732   6.139   5.715  11.494 -0.1493  0.0230  0.2757
15414TIP3    H167733   6.106   5.792  11.540  0.2189 -0.4530  1.3460
15414TIP3    H267734   6.082   5.643  11.524  0.5195 -0.4137  0.5183
15415TIP3   OH267735   2.970   4.809   6.196  1.2156  0.3988  0.3268
15415TIP3    H167736   2.969   4.738   6.260 -0.0732  0.5746  0.5039
15415TIP3    H267737   3.012   4.882   6.242  2.8629 -0.3329  0.0305
15416TIP3   OH267738   0.507   6.361   1.196  0.1274 -0.0321 -0.3822
15416TIP3    H167739   0.467   6.357   1.283  1.1799 -1.8397  0.0337
15416TIP3    H267740   0.447   6.312   1.140 -1.7496  3.0605 -1.2001
15417TIP3   OH267741   4.081   5.786   1.305  0.3624 -0.0381 -0.1799
15417TIP3    H167742   4.159   5.734   1.326 -0.3331 -1.4129 -0.9250
15417TIP3    H267743   4.015   5.756   1.367 -0.9981 -2.4289 -2.6454
15418TIP3   OH267744   1.810   3.486   2.556 -0.0417 -0.2666 -0.0227
15418TIP3    H167745   1.834   3.571   2.518 -2.6345  1.6687  2.4252
15418TIP3    H267746   1.720   3.472   2.527 -0.1988 -1.3580  0.9720
15419TIP3   OH267747   5.059   2.921  14.029 -0.5078  0.2383 -0.3334
15419TIP3    H167748   5.023   2.919  13.941  1.2106  1.5280 -1.0940
15419TIP3    H267749   5.120   2.847  14.033  0.2917  0.8666 -0.6410
15420TIP3   OH267750   3.624   4.837   3.010  0.1940 -0.2637 -0.2170
15420TIP3    H167751   3.573   4.915   2.990 -1.4870 -0.8163  1.7110
15420TIP3    H267752   3.662   4.854   3.096  1.3420 -0.8490 -0.5871
15421TIP3   OH267753   4.753   1.671  12.373  0.0160  0.0412 -0.3233
15421TIP3    H167754   4.755   1.644  12.465 -0.0208  1.7211  0.1916
15421TIP3    H267755   4.671   1.719  12.364  0.0088 -0.1375 -1.2410
15422TIP3   OH267756   5.738   4.843  11.263 -0.5211  0.0661  0.1053
15422TIP3    H167757   5.757   4.782  11.192  0.3253  1.2314 -0.7018
15422TIP3    H267758   5.824   4.873  11.292 -0.9434  1.3097  0.0906
15423TIP3   OH267759   1.100   2.882   0.533  0.0986 -0.6030 -0.5132
15423TIP3    H167760   1.078   2.956   0.476  0.6337  1.9354  2.4771
15423TIP3    H267761   1.192   2.863   0.512  0.4435  0.6376 -0.1576
15424TIP3   OH267762   4.849   2.695  14.193 -0.6489  0.1542  0.0458
15424TIP3    H167763   4.788   2.762  14.162 -0.6359  0.0772 -0.1475
15424TIP3    H267764   4.912   2.684  14.121 -1.0175 -0.5127 -0.1875
15425TIP3   OH267765   3.536   4.242   4.549  0.5050 -0.3714  0.2169
15425TIP3    H167766   3.515   4.152   4.524  0.9067 -0.1800 -0.8620
15425TIP3    H267767   3.631   4.248   4.538  0.5477  0.0281  0.8072
15426TIP3   OH267768   5.624   0.047  14.959  0.1781 -0.3034 -0.2818
15426TIP3    H167769   5.601   0.067  14.868 -0.0447  2.2338  0.3013
15426TIP3    H267770   5.561  -0.021  14.985 -1.2712  0.6160 -1.3092
15427TIP3   OH267771   4.384   6.243   3.851  0.6100 -0.1197 -0.1144
15427TIP3    H167772   4.360   6.153   3.828 -0.8956  0.8050 -2.4249
15427TIP3    H267773   4.378   6.291   3.768  2.1982  1.9478  0.9118
15428TIP3   OH267774   6.820   4.582  12.883 -0.5840  0.0959  0.0824
15428TIP3    H167775   6.864   4.507  12.924  0.8103  1.5636  1.3102
15428TIP3    H267776   6.760   4.615  12.950 -2.6377 -1.0691 -1.1217
15429TIP3   OH267777   6.582   4.538  15.059  0.0524 -0.4042  0.2732
15429TIP3    H167778   6.583   4.461  15.001  0.5291 -0.1042 -0.1240
15429TIP3    H267779   6.524   4.513  15.130  2.2393 -2.1515  1.5293
15430TIP3   OH267780   6.000   6.148   5.795  0.5919 -0.1542  0.3160
15430TIP3    H167781   6.060   6.076   5.773 -1.6225 -1.6243 -1.0692
15430TIP3    H267782   5.925   6.136   5.737 -0.9783  1.7787  1.8601
15431TIP3   OH267783   4.583   4.363  17.189 -0.4844 -0.3632  0.2952
15431TIP3    H167784   4.596   4.457  17.191 -0.7577 -0.3288  0.5096
15431TIP3    H267785   4.492   4.350  17.216 -0.8344 -0.6151 -0.9705
15432TIP3   OH267786   5.393   0.417   5.250  0.2166 -0.6450 -0.4799
15432TIP3    H167787   5.405   0.387   5.160  1.9241 -0.9025 -0.1725
15432TIP3    H267788   5.469   0.383   5.297 -0.8895 -0.9126  1.1665
15433TIP3   OH267789   6.516   2.833  14.247 -0.4885  0.0753 -0.4107
15433TIP3    H167790   6.479   2.783  14.174 -0.0322 -1.1292  0.1689
15433TIP3    H267791   6.488   2.785  14.325 -1.7576  1.8608  0.2719
15434TIP3   OH267792   5.545   4.364   2.562  0.1804 -0.4604  0.2424
15434TIP3    H167793   5.639   4.378   2.558  0.4311 -2.1963 -0.4906
15434TIP3    H267794   5.534   4.294   2.627 -0.5085 -0.9281 -0.3639
15435TIP3   OH267795   2.233   0.377  13.342 -0.0873  0.8014 -0.1976
15435TIP3    H167796   2.145   0.361  13.306  0.6047  0.0916 -1.6283
15435TIP3    H267797   2.292   0.352  13.271  1.3987 -2.1440  1.9817
15436TIP3   OH267798   3.380   3.543  11.426  0.1865 -0.3675 -0.0624
15436TIP3    H167799   3.315   3.497  11.374  0.1492 -0.6860  0.2666
15436TIP3    H267800   3.330   3.608  11.475  0.0820 -0.8019  0.4041
15437TIP3   OH267801   3.628   5.620   1.647  0.2097  0.0353 -0.4094
15437TIP3    H167802   3.686   5.572   1.707  2.0814 -1.8127 -3.5580
15437TIP3    H267803   3.546   5.571   1.648  0.2284  0.0110  0.6107
15438TIP3   OH267804   6.188   6.586   2.383  0.3987 -0.2280 -1.0911
15438TIP3    H167805   6.181   6.554   2.473  0.7618  1.0884 -0.5853
15438TIP3    H267806   6.200   6.507   2.331  1.0614 -0.9376  0.1098
15439TIP3   OH267807   3.240   3.755  11.546  0.5376  0.4096 -0.0277
15439TIP3    H167808   3.239   3.726  11.637 -0.0425 -0.6675 -0.3649
15439TIP3    H267809   3.254   3.850  11.550 -0.4059  0.4985  1.2074
15440TIP3   OH267810   6.771   4.353   0.243  0.1489  0.3415  0.3404
15440TIP3    H167811   6.848   4.312   0.283 -0.9207 -2.6948 -0.6226
15440TIP3    H267812   6.723   4.390   0.317  1.9649  1.3794  1.0559
15441TIP3   OH267813   1.563   6.374  14.234 -0.6365 -0.2623 -0.1001
15441TIP3    H167814   1.552   6.320  14.312  0.0307 -1.2355 -0.6770
15441TIP3    H267815   1.598   6.315  14.168  1.7462  1.2575 -0.2488
15442TIP3   OH267816   5.182   3.404   4.263 -0.2076  0.2919 -0.5609
15442TIP3    H167817   5.159   3.392   4.171 -1.2954  0.8628 -0.3668
15442TIP3    H267818   5.260   3.349   4.275 -0.2510 -0.0474 -1.7331
15443TIP3   OH267819   5.023   6.399  16.995 -0.3331  0.2844  0.0184
15443TIP3    H167820   5.039   6.393  17.089  0.5671 -0.2968 -0.1652
15443TIP3    H267821   4.933   6.431  16.988 -1.3946 -2.2787  1.1041
15444TIP3   OH267822   3.272   1.822   3.214  0.1408  0.2919  0.0432
15444TIP3    H167823   3.249   1.818   3.121  2.7159 -0.8735 -0.6004
15444TIP3    H267824   3.275   1.916   3.234  0.4298  0.5796 -1.2989
15445TIP3   OH267825   2.959   2.230   6.607 -0.2225 -0.5518 -0.1718
15445TIP3    H167826   2.919   2.184   6.681  0.0975  1.9922  1.6433
15445TIP3    H267827   3.041   2.183   6.591 -0.4740 -1.3567  0.8360
15446TIP3   OH267828   1.911   4.295   2.932 -0.3403 -0.4183  0.0586
15446TIP3    H167829   1.838   4.313   2.990 -0.5070  0.3771 -0.3905
15446TIP3    H267830   1.883   4.329   2.847 -0.3402 -2.0740 -0.6321
15447TIP3   OH267831   4.757   2.032  11.197  0.4230  0.0494  0.5818
15447TIP3    H167832   4.709   1.975  11.257  0.7292 -2.5824 -1.5619
15447TIP3    H267833   4.771   1.978  11.119  0.4741  3.1699 -1.6901
15448TIP3   OH267834   5.765   5.033   5.143  0.3943  0.2591 -0.1400
15448TIP3    H167835   5.737   4.971   5.210  3.3201  2.6418  3.4329
15448TIP3    H267836   5.807   4.978   5.076 -0.2728 -1.9165  1.1870
15449TIP3   OH267837   4.056   4.620   2.113  0.6577 -0.0665 -0.0704
15449TIP3    H167838   4.143   4.653   2.135 -0.1799 -0.0985  3.5864
15449TIP3    H267839   4.073   4.551   2.049  3.4104 -0.4337  0.9486
15450TIP3   OH267840   2.066   4.457   5.224  0.0481  0.3261  0.4607
15450TIP3    H167841   2.049   4.373   5.181 -0.0311  0.6549 -0.1559
15450TIP3    H267842   2.060   4.437   5.318 -2.0292  0.0603  0.2957
15451TIP3   OH267843   0.786   4.284  11.241 -0.2579 -0.0728  0.6298
15451TIP3    H167844   0.765   4.342  11.168 -2.5846 -1.1633  0.4108
15451TIP3    H267845   0.724   4.212  11.234  2.0813 -2.2520  1.3545
15452TIP3   OH267846   4.249   1.400   4.594 -0.1685 -0.2350  0.0851
15452TIP3    H167847   4.307   1.362   4.528 -0.1397  0.3782 -0.2419
15452TIP3    H267848   4.239   1.330   4.659 -1.6541 -1.5069 -1.4569
15453TIP3   OH267849   5.189   5.349   0.367 -0.2721  0.4526 -0.0095
15453TIP3    H167850   5.239   5.290   0.423 -0.1926  0.1743 -0.3749
15453TIP3    H267851   5.194   5.434   0.412 -1.4064 -0.0760  1.1543
15454TIP3   OH267852   1.948   3.127   3.306  0.7043  0.0891  0.1778
15454TIP3    H167853   2.007   3.177   3.250  0.0815 -0.2354 -0.7817
15454TIP3    H267854   1.906   3.193   3.362 -0.2156  0.6797 -1.1766
15455TIP3   OH267855   1.495   4.860  13.734  0.2998  0.2178 -0.1195
15455TIP3    H167856   1.575   4.906  13.707 -0.0665  1.6818  1.2312
15455TIP3    H267857   1.465   4.907  13.812 -1.7628 -0.4469 -0.4792
15456TIP3   OH267858   2.259   5.253   6.720 -0.3217 -0.1429  0.4559
15456TIP3    H167859   2.269   5.338   6.762  0.3423  1.0289 -1.9506
15456TIP3    H267860   2.349   5.226   6.699 -0.7309  0.4408 -2.2916
15457TIP3   OH267861   5.866   3.750  15.096 -0.2982  0.7045 -0.2559
15457TIP3    H167862   5.935   3.766  15.032 -0.8216  0.2482 -0.9338
15457TIP3    H267863   5.874   3.822  15.159 -0.1140  1.4288 -1.1077
15458TIP3   OH267864   6.500   4.858   1.752  0.5201  0.0895 -0.3045
15458TIP3    H167865   6.455   4.776   1.772 -0.0931  0.5966  0.4246
15458TIP3    H267866   6.431   4.923   1.748  1.3249  1.2146  2.5943
15459TIP3   OH267867   6.089   6.508  12.986 -0.2925  0.3876 -0.3205
15459TIP3    H167868   6.089   6.491  12.892 -1.8532  1.5541 -0.5554
15459TIP3    H267869   6.039   6.589  12.996  1.0012  0.9994  1.3976
15460TIP3   OH267870   3.176   3.206   0.306  0.1641  0.5710  0.8862
15460TIP3    H167871   3.162   3.277   0.368 -0.5220  0.2871  1.0633
15460TIP3    H267872   3.088   3.178   0.281  0.4323  1.3678 -1.0141
15461TIP3   OH267873   6.011   1.930   5.098 -0.3126  0.2803  0.1859
15461TIP3    H167874   6.058   1.959   5.176 -0.9052  2.3238 -0.2129
15461TIP3    H267875   5.928   1.895   5.131  0.1357 -0.4237  0.5974
15462TIP3   OH267876   0.251   2.348  13.160 -0.0366  0.0172 -0.9004
15462TIP3    H167877   0.177   2.395  13.199 -1.1979 -1.8325 -0.8384
15462TIP3    H267878   0.326   2.405  13.177 -1.6914  2.8787 -2.6420
15463TIP3   OH267879   3.299   1.526  12.722 -0.1328 -0.6184  0.0221
15463TIP3    H167880   3.209   1.556  12.741  0.2263  1.3191 -1.2524
15463TIP3    H267881   3.296   1.498  12.631  1.3286  2.6087 -1.0751
15464TIP3   OH267882   2.312   3.325  12.946 -0.8466  0.4253  0.0819
15464TIP3    H167883   2.344   3.236  12.955  0.2320  0.7626 -0.3353
15464TIP3    H267884   2.268   3.344  13.029 -2.0288 -0.8630 -0.2345
15465TIP3   OH267885   0.961   1.387   6.013  0.3345  0.8357 -0.1005
15465TIP3    H167886   1.046   1.421   6.040 -0.7948  1.4377  2.8385
15465TIP3    H267887   0.899   1.457   6.033 -1.5639 -1.5764  2.8722
15466TIP3   OH267888   6.552   5.711  15.970 -0.7170 -0.0895 -0.0960
15466TIP3    H167889   6.574   5.759  16.050 -0.6093  0.1618 -0.2752
15466TIP3    H267890   6.553   5.619  15.995 -0.9630  0.0050  0.2605
15467TIP3   OH267891   2.545   6.235   4.572  0.0712  0.0327 -0.3804
15467TIP3    H167892   2.527   6.300   4.641 -1.1738 -1.6634  0.9314
15467TIP3    H267893   2.566   6.288   4.495 -0.8979  2.0168  0.6677
15468TIP3   OH267894   5.427   4.268  15.545  0.1903  0.2895 -0.5023
15468TIP3    H167895   5.495   4.237  15.486 -0.7548  0.3444 -1.6522
15468TIP3    H267896   5.347   4.226  15.513 -0.5202  1.2130  0.0431
15469TIP3   OH267897   1.847   5.332  16.568 -0.7527 -0.1949  0.4653
15469TIP3    H167898   1.808   5.395  16.507  0.3509 -1.5694 -1.7269
15469TIP3    H267899   1.772   5.287  16.607 -1.5001  1.3944  0.9338
15470TIP3   OH267900   1.332   1.361   0.912  0.2208  0.0076  0.0275
15470TIP3    H167901   1.278   1.322   0.981 -1.7718  2.6328  0.0240
15470TIP3    H267902   1.276   1.358   0.834  0.7039  1.2518 -0.3748
15471TIP3   OH267903   4.263   3.927  17.190 -1.1474 -0.2051 -0.2274
15471TIP3    H167904   4.306   3.921  17.105 -0.7036  1.6125 -0.1573
15471TIP3    H267905   4.246   3.836  17.215  1.5432 -0.8976 -0.8003
15472TIP3   OH267906   1.476   0.389  13.224 -0.8040 -0.1142 -0.5995
15472TIP3    H167907   1.534   0.326  13.267 -0.2009  0.1859 -0.9625
15472TIP3    H267908   1.498   0.473  13.264  0.4690  0.3270 -2.1816
15473TIP3   OH267909   1.073   0.847   2.946  0.5303  0.6334 -0.2550
15473TIP3    H167910   1.017   0.798   2.886  1.6854  0.4920 -1.2424
15473TIP3    H267911   1.079   0.792   3.024  2.2278 -1.0643 -1.5510
15474TIP3   OH267912   4.291   1.371   5.329 -0.1997  0.0600 -0.0967
15474TIP3    H167913   4.301   1.373   5.425 -0.6607 -0.8316 -0.0295
15474TIP3    H267914   4.315   1.460   5.302 -1.0087  0.6260  0.9450
15475TIP3   OH267915   5.363   1.089   1.735 -0.1034 -0.7112  0.3086
15475TIP3    H167916   5.389   1.181   1.739 -0.1203 -0.7710  2.8511
15475TIP3    H267917   5.274   1.087   1.769 -0.4195 -1.5604 -0.5546
15476TIP3   OH267918   0.185   3.453  15.347 -0.6154  0.2915 -0.0888
15476TIP3    H167919   0.105   3.492  15.382  0.4072  2.0120  0.3930
15476TIP3    H267920   0.156   3.401  15.272 -2.4469 -0.9103  1.4168
15477TIP3   OH267921   3.525   3.719   5.399  0.2456  0.2384  0.1672
15477TIP3    H167922   3.506   3.637   5.354 -0.1060 -0.1651  1.0568
15477TIP3    H267923   3.491   3.707   5.487 -3.2259  2.6707 -0.7188
15478TIP3   OH267924   0.431   1.355  12.133  0.7289 -0.2358  0.0551
15478TIP3    H167925   0.425   1.388  12.223 -0.7175 -0.7319  0.1587
15478TIP3    H267926   0.409   1.429  12.078  0.1698 -0.3076  0.1780
15479TIP3   OH267927   5.061   2.057  10.477  0.1668  0.6943  0.2477
15479TIP3    H167928   5.150   2.034  10.450 -0.1941 -0.9178  0.3366
15479TIP3    H267929   5.018   2.088  10.398  0.2899 -0.2439 -0.1966
15480TIP3   OH267930   0.731   4.278  11.774 -0.3796 -0.0714 -0.0665
15480TIP3    H167931   0.803   4.256  11.833 -1.1354 -0.2292  0.7991
15480TIP3    H267932   0.664   4.213  11.793 -0.7827  0.1315 -0.8154
15481TIP3   OH267933   1.471   5.280   4.564  0.0496 -0.1797  0.0374
15481TIP3    H167934   1.527   5.341   4.517 -0.4595  1.1471  1.1179
15481TIP3    H267935   1.391   5.275   4.511  0.1428  0.0086 -0.1219
15482TIP3   OH267936   4.765   2.183   0.264  0.5331  0.7563 -0.1214
15482TIP3    H167937   4.831   2.233   0.311  0.1511  1.2887 -0.1399
15482TIP3    H267938   4.698   2.163   0.330  0.8152  0.0354 -0.0525
15483TIP3   OH267939   6.348   5.095  11.888  0.5004  0.2296 -0.1925
15483TIP3    H167940   6.372   5.187  11.883  1.6537  0.0206  1.2809
15483TIP3    H267941   6.431   5.049  11.899 -0.2071 -0.8556  0.6854
15484TIP3   OH267942   3.676   0.154   1.513 -0.1225  0.5437 -0.0947
15484TIP3    H167943   3.644   0.066   1.492 -0.9941  0.8331  0.0022
15484TIP3    H267944   3.678   0.200   1.429  1.0124  0.2097 -0.2475
15485TIP3   OH267945   5.249   2.812   1.583  0.3063  0.3601  0.2963
15485TIP3    H167946   5.154   2.809   1.586  0.3208 -0.3403  0.2319
15485TIP3    H267947   5.271   2.831   1.492  0.2211  1.1131  0.4305
15486TIP3   OH267948   2.100   1.648  15.032  0.2078 -0.1258 -0.3156
15486TIP3    H167949   2.157   1.572  15.019 -0.0811 -0.0340 -2.3592
15486TIP3    H267950   2.142   1.698  15.102 -0.2017 -2.6995  1.8264
15487TIP3   OH267951   6.495   0.688  13.369  0.2732  0.5722 -0.1260
15487TIP3    H167952   6.458   0.622  13.310 -1.4995  0.7189  0.7935
15487TIP3    H267953   6.502   0.767  13.315 -0.1332  0.3661 -0.4808
15488TIP3   OH267954   1.154   5.289   1.965 -0.0314  0.3717 -0.1099
15488TIP3    H167955   1.160   5.360   1.900 -0.1314  1.3411  0.9154
15488TIP3    H267956   1.093   5.227   1.926  0.3893  0.6320 -1.2224
15489TIP3   OH267957   4.298   3.902   5.315  0.0558  0.0108 -0.2980
15489TIP3    H167958   4.218   3.858   5.343 -0.3170  1.0356  0.2979
15489TIP3    H267959   4.267   3.973   5.259  0.7654 -1.6103 -2.7849
15490TIP3   OH267960   3.309   3.584   2.141 -0.6088 -0.0639  0.2997
15490TIP3    H167961   3.404   3.581   2.151 -0.6169 -0.8007  0.1932
15490TIP3    H267962   3.294   3.648   2.071 -0.1734 -0.2554  0.0280
15491TIP3   OH267963   1.074   6.104   3.757 -0.2711  0.1367 -0.0550
15491TIP3    H167964   1.145   6.049   3.791  0.6529 -0.4450 -2.7889
15491TIP3    H267965   1.113   6.192   3.751  0.0863 -0.0745 -1.0289
15492TIP3   OH267966   2.108   2.608   3.469  0.0889  0.1300 -0.0977
15492TIP3    H167967   2.199   2.584   3.487  0.0571 -0.0830 -0.2201
15492TIP3    H267968   2.103   2.702   3.488 -0.1067 -0.2166  1.6700
15493TIP3   OH267969   5.510   4.876  14.147  0.3492  0.3140  0.7422
15493TIP3    H167970   5.465   4.806  14.195  1.7709 -0.7947  0.4777
15493TIP3    H267971   5.519   4.947  14.211  0.4296 -0.3875  1.5222
15494TIP3   OH267972   3.696   3.512   6.235  0.1120 -0.6778 -0.8705
15494TIP3    H167973   3.604   3.513   6.262  0.2624  1.0408 -0.3408
15494TIP3    H267974   3.733   3.592   6.273  1.8081 -1.3009 -1.1469
15495TIP3   OH267975   2.308   4.083   1.131 -0.1248  0.2861  0.1016
15495TIP3    H167976   2.304   4.117   1.042  0.0912  2.4780  0.8984
15495TIP3    H267977   2.221   4.044   1.145 -0.1212 -0.1774 -1.0983
15496TIP3   OH267978   0.761   1.020  17.075  0.1300 -0.0241  0.5667
15496TIP3    H167979   0.795   0.958  17.010 -1.0406 -1.3255  1.1683
15496TIP3    H267980   0.678   1.050  17.038  0.4218  0.7545  0.5440
15497TIP3   OH267981   0.446   0.964  14.579  0.3218  0.1334  0.0473
15497TIP3    H167982   0.407   0.978  14.665 -0.5252  0.4303 -0.3828
15497TIP3    H267983   0.532   0.926  14.598 -0.3321 -0.9223  0.9911
15498TIP3   OH267984   3.377   2.827  14.866  1.0392 -0.4482  0.6537
15498TIP3    H167985   3.391   2.737  14.896  1.2519  0.2716  2.7228
15498TIP3    H267986   3.355   2.817  14.773  2.9482 -2.5029  0.3705
15499TIP3   OH267987   2.729   6.617  16.491 -0.0043  0.2855  0.0539
15499TIP3    H167988   2.809   6.632  16.542 -0.9356 -1.0841  1.9772
15499TIP3    H267989   2.717   6.698  16.441  1.9995  0.9130  0.5356
15500TIP3   OH267990   1.243   0.028  11.332 -0.5362 -0.2643 -0.3153
15500TIP3    H167991   1.266  -0.034  11.401 -1.8551  1.4423  1.7249
15500TIP3    H267992   1.327   0.064  11.302 -0.0868  0.9559  2.3055
15501TIP3   OH267993   5.934   6.105   4.484  0.2267  0.0722 -0.1252
15501TIP3    H167994   5.889   6.097   4.567  0.4245  1.2363  0.1028
15501TIP3    H267995   5.887   6.047   4.425 -0.2663 -0.3180  0.6473
15502TIP3   OH267996   2.060   0.582   0.947  1.0438 -0.1070 -0.0240
15502TIP3    H167997   1.974   0.558   0.912  0.6758 -0.5510  1.1613
15502TIP3    H267998   2.101   0.633   0.877 -0.4005  0.5657 -0.3975
15503TIP3   OH267999   0.021   6.357  13.254 -0.0631  0.2749 -0.1690
15503TIP3    H168000  -0.016   6.403  13.179  1.8782  0.0660 -1.3057
15503TIP3    H268001   0.105   6.400  13.270 -0.1080 -0.1743  1.4056
15504TIP3   OH268002   0.497   1.603  10.357  0.3836  0.3485  0.1350
15504TIP3    H168003   0.484   1.685  10.405 -0.3797 -0.1231  0.7608
15504TIP3    H268004   0.591   1.587  10.362  0.3220  0.3088  1.5168
15505TIP3   OH268005   1.181   3.984   3.240  0.1347 -0.5330  0.1073
15505TIP3    H168006   1.110   3.935   3.198 -0.0382 -0.4380  0.2941
15505TIP3    H268007   1.259   3.932   3.222  0.1357 -0.2374 -0.7684
15506TIP3   OH268008   6.730   1.541   1.291 -0.0060  0.3779  0.1357
15506TIP3    H168009   6.706   1.479   1.360  0.5087 -0.7677 -0.6828
15506TIP3    H268010   6.700   1.499   1.210  1.7467  0.4724 -0.5821
15507TIP3   OH268011   2.196   4.201  16.064 -0.0675  0.3107  0.3052
15507TIP3    H168012   2.279   4.243  16.086  0.0193  1.0257 -1.3057
15507TIP3    H268013   2.131   4.271  16.070 -0.2942  0.1366 -0.0837
15508TIP3   OH268014   6.168   5.371  14.310  0.2223  0.5873  0.1557
15508TIP3    H168015   6.230   5.412  14.250  1.5693 -0.9389  0.4482
15508TIP3    H268016   6.220   5.304  14.355 -1.2502  0.3864  1.5988
15509TIP3   OH268017   5.262   1.171   3.414 -0.1545 -0.5788  0.0902
15509TIP3    H168018   5.347   1.214   3.428 -0.2970 -0.1440 -0.3329
15509TIP3    H268019   5.278   1.110   3.342  0.0086 -1.1150  0.5845
15510TIP3   OH268020   4.903   0.165   3.343  0.4333  0.4510 -0.2426
15510TIP3    H168021   4.992   0.199   3.339  0.0479  1.3878 -1.0024
15510TIP3    H268022   4.912   0.072   3.325  1.0038  0.9729 -2.8052
15511TIP3   OH268023   4.635   0.014  13.002  0.3897  0.1521  0.5645
15511TIP3    H168024   4.636   0.046  13.092 -0.7661 -1.5329  1.1994
15511TIP3    H268025   4.677  -0.072  13.006 -2.3039 -1.2461  0.0607
15512TIP3   OH268026   2.467   0.525  11.670  0.0410 -0.6341 -0.3160
15512TIP3    H168027   2.514   0.526  11.587 -2.0981 -0.4591 -1.5814
15512TIP3    H268028   2.404   0.453  11.661 -0.3114 -0.5183  1.0873
15513TIP3   OH268029   4.268   5.485   2.641  0.4727  0.2465 -0.0414
15513TIP3    H168030   4.316   5.562   2.611  0.1612  0.5951  0.3460
15513TIP3    H268031   4.257   5.498   2.735 -0.7688  0.4030 -0.1897
15514TIP3   OH268032   2.112   3.830  11.362  0.2285 -0.0635 -0.2359
15514TIP3    H168033   2.144   3.741  11.351  1.9779  0.5123  0.0526
15514TIP3    H268034   2.041   3.822  11.426  1.5195 -1.0144  1.1173
15515TIP3   OH268035   5.274   2.165   2.779  0.7047  0.3660  0.4641
15515TIP3    H168036   5.204   2.225   2.754 -1.4094 -2.5140 -0.7970
15515TIP3    H268037   5.245   2.126   2.860  0.0172 -2.0668 -0.9158
15516TIP3   OH268038   1.042   2.621   0.495  0.1727  0.0410  0.0483
15516TIP3    H168039   1.058   2.714   0.513  0.5110 -0.3548  1.9780
15516TIP3    H268040   0.979   2.621   0.423 -0.5835  1.7937  0.6715
15517TIP3   OH268041   5.095   1.830   0.876 -0.4885  0.7466  0.0169
15517TIP3    H168042   5.102   1.922   0.901 -0.9818  1.0957 -1.0747
15517TIP3    H268043   5.185   1.800   0.868 -0.3097  1.5611 -1.1194
15518TIP3   OH268044   5.661   4.396  15.571  0.2989 -0.6629  0.2759
15518TIP3    H168045   5.663   4.489  15.551  1.9768 -0.7185  0.1381
15518TIP3    H268046   5.570   4.379  15.599 -0.0010  1.0030  0.3414
15519TIP3   OH268047   1.050   1.023  17.116 -0.5747  0.4002 -0.7121
15519TIP3    H168048   1.057   0.929  17.096 -1.9016 -0.7016  3.5758
15519TIP3    H268049   0.957   1.040  17.124 -0.2577  1.5197  0.9118
15520TIP3   OH268050   2.108   6.301   1.154 -0.0189  0.8701 -0.1189
15520TIP3    H168051   2.043   6.248   1.107  1.1794  0.8207 -1.7470
15520TIP3    H268052   2.110   6.384   1.106 -1.7228  2.3778  2.2766
15521TIP3   OH268053   3.388   6.676   2.431 -0.2996 -0.2560 -0.3593
15521TIP3    H168054   3.377   6.608   2.365 -0.2455 -1.4299  0.8203
15521TIP3    H268055   3.481   6.673   2.453 -0.6489 -1.1606  1.0999
15522TIP3   OH268056   4.264   4.537  17.198  0.6506  0.1923  1.0097
15522TIP3    H168057   4.198   4.527  17.267  0.4461  0.8904  0.9217
15522TIP3    H268058   4.239   4.471  17.133  1.2438 -0.9319  1.8999
15523TIP3   OH268059   4.371   1.793   6.824 -0.1691 -0.2052  0.2557
15523TIP3    H168060   4.406   1.831   6.744 -2.2342 -1.5459 -1.3439
15523TIP3    H268061   4.282   1.828   6.831 -1.2324 -2.7493  0.0782
15524TIP3   OH268062   4.527   5.544  14.478  0.1097 -0.3632 -0.1850
15524TIP3    H168063   4.439   5.578  14.492 -0.0153 -0.6023 -0.3851
15524TIP3    H268064   4.555   5.513  14.564  0.4069  0.6671  0.0945
15525TIP3   OH268065   6.686   5.657   4.722 -0.3303 -0.1662  0.6974
15525TIP3    H168066   6.739   5.716   4.669 -0.6030 -0.5152  0.0234
15525TIP3    H268067   6.724   5.570   4.706  0.1592 -0.1551  1.7902
15526TIP3   OH268068   1.618   1.481  13.582  0.3555 -0.2637 -0.2502
15526TIP3    H168069   1.620   1.567  13.624  0.3693 -0.6419  0.5317
15526TIP3    H268070   1.529   1.475  13.546  0.6796  0.4919 -1.1943
15527TIP3   OH268071   2.936   3.255  11.791  0.3384 -0.4551 -0.3606
15527TIP3    H168072   2.982   3.183  11.834  1.4175  0.3743 -0.1067
15527TIP3    H268073   2.974   3.259  11.704  0.2605 -0.2102 -0.3839
15528TIP3   OH268074   0.061   4.824   3.111 -0.3408  0.4216  0.0523
15528TIP3    H168075   0.114   4.902   3.122  1.8574 -1.1657  0.9685
15528TIP3    H268076   0.114   4.766   3.056  0.2515 -2.4152  3.4721
15529TIP3   OH268077   4.435   5.868   4.744 -0.4266  0.7481 -0.2862
15529TIP3    H168078   4.518   5.849   4.787 -0.2644 -0.2260 -0.9932
15529TIP3    H268079   4.459   5.918   4.666 -0.5016  0.4868 -0.4783
15530TIP3   OH268080   2.871   2.590  16.525  0.3512  0.4606 -0.7010
15530TIP3    H168081   2.923   2.543  16.590 -0.3538  0.0013 -0.4668
15530TIP3    H268082   2.787   2.606  16.568  0.0610  0.6135 -1.3139
15531TIP3   OH268083   3.932   3.719  11.621  0.4872 -0.4426  0.7409
15531TIP3    H168084   4.016   3.689  11.587  0.4753 -0.7970  1.0150
15531TIP3    H268085   3.903   3.647  11.677 -0.2706 -0.5828  0.1896
15532TIP3   OH268086   1.893   2.938   2.959  0.1768  0.0214  0.3575
15532TIP3    H168087   1.879   3.005   3.026  1.6820 -1.2457  2.0166
15532TIP3    H268088   1.806   2.919   2.925 -0.5608  1.0471  1.6297
15533TIP3   OH268089   0.658   6.378   5.519 -0.1507 -0.2691  0.1089
15533TIP3    H168090   0.668   6.335   5.604  0.0490 -0.5448 -0.0568
15533TIP3    H268091   0.673   6.310   5.455 -0.4078 -0.0825 -0.1527
15534TIP3   OH268092   1.804   0.237  12.022 -0.4542 -0.1137 -0.0436
15534TIP3    H168093   1.789   0.187  12.103  1.8361 -2.2051 -0.8280
15534TIP3    H268094   1.860   0.180  11.970 -2.0109  1.1527 -3.2030
15535TIP3   OH268095   1.973   4.497   3.796  0.1409 -0.1765 -0.0195
15535TIP3    H168096   1.968   4.561   3.725  0.0468 -0.0122  0.1347
15535TIP3    H268097   1.963   4.412   3.753  0.4955 -0.1010 -0.2529
15536TIP3   OH268098   2.667   3.311   4.983 -0.4371  0.0044 -0.3818
15536TIP3    H168099   2.751   3.276   4.954 -0.8025 -0.9233 -0.3453
15536TIP3    H268100   2.633   3.358   4.907  0.3499  0.8121 -0.2301
15537TIP3   OH268101   1.810   3.048  14.319  0.3295 -0.5292 -0.8006
15537TIP3    H168102   1.899   3.013  14.312  1.2770  1.7056 -0.4699
15537TIP3    H268103   1.812   3.129  14.269 -1.3165 -0.0684 -0.1727
15538TIP3   OH268104   5.203   6.774  11.884  0.2089 -0.3139  0.0503
15538TIP3    H168105   5.167   6.685  11.887 -1.0229  0.1977  1.2080
15538TIP3    H268106   5.271   6.775  11.951 -0.8074  0.0270  1.0983
15539TIP3   OH268107   4.605   0.307  12.474 -0.1791  0.2720 -0.6350
15539TIP3    H168108   4.624   0.313  12.568  1.6208  0.2879 -0.9931
15539TIP3    H268109   4.510   0.313  12.469 -0.2318  1.2123  1.1200
15540TIP3   OH268110   2.454   1.950  14.352  0.1594 -0.4891 -0.3224
15540TIP3    H168111   2.398   1.938  14.429 -0.2811  0.1722 -0.5365
15540TIP3    H268112   2.474   1.861  14.323  1.1169 -0.7711  1.1160
15541TIP3   OH268113   5.717   0.535   2.570 -0.0991  0.4775 -0.0909
15541TIP3    H168114   5.633   0.549   2.615 -0.7322  0.4415 -1.2526
15541TIP3    H268115   5.739   0.444   2.589 -1.5443 -0.2561 -1.7867
15542TIP3   OH268116   4.766   6.750   3.874 -0.4254  0.2238 -0.5698
15542TIP3    H168117   4.732   6.834   3.842 -1.2208  0.4353  0.8013
15542TIP3    H268118   4.860   6.763   3.880 -0.3585  0.4859 -1.9032
15543TIP3   OH268119   4.800   3.498   2.693 -0.3401  0.1600 -0.3748
15543TIP3    H168120   4.785   3.406   2.673 -1.7069  0.2729  0.1253
15543TIP3    H268121   4.739   3.545   2.638  0.3514  0.7799 -0.6255
15544TIP3   OH268122   5.732   6.324   2.110 -0.0252 -0.2805  0.0659
15544TIP3    H168123   5.668   6.255   2.092  0.8023 -0.8629 -0.7133
15544TIP3    H268124   5.733   6.331   2.206  0.3321 -1.7974  0.1852
15545TIP3   OH268125   1.142   1.061   0.507 -0.0039 -0.0351  0.0628
15545TIP3    H168126   1.124   0.978   0.550  1.2880  0.0436  0.7705
15545TIP3    H268127   1.161   1.038   0.416  0.8070 -0.5574  0.3674
15546TIP3   OH268128   1.337   0.076  10.890  0.0788 -0.4839 -0.4160
15546TIP3    H168129   1.411   0.025  10.923  0.2780  0.3785  0.4866
15546TIP3    H268130   1.376   0.159  10.862 -0.6155  0.1703  0.5456
15547TIP3   OH268131   5.073   4.849  14.765  0.1227 -0.7534 -0.4571
15547TIP3    H168132   5.127   4.928  14.763 -0.8969 -0.0700 -2.3702
15547TIP3    H268133   5.050   4.833  14.673  0.9182 -3.7039 -0.1800
15548TIP3   OH268134   4.245   0.648  16.095  0.5494  0.7807  0.0414
15548TIP3    H168135   4.234   0.563  16.138 -1.1234  0.9417 -0.0169
15548TIP3    H268136   4.338   0.654  16.077  0.4676 -1.8762 -1.6356
15549TIP3   OH268137   4.199   2.843  14.451  0.8534 -0.4016  0.5556
15549TIP3    H168138   4.155   2.801  14.377 -1.6268 -1.1126  2.3791
15549TIP3    H268139   4.151   2.925  14.465  3.0658  1.0988 -0.3418
15550TIP3   OH268140   2.580   5.907  15.968 -0.0261 -0.4620  0.0179
15550TIP3    H168141   2.499   5.951  15.941 -0.6577 -1.4318  0.3091
15550TIP3    H268142   2.598   5.941  16.055 -0.9400 -1.3173  0.5659
15551TIP3   OH268143   2.560   3.964  15.217  0.8267  0.2235  0.4805
15551TIP3    H168144   2.466   3.962  15.198  0.5174 -0.1677  1.9779
15551TIP3    H268145   2.585   3.872  15.225  1.8511  0.2223 -2.2125
15552TIP3   OH268146   4.617   5.315  12.639 -0.2299  0.0084 -0.1261
15552TIP3    H168147   4.663   5.236  12.669 -0.3829 -0.5403 -1.2962
15552TIP3    H268148   4.637   5.320  12.546 -2.6920 -0.3720 -0.7283
15553TIP3   OH268149   1.823   1.529   5.170  0.2882  0.3579 -0.0518
15553TIP3    H168150   1.756   1.590   5.141 -1.6989 -1.6829  0.0457
15553TIP3    H268151   1.826   1.541   5.265  1.3162  1.6562 -0.2353
15554TIP3   OH268152   2.863   6.060   2.297 -0.2026 -0.7357 -0.3249
15554TIP3    H168153   2.835   6.132   2.353  1.9187 -1.0312  1.2207
15554TIP3    H268154   2.878   6.099   2.211 -0.2902  0.4219  0.1820
15555TIP3   OH268155   3.692   4.800  15.183  0.2286 -0.1405 -0.3410
15555TIP3    H168156   3.705   4.788  15.277  1.7060  1.3576 -0.3210
15555TIP3    H268157   3.719   4.891  15.167  1.3030 -0.8040 -2.4190
15556TIP3   OH268158   5.049   4.173  17.137 -0.1861 -0.1157  0.1733
15556TIP3    H168159   5.029   4.264  17.158 -1.4183 -0.4824  0.6646
15556TIP3    H268160   5.034   4.167  17.042 -0.8132  0.0241  0.2595
15557TIP3   OH268161   4.490   4.873   0.993 -0.0777  0.3002  0.1037
15557TIP3    H168162   4.552   4.800   0.993 -0.1776  0.1700 -2.3841
15557TIP3    H268163   4.404   4.831   0.999 -0.0556  0.3207  0.5813
15558TIP3   OH268164   0.694   1.391   3.855  0.0829  0.3977 -0.2064
15558TIP3    H168165   0.750   1.410   3.780 -1.6439 -1.8306 -2.1470
15558TIP3    H268166   0.717   1.301   3.880 -0.1122  0.7413  1.2554
15559TIP3   OH268167   5.537   5.585   4.036 -0.2441  0.0119 -0.8160
15559TIP3    H168168   5.565   5.496   4.014  1.8769  0.3267  0.5334
15559TIP3    H268169   5.547   5.633   3.953  2.0915 -0.1862 -0.6988
15560TIP3   OH268170   4.438   2.306   6.220  0.0782  0.1455 -0.3302
15560TIP3    H168171   4.428   2.211   6.213  2.1396 -0.0382 -1.1311
15560TIP3    H268172   4.370   2.342   6.162 -0.2697 -0.8588 -0.5508
15561TIP3   OH268173   3.510   2.537  14.607  0.2218 -0.0246  0.2425
15561TIP3    H168174   3.459   2.507  14.532  1.3627 -0.8321 -0.2238
15561TIP3    H268175   3.586   2.479  14.609  0.3088  0.1122  1.9047
15562TIP3   OH268176   5.896   1.926  10.990  0.2582  0.1793 -1.1873
15562TIP3    H168177   5.893   1.878  10.908 -1.2383  0.2447 -1.1848
15562TIP3    H268178   5.916   1.859  11.056 -0.8467 -0.2683 -1.3082
15563TIP3   OH268179   0.680   3.509  13.764  0.0865  0.8355 -0.4905
15563TIP3    H168180   0.613   3.560  13.718 -0.1305 -0.1207 -1.2485
15563TIP3    H268181   0.762   3.551  13.741 -0.0195  0.3506 -1.7882
15564TIP3   OH268182   0.337   1.382  13.631 -0.4773  0.5047 -0.8938
15564TIP3    H168183   0.333   1.294  13.592 -0.0747 -0.1964  0.6054
15564TIP3    H268184   0.271   1.432  13.584  0.1292 -0.2575 -2.6140
15565TIP3   OH268185   0.948   4.892   4.831  0.8415 -0.6160  0.5911
15565TIP3    H168186   0.978   4.904   4.921 -0.2895 -0.8955  1.0142
15565TIP3    H268187   1.007   4.826   4.795 -0.5139 -2.7427  2.0775
15566TIP3   OH268188   0.054   2.167   5.704  0.0967 -0.0576  0.1604
15566TIP3    H168189   0.093   2.254   5.712  0.0170 -0.0663  0.6121
15566TIP3    H268190   0.126   2.113   5.670 -0.0370  0.3210 -0.7556
15567TIP3   OH268191   4.914   0.381  10.716 -0.0630 -0.0910  0.2523
15567TIP3    H168192   4.860   0.439  10.770 -0.0559  0.4355 -0.2937
15567TIP3    H268193   4.862   0.301  10.709 -1.5550  0.9854 -1.6105
15568TIP3   OH268194   4.165   2.287  12.202 -0.3267  0.5137  0.2059
15568TIP3    H168195   4.229   2.354  12.178  0.0367  1.3099  3.1532
15568TIP3    H268196   4.082   2.318  12.165 -0.0437  2.3232  1.0196
15569TIP3   OH268197   2.270   0.330   5.907 -0.6485  0.2911  0.0423
15569TIP3    H168198   2.301   0.334   5.816 -1.1682 -1.0663 -0.2194
15569TIP3    H268199   2.317   0.400   5.952  1.4243 -0.5502 -0.7514
15570TIP3   OH268200   3.018   5.511  12.812  0.1558  0.0338 -0.4687
15570TIP3    H168201   2.938   5.499  12.863  0.3276 -0.7780 -0.3875
15570TIP3    H268202   3.078   5.555  12.872  0.1348 -0.3304 -0.1778
15571TIP3   OH268203   4.379   4.874   3.811 -0.1511 -0.1117  0.3765
15571TIP3    H168204   4.359   4.937   3.741  1.1805  0.2121  0.2732
15571TIP3    H268205   4.380   4.927   3.891 -0.0268 -0.1846  0.4230
15572TIP3   OH268206   1.102   0.743   4.977  0.1766  0.1345  0.8036
15572TIP3    H168207   1.073   0.754   5.068  0.8816 -0.4088  1.0967
15572TIP3    H268208   1.054   0.810   4.929  0.3574  0.9238  1.6983
15573TIP3   OH268209   1.835   2.957  17.009  0.5996  0.1433  0.3839
15573TIP3    H168210   1.810   2.947  17.101  0.9193 -0.3993  0.4144
15573TIP3    H268211   1.820   3.050  16.990  0.5264  0.2560  0.9805
15574TIP3   OH268212   6.249   6.047  11.045 -0.3104 -0.2764 -0.1214
15574TIP3    H168213   6.170   6.098  11.026  0.5053  1.2294  0.4204
15574TIP3    H268214   6.298   6.047  10.963 -1.5248 -2.4513 -0.8834
15575TIP3   OH268215   2.049   1.819   5.464  0.4148 -0.1330  0.2534
15575TIP3    H168216   2.133   1.823   5.510  1.2725  0.3592 -1.3492
15575TIP3    H268217   2.017   1.730   5.481  2.3038 -1.0583 -0.9563
15576TIP3   OH268218   3.856   4.858   4.555  0.6736  0.2045  0.4361
15576TIP3    H168219   3.835   4.786   4.615  1.1210  1.5485  2.2389
15576TIP3    H268220   3.774   4.874   4.507  0.1880 -0.5854  1.0028
15577TIP3   OH268221   2.820   2.190  11.012 -0.1854 -0.2466  0.9749
15577TIP3    H168222   2.880   2.120  10.988 -1.1725 -0.8824  0.2854
15577TIP3    H268223   2.733   2.154  10.992 -0.5366  2.4246 -2.7240
15578TIP3   OH268224   3.087   6.758   5.939 -0.0228 -0.3823  0.5019
15578TIP3    H168225   3.120   6.848   5.939  1.2268 -0.8255  0.2271
15578TIP3    H268226   2.995   6.766   5.917  0.3444  0.7394 -0.6840
15579TIP3   OH268227   5.656   0.893  14.559  0.1609  0.1470 -0.2322
15579TIP3    H168228   5.696   0.979  14.544 -1.6171  0.8547 -1.1321
15579TIP3    H268229   5.682   0.870  14.648  1.5569  1.1179 -0.3666
15580TIP3   OH268230   2.083   5.789   3.331 -0.0971  0.5263 -0.4456
15580TIP3    H168231   1.999   5.744   3.319  0.4034 -0.4129 -0.4445
15580TIP3    H268232   2.071   5.873   3.286 -0.8990  0.2332 -0.7957
15581TIP3   OH268233   2.862   3.666  10.871 -0.4570  0.6089 -0.0596
15581TIP3    H168234   2.830   3.611  10.942 -0.1142  1.4793  0.7929
15581TIP3    H268235   2.789   3.672  10.810 -0.6668 -0.3650  0.0897
15582TIP3   OH268236   5.128   3.139  11.295  0.2512  0.5135 -0.2233
15582TIP3    H168237   5.139   3.184  11.379 -0.3620  1.7514 -0.8002
15582TIP3    H268238   5.037   3.107  11.297 -0.2535  1.8609 -1.0400
15583TIP3   OH268239   6.312   6.464  14.111  0.1188  0.7038  0.0014
15583TIP3    H168240   6.248   6.525  14.147  0.8478  0.5019  1.7201
15583TIP3    H268241   6.270   6.379  14.115 -0.7607  1.0312 -2.0500
15584TIP3   OH268242   0.376   6.205  11.498 -0.2549  0.6870  0.3646
15584TIP3    H168243   0.452   6.263  11.496  0.9566 -0.8841  0.3079
15584TIP3    H268244   0.387   6.153  11.577  0.2469 -1.5644 -1.1626
15585TIP3   OH268245   3.722   5.198   5.646 -0.0045 -0.3940 -0.7230
15585TIP3    H168246   3.684   5.282   5.620 -1.0707 -0.4594  0.5834
15585TIP3    H268247   3.768   5.218   5.728 -0.9240 -1.2381  0.0104
15586TIP3   OH268248   6.269   1.708  15.912  0.3472 -0.5547 -0.7369
15586TIP3    H168249   6.265   1.790  15.863 -0.8702 -0.4611 -0.4955
15586TIP3    H268250   6.263   1.734  16.004  1.5820 -0.8061 -0.5757
15587TIP3   OH268251   1.559   3.940  15.176  0.0186 -0.1512  0.3945
15587TIP3    H168252   1.648   3.907  15.182  0.6204  1.1298 -1.0296
15587TIP3    H268253   1.521   3.894  15.101  0.2629  0.9888 -0.4501
15588TIP3   OH268254   0.363   3.889  11.104  0.2840  0.2766 -0.7713
15588TIP3    H168255   0.330   3.812  11.057 -1.3520  1.0024 -0.8407
15588TIP3    H268256   0.397   3.853  11.187 -1.6310 -0.3854 -0.2462
15589TIP3   OH268257   3.185   3.776   1.151  0.0458  0.2177  0.3918
15589TIP3    H168258   3.104   3.800   1.196  0.3479 -0.1051  1.1206
15589TIP3    H268259   3.167   3.791   1.059 -0.5797  0.9069  0.6213
15590TIP3   OH268260   0.135   4.144   2.819  0.0490 -0.2791  0.1671
15590TIP3    H168261   0.078   4.122   2.746 -0.6319  1.2293  0.2383
15590TIP3    H268262   0.195   4.210   2.784 -1.6437  2.0283  1.5383
15591TIP3   OH268263   6.048   3.971   3.890 -0.4895  0.2930  0.3294
15591TIP3    H168264   6.059   3.880   3.864 -2.9094 -0.0517  0.4142
15591TIP3    H268265   5.972   4.001   3.839 -0.3967  1.9266  1.1356
15592TIP3   OH268266   6.259   6.350   2.260 -0.1359  0.3477 -0.4994
15592TIP3    H168267   6.252   6.286   2.331  1.5559 -1.5145 -1.9493
15592TIP3    H268268   6.186   6.330   2.201  2.1623 -2.3554 -2.5433
15593TIP3   OH268269   3.900   2.829  14.511 -0.0464 -0.4498 -0.2529
15593TIP3    H168270   3.936   2.916  14.531  1.4131 -0.6397 -1.9628
15593TIP3    H268271   3.820   2.824  14.564  0.3140  1.5767  0.5461
15594TIP3   OH268272   2.108   5.457  11.680 -0.6002 -0.2202 -0.1122
15594TIP3    H168273   2.023   5.491  11.651 -0.6397  0.1707  0.4267
15594TIP3    H268274   2.172   5.503  11.626 -0.6583  0.6827  0.5682
15595TIP3   OH268275   4.288   5.476   3.234 -0.4677  1.0462  0.7394
15595TIP3    H168276   4.269   5.478   3.328  0.0080 -0.6007  0.8884
15595TIP3    H268277   4.381   5.455   3.230 -0.5784  0.7249 -0.1146
15596TIP3   OH268278   3.089   4.215   5.443 -0.2733 -0.2906  0.3228
15596TIP3    H168279   3.123   4.281   5.383 -2.2197  1.8424  1.4672
15596TIP3    H268280   3.129   4.133   5.415  2.5927  1.4543 -0.8390
15597TIP3   OH268281   4.691   2.135  16.470  0.1224 -0.6715 -0.5636
15597TIP3    H168282   4.694   2.076  16.545  0.0441 -0.1369 -0.1377
15597TIP3    H268283   4.754   2.204  16.491 -1.1156  0.3814 -0.2124
15598TIP3   OH268284   4.341   4.266   3.508 -0.5491  0.1082 -0.5957
15598TIP3    H168285   4.308   4.182   3.475 -1.5000  0.4183 -0.4242
15598TIP3    H268286   4.436   4.255   3.508 -0.7423 -2.3648  3.0749
15599TIP3   OH268287   0.138   4.517   1.976  0.2836 -0.5368  0.5614
15599TIP3    H168288   0.052   4.517   1.933  0.1067 -1.6607  0.8773
15599TIP3    H268289   0.199   4.544   1.908 -0.3571  0.5437  0.4095
15600TIP3   OH268290   4.390   6.151   0.758  0.4133 -0.1847  0.4644
15600TIP3    H168291   4.392   6.060   0.789 -1.1434 -0.5453 -0.4525
15600TIP3    H268292   4.328   6.150   0.686  0.7469  1.5290  0.1417
15601TIP3   OH268293   0.125   2.190   0.019  0.4327 -0.6199  0.6931
15601TIP3    H168294   0.158   2.246  -0.052  0.1967  0.6986  1.6179
15601TIP3    H268295   0.204   2.155   0.060  0.5722 -1.8577 -0.5554
15602TIP3   OH268296   1.573   0.970   3.062  0.2587  0.9495 -0.2569
15602TIP3    H168297   1.662   0.945   3.039  0.3231  0.7105  0.2453
15602TIP3    H268298   1.545   0.903   3.124 -0.5076  0.6345 -0.9227
15603TIP3   OH268299   5.377   3.682  14.111 -0.0061  0.7011  0.3345
15603TIP3    H168300   5.332   3.602  14.137  1.2350  0.5257  2.0734
15603TIP3    H268301   5.337   3.707  14.029 -0.9940 -1.2529  0.1972
15604TIP3   OH268302   4.209   2.967   0.311  0.0481 -0.0878  0.6758
15604TIP3    H168303   4.218   2.924   0.396  1.8979 -0.6296  0.2306
15604TIP3    H268304   4.295   3.008   0.296  0.3382 -1.5090 -1.7235
15605TIP3   OH268305   0.177   3.058   1.514  0.2735  0.0641  0.1064
15605TIP3    H168306   0.174   3.004   1.435  3.1289  0.9885 -0.6864
15605TIP3    H268307   0.234   3.131   1.491  0.4293  0.8255  2.7508
15606TIP3   OH268308   1.044   3.061  15.643 -0.1848 -0.0227  0.1628
15606TIP3    H168309   0.967   3.008  15.665 -1.3882  1.7201  0.2927
15606TIP3    H268310   1.032   3.084  15.551  0.8099 -0.7144 -0.1556
15607TIP3   OH268311   0.605   3.712  16.001  0.2995 -0.0847 -0.5577
15607TIP3    H168312   0.515   3.696  15.972 -0.7713  2.3163  1.3105
15607TIP3    H268313   0.656   3.717  15.920 -1.4330 -0.2532 -1.6876
15608TIP3   OH268314   2.034   4.339   4.794  0.1279 -0.0404 -0.4032
15608TIP3    H168315   2.004   4.418   4.749  0.0048 -0.4284 -0.9983
15608TIP3    H268316   1.956   4.285   4.802  0.3826 -0.4488 -0.6999
15609TIP3   OH268317   2.992   3.771   0.095 -0.1594  0.0196  0.4753
15609TIP3    H168318   3.059   3.795   0.159 -0.9685  3.5100  0.1163
15609TIP3    H268319   2.910   3.767   0.145  0.0495 -3.1605  0.7049
15610TIP3   OH268320   5.333   4.625  11.081 -0.1620 -0.5348 -0.2267
15610TIP3    H168321   5.416   4.622  11.033 -0.6348  1.5569 -1.2747
15610TIP3    H268322   5.338   4.554  11.144  1.6942 -1.5450 -1.4738
15611TIP3   OH268323   3.155   4.899   0.071 -0.0069  0.1085  0.2283
15611TIP3    H168324   3.060   4.907   0.064 -0.2832 -1.4535  2.0193
15611TIP3    H268325   3.177   4.828   0.011 -0.0097  0.1689  0.1559
15612TIP3   OH268326   3.153   5.817   5.705  0.1712 -0.2876  0.5536
15612TIP3    H168327   3.107   5.898   5.684 -0.1383 -0.7813 -0.6904
15612TIP3    H268328   3.139   5.806   5.800 -0.7675  0.5053  0.5152
15613TIP3   OH268329   1.109   3.033   2.867  0.4279 -0.8474 -0.2053
15613TIP3    H168330   1.190   2.984   2.863  1.5147  0.8641  0.3539
15613TIP3    H268331   1.089   3.041   2.960 -1.7780 -3.4376 -0.3832
15614TIP3   OH268332   3.060   6.119  10.990  0.3611  0.3109  0.5735
15614TIP3    H168333   3.054   6.205  10.948 -0.5628 -0.1171 -0.1729
15614TIP3    H268334   3.033   6.057  10.923  1.4530 -0.6139  0.9770
15615TIP3   OH268335   6.358   6.526   5.724 -0.2392 -0.2526 -0.1015
15615TIP3    H168336   6.273   6.551   5.687  0.2790 -0.7622 -1.6877
15615TIP3    H268337   6.422   6.556   5.659  1.0138  2.3950  2.2311
15616TIP3   OH268338   6.290   4.382  11.323  0.1874 -0.4746  0.0704
15616TIP3    H168339   6.280   4.307  11.264  2.2963 -2.5369  2.1953
15616TIP3    H268340   6.309   4.456  11.265 -0.6177 -1.8496 -2.0048
15617TIP3   OH268341   6.232   5.705  14.953  0.1702 -0.4159  0.2700
15617TIP3    H168342   6.278   5.629  14.917  1.4509 -0.0485  1.0920
15617TIP3    H268343   6.295   5.777  14.947 -1.1884  0.6954 -0.9060
15618TIP3   OH268344   2.851   0.093   1.256 -0.5399  0.4656 -0.0408
15618TIP3    H168345   2.775   0.151   1.255 -1.2154 -0.2930  2.8336
15618TIP3    H268346   2.813   0.005   1.260  0.4922  0.0673  1.1079
15619TIP3   OH268347   4.717   6.595   4.605 -0.0175  0.0967  0.0313
15619TIP3    H168348   4.625   6.619   4.596 -0.2056  0.9732  3.6151
15619TIP3    H268349   4.749   6.589   4.515 -3.5223 -0.1224 -1.2940
15620TIP3   OH268350   5.490   5.078   1.805 -0.5600 -0.4963 -0.2368
15620TIP3    H168351   5.488   5.084   1.901 -0.5234 -0.6330 -0.2277
15620TIP3    H268352   5.455   4.992   1.785  2.4575 -1.8055 -0.2026
15621TIP3   OH268353   1.862   5.032  14.630  0.7204 -0.1137  0.2212
15621TIP3    H168354   1.818   5.060  14.550 -1.5382 -4.0183 -0.0147
15621TIP3    H268355   1.906   4.950  14.606  0.8312 -0.8224  2.7108
15622TIP3   OH268356   1.802   2.858   4.970  0.3076  0.4507  0.4578
15622TIP3    H168357   1.811   2.764   4.983  2.3202  0.4692 -0.5883
15622TIP3    H268358   1.793   2.894   5.059  0.3130 -0.6617  0.9144
15623TIP3   OH268359   2.726   3.400  11.559 -0.3703 -0.4483 -0.6111
15623TIP3    H168360   2.712   3.334  11.626  2.5885 -1.0000 -0.4627
15623TIP3    H268361   2.746   3.350  11.480 -1.2324  0.2326 -1.2684
15624TIP3   OH268362   1.388   4.308  13.524 -0.1187 -0.5043 -0.3431
15624TIP3    H168363   1.365   4.279  13.612 -0.5275  1.5455  0.2476
15624TIP3    H268364   1.322   4.374  13.502  2.4008  2.1131 -0.4658
15625TIP3   OH268365   5.429   0.367   4.460  0.5316  0.0834  0.1304
15625TIP3    H168366   5.495   0.432   4.437 -2.1980  2.3724 -1.5328
15625TIP3    H268367   5.388   0.403   4.539 -0.4897  0.0195 -0.3713
15626TIP3   OH268368   2.303   2.876   4.606  0.1413 -0.2760  0.0495
15626TIP3    H168369   2.294   2.881   4.511  2.1989  2.8387 -0.0288
15626TIP3    H268370   2.391   2.842   4.619 -1.1049 -3.3836  0.9122
15627TIP3   OH268371   4.076   1.943   2.118  0.1112 -0.3730  0.1722
15627TIP3    H168372   4.030   1.876   2.068 -0.0020  0.0947 -0.3640
15627TIP3    H268373   4.151   1.898   2.156  0.2427 -0.7171 -0.4881
15628TIP3   OH268374   0.105   0.920   4.526 -0.1440 -0.4361 -0.4348
15628TIP3    H168375   0.049   0.970   4.587  2.5787  2.0057  0.1600
15628TIP3    H268376   0.044   0.861   4.482 -2.7093 -0.0861  2.4242
15629TIP3   OH268377   3.437   5.274   3.292 -0.3677  0.8169 -0.3203
15629TIP3    H168378   3.506   5.323   3.337  0.1235 -0.7706  0.6646
15629TIP3    H268379   3.376   5.342   3.264 -0.5874  1.8972  2.5360
15630TIP3   OH268380   5.973   4.203   4.881 -0.3878 -0.0900  0.0836
15630TIP3    H168381   5.945   4.233   4.967 -0.4298 -2.2746  0.8775
15630TIP3    H268382   5.952   4.275   4.822 -0.5867  1.3337  1.8601
15631TIP3   OH268383   2.981   3.859   5.456  0.1072 -0.0291  0.2691
15631TIP3    H168384   3.002   3.813   5.538 -0.9422 -2.4303 -0.7660
15631TIP3    H268385   3.049   3.832   5.395  0.6768  1.4757  0.2030
15632TIP3   OH268386   4.964   2.413  12.023 -0.2259 -0.5186  0.3165
15632TIP3    H168387   5.035   2.406  12.087  1.3109  0.2844 -1.2431
15632TIP3    H268388   4.939   2.322  12.006  1.2723 -0.8922  0.0096
15633TIP3   OH268389   4.093   3.954   3.031  0.4763 -0.5590  0.1714
15633TIP3    H168390   4.042   3.983   2.955  0.7320 -0.4231  0.0494
15633TIP3    H268391   4.125   4.035   3.070  1.7738 -0.6931 -0.5731
15634TIP3   OH268392   5.979   3.983   0.034  0.3222 -0.7586 -0.7710
15634TIP3    H168393   5.947   4.050  -0.026  0.2929 -0.9458 -0.9655
15634TIP3    H268394   5.984   3.904  -0.019 -0.0626 -1.0104 -0.4342
15635TIP3   OH268395   2.220   6.441  13.266  0.3100  0.3971  0.1428
15635TIP3    H168396   2.298   6.386  13.258  1.1495  1.6612 -0.6082
15635TIP3    H268397   2.148   6.379  13.279  1.1212 -0.9361 -1.4752
15636TIP3   OH268398   1.493   1.490   5.362  0.0349 -0.1266  0.3801
15636TIP3    H168399   1.532   1.536   5.436 -0.1136 -0.7121  0.8246
15636TIP3    H268400   1.460   1.408   5.399 -0.0109 -0.4359 -0.3384
15637TIP3   OH268401   3.961   5.065   3.871 -0.4865  0.2998  0.6630
15637TIP3    H168402   3.950   4.974   3.842  1.8352  0.2217 -0.0105
15637TIP3    H268403   3.902   5.073   3.947 -1.4952 -1.4511  0.0837
15638TIP3   OH268404   0.016   3.367  17.019 -0.3345 -0.5299  0.5757
15638TIP3    H168405  -0.015   3.278  17.034 -0.9628 -0.4273 -0.1022
15638TIP3    H268406   0.108   3.365  17.045 -0.1213 -1.5899 -0.2358
15639TIP3   OH268407   5.532   1.045  12.074  0.5775  0.0985 -0.4494
15639TIP3    H168408   5.612   1.074  12.031  0.3677  0.2603 -0.7350
15639TIP3    H268409   5.481   1.125  12.087  0.1809 -0.0850 -0.8600
15640TIP3   OH268410   2.780   6.760   5.918 -0.0574  0.3786  0.5375
15640TIP3    H168411   2.694   6.802   5.911  0.3173  1.0880  0.1604
15640TIP3    H268412   2.767   6.690   5.983 -0.8491  0.6573  0.6854
15641TIP3   OH268413   1.664   2.279  17.197 -0.4795 -0.5726 -0.5654
15641TIP3    H168414   1.751   2.280  17.157 -0.0906 -0.5208  0.2777
15641TIP3    H268415   1.662   2.199  17.250 -0.7272 -0.2806 -0.1231
15642TIP3   OH268416   3.484   2.948  12.307 -0.7620 -0.0954  0.0903
15642TIP3    H168417   3.550   3.018  12.301  0.1387 -0.9155  0.3826
15642TIP3    H268418   3.527   2.871  12.271 -0.5043 -1.3728  2.9744
15643TIP3   OH268419   2.213   5.707  15.350  0.3138  0.4657 -0.2258
15643TIP3    H168420   2.203   5.647  15.423  2.6018  0.6704  0.2992
15643TIP3    H268421   2.142   5.685  15.290  0.9378 -2.5374  0.0947
15644TIP3   OH268422   5.689   2.941  16.729  0.0202 -0.3082 -0.1212
15644TIP3    H168423   5.639   2.876  16.680  0.8538 -1.6872  0.8460
15644TIP3    H268424   5.726   2.893  16.803  1.8697  0.9310 -0.2083
15645TIP3   OH268425   4.024   1.090   5.051  0.3342 -0.1088 -0.4041
15645TIP3    H168426   4.016   1.180   5.019  0.6659  1.0513  2.6992
15645TIP3    H268427   3.971   1.087   5.130  0.2846 -2.6909 -0.4813
15646TIP3   OH268428   3.831   2.024  14.928 -0.6161  0.5410 -0.3835
15646TIP3    H168429   3.829   2.080  15.005  0.1979  0.1480 -0.0697
15646TIP3    H268430   3.916   2.041  14.888 -0.1716 -0.7730 -0.0403
15647TIP3   OH268431   4.241   2.880   1.054 -0.0126  1.1937  0.3471
15647TIP3    H168432   4.166   2.909   1.002  0.8500 -0.0687 -1.6756
15647TIP3    H268433   4.292   2.960   1.070  0.1743  1.4795 -1.5628
15648TIP3   OH268434   2.419   2.500   1.480  0.3591  0.5689  0.0111
15648TIP3    H168435   2.346   2.490   1.420 -0.4847 -1.1583  1.2761
15648TIP3    H268436   2.381   2.542   1.558  1.3857  2.5747 -0.5422
15649TIP3   OH268437   5.323   1.966  16.983  0.3811 -0.5736 -0.1309
15649TIP3    H168438   5.352   2.024  17.053 -0.1319  0.3651 -0.6815
15649TIP3    H268439   5.396   1.964  16.921  0.4337 -0.5955 -0.0679
15650TIP3   OH268440   2.939   4.550   0.215  0.5134 -0.1487  0.7359
15650TIP3    H168441   2.890   4.508   0.144  2.3706  1.6500 -1.6882
15650TIP3    H268442   2.936   4.487   0.286 -0.6734 -2.3974 -1.2205
15651TIP3   OH268443   5.813   6.569   3.938  0.3873  0.2017 -0.1309
15651TIP3    H168444   5.797   6.603   4.026  0.0031 -0.2193 -0.0354
15651TIP3    H268445   5.733   6.520   3.916  0.8444 -0.4659 -0.3389
15652TIP3   OH268446   3.991   4.977   1.694 -0.3704  0.1772  0.3542
15652TIP3    H168447   3.924   4.955   1.629 -2.1162  0.1966  2.0872
15652TIP3    H268448   4.000   4.897   1.746  0.8042  0.2506  0.2663
15653TIP3   OH268449   3.823   1.810   3.864 -0.5901  0.2115  0.4120
15653TIP3    H168450   3.823   1.894   3.910  1.4822 -1.0469  2.8221
15653TIP3    H268451   3.733   1.800   3.833 -1.4466  2.2436  2.1134
15654TIP3   OH268452   5.829   2.673   5.398 -0.5816  0.7135  0.6958
15654TIP3    H168453   5.877   2.754   5.384 -1.3647  1.2943  1.3337
15654TIP3    H268454   5.812   2.671   5.492 -1.7137  0.4516  0.4866
15655TIP3   OH268455   2.044   6.570   1.253  0.1396  0.7308 -0.3388
15655TIP3    H168456   1.990   6.639   1.292  0.4392  0.7458  0.0495
15655TIP3    H268457   2.122   6.566   1.309 -1.8589 -3.0669  2.3783
15656TIP3   OH268458   2.612   5.934  15.278  0.4807  0.0590 -0.3286
15656TIP3    H168459   2.637   5.849  15.314  1.1212  1.3525  2.4005
15656TIP3    H268460   2.695   5.982  15.268 -0.0463  1.0620  0.0058
15657TIP3   OH268461   6.786   3.923   5.903  0.4581  0.0815 -0.0216
15657TIP3    H168462   6.871   3.906   5.862  1.8427  1.9827  1.9802
15657TIP3    H268463   6.807   3.964   5.987 -2.4695  1.4559  0.0986
15658TIP3   OH268464   1.261   6.618  15.045  0.6674  0.2998  0.0127
15658TIP3    H168465   1.210   6.682  14.995  0.1816  0.0794  0.2235
15658TIP3    H268466   1.214   6.536  15.032 -0.4776  0.5604  2.2874
15659TIP3   OH268467   5.370   0.199   5.480  0.2445  0.2300  0.5386
15659TIP3    H168468   5.441   0.178   5.419  0.2029  0.3110  0.4608
15659TIP3    H268469   5.366   0.295   5.479 -2.3394  0.1876 -2.3751
15660TIP3   OH268470   5.574   0.762   0.078 -0.0511  0.4431 -0.3220
15660TIP3    H168471   5.587   0.855   0.092  0.2901  0.0745  1.9513
15660TIP3    H268472   5.659   0.729   0.049 -0.4145  0.9739 -2.0674
15661TIP3   OH268473   2.983   0.272  15.385  0.3475 -0.0031 -0.0269
15661TIP3    H168474   2.906   0.249  15.335  0.4198 -0.4397  0.0584
15661TIP3    H268475   2.962   0.245  15.475 -0.0059  1.2856  0.2907
15662TIP3   OH268476   3.816   6.506  12.538  0.0765 -0.1859 -0.3615
15662TIP3    H168477   3.793   6.485  12.447  0.9291  0.2676 -0.6805
15662TIP3    H268478   3.863   6.589  12.532 -0.2060  0.0341  0.5379
15663TIP3   OH268479   0.204   3.407  14.507  0.0441  0.1984  0.1859
15663TIP3    H168480   0.154   3.335  14.469  2.2554 -0.9839 -0.5670
15663TIP3    H268481   0.209   3.472  14.437  3.2991 -1.5753 -1.3164
15664TIP3   OH268482   0.217   4.376   0.662 -0.8324  0.1622 -0.5582
15664TIP3    H168483   0.212   4.393   0.756 -0.0927 -0.3676 -0.4183
15664TIP3    H268484   0.308   4.349   0.647 -0.1111  3.1176 -1.9065
15665TIP3   OH268485   1.051   2.724  14.501  0.6091  0.0431 -0.1997
15665TIP3    H168486   1.111   2.792  14.471  1.1623  0.2643  1.3360
15665TIP3    H268487   0.972   2.736  14.448  1.2196  0.9815 -0.9091
15666TIP3   OH268488   3.205   3.473   3.477  0.4863 -0.3968  0.2485
15666TIP3    H168489   3.269   3.467   3.547 -0.3302 -1.6011  0.9079
15666TIP3    H268490   3.253   3.510   3.403  1.3057  1.0914  1.5029
15667TIP3   OH268491   1.588   5.064  14.502 -0.2407 -0.5487 -0.4609
15667TIP3    H168492   1.619   5.056  14.592  1.8823 -1.4699 -1.2551
15667TIP3    H268493   1.530   4.989  14.490 -0.2654 -0.6064  0.0160
15668TIP3   OH268494   2.051   6.013   6.017  0.8712 -0.0286 -0.4653
15668TIP3    H168495   2.066   6.107   6.007  1.0556 -0.1107 -0.9699
15668TIP3    H268496   2.003   6.006   6.100  1.0623  0.4860 -0.3036
15669TIP3   OH268497   2.079   1.054  17.241 -0.1005 -0.3915  0.2100
15669TIP3    H168498   1.994   1.095  17.228  0.0454 -0.0646  0.3019
15669TIP3    H268499   2.061   0.960  17.237 -0.2079 -0.3060 -1.3794
15670TIP3   OH268500   4.906   0.480  16.508  0.2316  0.1600 -0.3813
15670TIP3    H168501   4.996   0.452  16.520  0.1529  0.2794  0.4702
15670TIP3    H268502   4.856   0.431  16.573  0.1571  2.5905  1.4814
15671TIP3   OH268503   0.604   1.753   1.395  0.0147 -0.1386  0.5075
15671TIP3    H168504   0.579   1.845   1.385  0.1952 -0.1350  0.0871
15671TIP3    H268505   0.531   1.704   1.356 -0.0546 -0.1768  0.6803
15672TIP3   OH268506   3.395   3.888  14.427 -0.4040  0.3702 -0.5101
15672TIP3    H168507   3.372   3.980  14.413  1.5694  0.6094 -2.5701
15672TIP3    H268508   3.333   3.839  14.373  0.0597  0.6619 -1.3226
15673TIP3   OH268509   4.735   2.123   1.027  0.4807 -0.3531  0.3391
15673TIP3    H168510   4.641   2.129   1.045  0.5109  2.1431 -0.0514
15673TIP3    H268511   4.746   2.040   0.982 -2.2327  1.1197 -3.2943
15674TIP3   OH268512   5.850   5.557   3.482 -0.3169  0.5939 -0.2965
15674TIP3    H168513   5.757   5.537   3.494  0.1594 -1.9721 -0.4418
15674TIP3    H268514   5.891   5.471   3.474  1.8412  1.7341 -1.9775
15675TIP3   OH268515   6.373   1.523   1.342  0.3396 -0.5973  0.6860
15675TIP3    H168516   6.361   1.523   1.437 -0.6900 -0.7490  0.5595
15675TIP3    H268517   6.314   1.455   1.310  0.0137  0.0628 -0.1460
15676TIP3   OH268518   1.910   4.076  15.842 -1.1054  0.4211 -0.1321
15676TIP3    H168519   1.820   4.108  15.841 -1.5363 -0.7789 -0.8446
15676TIP3    H268520   1.950   4.114  15.764 -0.9543  1.0739  0.2643
15677TIP3   OH268521   3.236   0.549  16.883  0.1080  0.0403  0.0511
15677TIP3    H168522   3.199   0.484  16.824 -0.9921 -0.8932  1.7264
15677TIP3    H268523   3.324   0.566  16.849  0.2676 -2.0358 -0.6086
15678TIP3   OH268524   5.879   4.469  12.470 -0.0014  0.0225 -0.3429
15678TIP3    H168525   5.826   4.548  12.459  0.9973  0.5540 -1.3808
15678TIP3    H268526   5.954   4.482  12.413  0.0692 -1.7866 -0.6850
15679TIP3   OH268527   5.674   6.614   3.226  0.0118  0.0512  0.3665
15679TIP3    H168528   5.734   6.645   3.294  2.2483  0.0244 -1.5313
15679TIP3    H268529   5.702   6.659   3.146 -1.8382 -0.7599 -0.7838
15680TIP3   OH268530   0.135   5.632  13.255  0.2301  0.7044  0.6108
15680TIP3    H168531   0.136   5.708  13.198  0.3428  1.1544  1.2135
15680TIP3    H268532   0.049   5.592  13.240 -0.6212  2.0727  1.7779
15681TIP3   OH268533   2.485   5.005   6.119  0.3120 -0.3658 -0.0797
15681TIP3    H168534   2.558   4.975   6.172  0.7843  0.4497 -0.2685
15681TIP3    H268535   2.479   5.099   6.136 -1.1907 -0.5472  0.5478
15682TIP3   OH268536   4.407   2.115  13.971 -0.3169 -1.1489 -0.1061
15682TIP3    H168537   4.477   2.141  14.031  0.3721 -1.7431 -0.6569
15682TIP3    H268538   4.428   2.157  13.888 -2.0280  0.8373  0.4113
15683TIP3   OH268539   2.464   5.732  11.587  0.4432  0.1562 -0.0489
15683TIP3    H168540   2.490   5.647  11.622 -1.5460 -0.9485 -1.1768
15683TIP3    H268541   2.512   5.796  11.640 -0.1479 -1.5593  2.6397
15684TIP3   OH268542   1.558   2.393  11.113 -0.2724  0.3477  0.3796
15684TIP3    H168543   1.478   2.445  11.121 -0.9688 -0.7831  0.8909
15684TIP3    H268544   1.531   2.304  11.135  1.1463 -0.0359  0.6217
15685TIP3   OH268545   6.309   3.091  16.659 -0.3330 -0.0964  0.0464
15685TIP3    H168546   6.241   3.026  16.644  0.4703 -0.6719 -1.1561
15685TIP3    H268547   6.281   3.168  16.610  0.1225 -0.5028 -0.8607
15686TIP3   OH268548   5.940   5.360   0.801  0.7421  0.2187  0.3763
15686TIP3    H168549   5.865   5.306   0.823 -0.2733  1.1810 -0.6207
15686TIP3    H268550   5.917   5.400   0.717  2.0440  1.1206  0.4259
15687TIP3   OH268551   4.773   1.597   4.823  0.1757  0.8203  0.2494
15687TIP3    H168552   4.750   1.572   4.913 -2.4170  0.6697 -0.4352
15687TIP3    H268553   4.721   1.539   4.768  0.0467  2.4572 -1.3754
15688TIP3   OH268554   4.705   0.755  13.128 -0.1729  0.3012  0.3544
15688TIP3    H168555   4.678   0.734  13.218 -0.8477  0.8963  0.2964
15688TIP3    H268556   4.798   0.730  13.125 -0.0663  0.5299  1.3035
15689TIP3   OH268557   2.720   2.829   0.101  0.3192 -0.1624  0.0520
15689TIP3    H168558   2.760   2.874   0.175 -1.9466 -0.6518  1.6061
15689TIP3    H268559   2.726   2.736   0.123  0.0958 -0.3465 -0.6330
15690TIP3   OH268560   3.658   4.093   1.631  0.3791  0.4233  0.0147
15690TIP3    H168561   3.605   4.171   1.614  0.1622  0.2003 -0.3335
15690TIP3    H268562   3.748   4.126   1.633  0.2530  0.7549  0.3259
15691TIP3   OH268563   3.776   2.925  12.213  0.8989 -0.1713 -0.1744
15691TIP3    H168564   3.779   2.934  12.117  1.1262  0.6218 -0.1001
15691TIP3    H268565   3.859   2.882  12.235  0.9724 -0.1026 -0.3119
15692TIP3   OH268566   3.335   5.735  10.562 -0.4734  0.4615 -0.2506
15692TIP3    H168567   3.297   5.704  10.480  2.0950 -2.0669 -0.5347
15692TIP3    H268568   3.428   5.716  10.555 -0.1999 -0.0078  3.3273
15693TIP3   OH268569   2.937   4.471   1.150 -0.2181  0.1954  0.4250
15693TIP3    H168570   2.883   4.463   1.229  1.0821 -0.2181  1.2894
15693TIP3    H268571   2.942   4.382   1.115  1.7993 -0.2087  1.6504
15694TIP3   OH268572   4.493   4.461  15.547  0.1453 -0.6236 -0.1386
15694TIP3    H168573   4.450   4.397  15.491 -1.1369 -0.4523  0.6255
15694TIP3    H268574   4.514   4.412  15.627 -2.3165  0.2604  1.1107
15695TIP3   OH268575   5.788   3.771   4.309 -0.7295 -0.6170  0.3918
15695TIP3    H168576   5.822   3.812   4.230  0.7265 -1.8678  0.3476
15695TIP3    H268577   5.693   3.766   4.295 -0.9049  2.3538  0.2580
15696TIP3   OH268578   4.034   4.009  15.959  0.0836  0.2289 -0.2499
15696TIP3    H168579   4.019   3.982  15.868  0.0560  2.0385 -0.8064
15696TIP3    H268580   3.970   4.080  15.973  0.3883  0.2538  1.0360
15697TIP3   OH268581   5.223   3.577   2.920 -0.1684  0.8741  0.4904
15697TIP3    H168582   5.162   3.577   2.845  1.3639 -1.8410 -0.8387
15697TIP3    H268583   5.177   3.527   2.987  0.8425 -1.8832 -0.7983
15698TIP3   OH268584   4.953   4.918  16.845  0.5006 -0.1596 -0.1082
15698TIP3    H168585   5.025   4.919  16.782  1.4580  0.0485  0.9742
15698TIP3    H268586   4.876   4.942  16.794  1.3224  0.3373 -1.1279
15699TIP3   OH268587   1.314   2.497  16.154  0.2748 -0.5415 -0.6586
15699TIP3    H168588   1.261   2.575  16.137 -0.7436 -1.2507 -0.8177
15699TIP3    H268589   1.387   2.529  16.207 -0.8646  0.3017  0.4595
15700TIP3   OH268590   2.438   5.751   3.267  0.0533 -0.2870 -0.0878
15700TIP3    H168591   2.513   5.772   3.211  0.6845  0.4679  1.0090
15700TIP3    H268592   2.364   5.746   3.207  0.5534  1.4201 -0.8874
15701TIP3   OH268593   3.310   4.480  15.657 -0.2169  0.2155  0.2001
15701TIP3    H168594   3.317   4.555  15.598 -0.5210  1.1448  1.3068
15701TIP3    H268595   3.400   4.464  15.687  0.1283 -1.0747 -1.4795
15702TIP3   OH268596   5.435   2.562  11.545 -0.3218  0.6544 -0.0771
15702TIP3    H168597   5.428   2.610  11.627  0.2727  0.7106 -0.0534
15702TIP3    H268598   5.510   2.602  11.501  1.0289 -1.1174  0.5377
15703TIP3   OH268599   4.543   6.784  13.570  0.4675 -0.0035 -0.2500
15703TIP3    H168600   4.467   6.804  13.515 -0.2891  1.3507  1.2363
15703TIP3    H268601   4.598   6.862  13.564  0.7229 -0.1349  0.3671
15704TIP3   OH268602   1.397   4.584   4.815  0.1739  0.2545  0.7973
15704TIP3    H168603   1.468   4.580   4.751  0.0196  1.1946  0.5540
15704TIP3    H268604   1.325   4.536   4.775 -0.3470  1.9080 -0.3101
15705TIP3   OH268605   1.004   0.723   0.344 -0.0760 -0.3147 -0.0432
15705TIP3    H168606   0.993   0.790   0.276  0.8203  0.7021  0.7972
15705TIP3    H268607   0.933   0.661   0.328 -0.1388  0.1438 -1.6383
15706TIP3   OH268608   6.144   2.329   4.277  0.4078 -0.7939 -0.2640
15706TIP3    H168609   6.206   2.294   4.341 -1.5705  0.8872  2.6801
15706TIP3    H268610   6.059   2.298   4.308 -0.8968  2.6057 -0.3237
15707TIP3   OH268611   2.533   3.331   1.683  0.2683 -0.0186 -0.0183
15707TIP3    H168612   2.502   3.250   1.642 -0.6124  0.2362  0.1329
15707TIP3    H268613   2.596   3.367   1.621 -0.9187  0.2767 -1.0562
15708TIP3   OH268614   5.001   3.359  15.065 -0.8426 -0.2387  0.1802
15708TIP3    H168615   5.081   3.377  15.017 -1.0913  1.2334  0.2966
15708TIP3    H268616   5.026   3.291  15.129  0.9322  1.8732  1.8136
15709TIP3   OH268617   5.566   2.523   3.930 -0.2389 -0.4687 -0.9093
15709TIP3    H168618   5.501   2.594   3.934  0.3304  0.0929 -1.4348
15709TIP3    H268619   5.531   2.455   3.987  1.0326  1.7426  2.6628
15710TIP3   OH268620   5.573   3.575   5.213  0.2734 -0.7350 -0.1348
15710TIP3    H168621   5.497   3.521   5.236 -0.3704  0.6609  1.1807
15710TIP3    H268622   5.537   3.663   5.200  1.6718 -0.0157  0.6720
15711TIP3   OH268623   5.776   1.225   3.326  0.4661 -0.0166  0.8502
15711TIP3    H168624   5.795   1.281   3.251 -0.9338  2.4106  2.2259
15711TIP3    H268625   5.857   1.223   3.376  0.5056  0.9188  0.8359
15712TIP3   OH268626   1.941   0.873  14.747 -0.3944 -0.0734 -0.3577
15712TIP3    H168627   1.883   0.949  14.755  0.2492  0.4273 -0.3820
15712TIP3    H268628   1.937   0.849  14.654  0.0612  0.4733 -0.5255
15713TIP3   OH268629   0.117   3.084   3.233 -0.3836  0.7828 -0.0493
15713TIP3    H168630   0.040   3.086   3.289  0.3002  0.2865  0.9187
15713TIP3    H268631   0.088   3.037   3.154 -1.2571  1.2171  0.0058
15714TIP3   OH268632   2.500   0.816  17.120 -0.4067 -0.3836 -0.1693
15714TIP3    H168633   2.531   0.726  17.121  0.3433 -0.1277 -0.1410
15714TIP3    H268634   2.470   0.832  17.209  0.1881 -0.3580  0.0308
15715TIP3   OH268635   3.916   4.219   3.678  0.2926  0.5612 -0.1838
15715TIP3    H168636   3.950   4.306   3.656  1.1065  0.2415 -0.2347
15715TIP3    H268637   3.974   4.188   3.748 -1.9489  1.3615  2.1247
15716TIP3   OH268638   0.356   5.390   6.735 -0.0291  0.3397 -0.5588
15716TIP3    H168639   0.287   5.452   6.759  0.1422 -0.8071  3.2799
15716TIP3    H268640   0.437   5.439   6.744  0.0619 -0.1832  1.8370
15717TIP3   OH268641   1.161   5.175  16.268  0.2494 -0.4935 -0.3231
15717TIP3    H168642   1.181   5.111  16.199  1.1114 -0.6055  0.0328
15717TIP3    H268643   1.245   5.216  16.288 -0.1454  0.1258  0.0896
15718TIP3   OH268644   1.481   1.849   0.996  0.6189 -0.7224 -0.5992
15718TIP3    H168645   1.505   1.812   1.081 -0.0297 -0.7502 -0.4276
15718TIP3    H268646   1.406   1.796   0.967  1.9305 -1.8839 -2.0036
15719TIP3   OH268647   5.743   3.289   3.015  0.1380  0.0364  0.2859
15719TIP3    H168648   5.685   3.307   2.941 -2.7106 -1.4975  2.0788
15719TIP3    H268649   5.787   3.207   2.992 -1.1864 -0.7488  0.5575
15720TIP3   OH268650   6.343   4.136   4.820 -0.7634  0.8547  0.2606
15720TIP3    H168651   6.418   4.085   4.790  0.5110  1.2866  2.6145
15720TIP3    H268652   6.275   4.071   4.837 -0.3561  0.2967 -0.1990
15721TIP3   OH268653   0.205   5.355   2.389  0.1341  0.2609  0.2449
15721TIP3    H168654   0.120   5.398   2.374  0.8053  1.4396 -0.2277
15721TIP3    H268655   0.232   5.385   2.476  0.6098  0.8244 -0.0912
15722TIP3   OH268656   0.705   1.170  10.410 -1.2699 -0.4481 -0.3615
15722TIP3    H168657   0.764   1.214  10.348 -0.7651 -1.4363 -0.5942
15722TIP3    H268658   0.699   1.080  10.378  0.7392 -1.5816  2.2018
15723TIP3   OH268659   1.148   4.415   1.154  0.1356 -0.2053 -0.1155
15723TIP3    H168660   1.173   4.364   1.230 -0.6254 -0.2913  0.0868
15723TIP3    H268661   1.180   4.503   1.172 -0.4976 -0.1043  0.5472
15724TIP3   OH268662   6.417   6.346  14.419 -0.0907  0.3420  0.3614
15724TIP3    H168663   6.455   6.434  14.410  1.5751 -0.0521  2.8497
15724TIP3    H268664   6.428   6.306  14.333  0.9892  1.8728 -0.2359
15725TIP3   OH268665   5.645   5.939   4.459 -0.0937  0.0518 -0.0408
15725TIP3    H168666   5.552   5.955   4.444 -0.1647 -0.8384 -0.6322
15725TIP3    H268667   5.661   5.966   4.550 -1.3030 -1.3371  0.6085
15726TIP3   OH268668   2.787   3.833   0.509  0.6411  0.0952 -0.4417
15726TIP3    H168669   2.842   3.799   0.580  0.2567  1.3788  0.4834
15726TIP3    H268670   2.785   3.762   0.445  0.4968 -1.3347  1.0975
15727TIP3   OH268671   6.109   5.857  11.273  0.2236 -0.6119  1.1798
15727TIP3    H168672   6.082   5.819  11.356  0.8021 -0.1110  1.6052
15727TIP3    H268673   6.028   5.888  11.233 -0.2015 -1.8808  1.0223
15728TIP3   OH268674   3.803   2.913   1.101 -0.9987  0.0141  0.8739
15728TIP3    H168675   3.835   2.841   1.155  0.3613 -0.1922 -0.1661
15728TIP3    H268676   3.770   2.977   1.163 -0.8274 -0.8522  1.8792
15729TIP3   OH268677   6.186   0.638  14.864  0.0081  0.5535 -0.0250
15729TIP3    H168678   6.209   0.625  14.956 -0.4452 -0.8306 -0.0987
15729TIP3    H268679   6.173   0.733  14.856  0.7994  0.7793  1.1526
15730TIP3   OH268680   4.337   5.626   2.258  0.0062  0.8374  0.2167
15730TIP3    H168681   4.262   5.677   2.227 -0.4170  1.1607  1.7181
15730TIP3    H268682   4.317   5.608   2.350  1.4773  0.3945  0.4592
15731TIP3   OH268683   6.520   2.621  14.972 -0.1684 -0.4052  0.0308
15731TIP3    H168684   6.465   2.632  15.050  0.6982 -0.9727  0.7219
15731TIP3    H268685   6.609   2.611  15.006  0.3131  0.0314 -1.0628
15732TIP3   OH268686   5.705   1.333   1.899 -0.4555 -0.8714  0.5002
15732TIP3    H168687   5.761   1.366   1.829 -2.0469 -2.2290 -1.4810
15732TIP3    H268688   5.648   1.407   1.922  0.4490 -0.2556  0.7557
15733TIP3   OH268689   1.393   6.229  12.116 -0.1867  0.2122  0.1791
15733TIP3    H168690   1.352   6.178  12.186  1.2446 -0.7705  0.3108
15733TIP3    H268691   1.331   6.224  12.043 -1.8209  1.4721  1.4403
15734TIP3   OH268692   0.399   5.962  14.860  0.4881 -0.2489 -0.3893
15734TIP3    H168693   0.390   5.867  14.861 -1.7405 -0.0695  0.3656
15734TIP3    H268694   0.309   5.994  14.870  1.3550  1.9312  0.6560
15735TIP3   OH268695   6.199   6.494   5.176  0.5023  0.1976  0.4726
15735TIP3    H168696   6.225   6.448   5.256 -0.6579  0.5445  1.0606
15735TIP3    H268697   6.232   6.583   5.187  0.8492  0.0886  0.3079
15736TIP3   OH268698   4.857   4.497  12.829 -0.1298 -0.1465 -0.2339
15736TIP3    H168699   4.839   4.550  12.752  0.7366  2.5303  1.3275
15736TIP3    H268700   4.948   4.470  12.820 -0.0956 -0.0179 -0.2693
15737TIP3   OH268701   0.878   4.630  14.968  0.1437  0.0278  0.2843
15737TIP3    H168702   0.875   4.582  15.052 -0.4915 -1.6877 -0.6826
15737TIP3    H268703   0.899   4.563  14.903 -0.3402  1.1527 -1.0655
15738TIP3   OH268704   5.410   2.793   0.555  0.1506  0.1873 -0.2215
15738TIP3    H168705   5.414   2.884   0.584  2.2101  0.1106 -0.1600
15738TIP3    H268706   5.502   2.769   0.542 -0.3494 -2.0617  0.3003
15739TIP3   OH268707   5.068   6.069  12.499 -0.1992  0.0807 -0.1224
15739TIP3    H168708   5.121   6.080  12.579 -1.8185 -0.9846  1.1293
15739TIP3    H268709   4.989   6.119  12.517 -0.9701 -0.9302 -0.6857
15740TIP3   OH268710   4.531   0.744  11.888  0.7186 -0.3723 -0.4709
15740TIP3    H168711   4.573   0.666  11.924  0.7009 -0.8427 -1.4301
15740TIP3    H268712   4.459   0.762  11.947  1.1562 -0.6638  0.1561
15741TIP3   OH268713   5.285   4.558  14.255  0.8088 -0.4469 -0.3080
15741TIP3    H168714   5.235   4.540  14.334  0.1295  0.9880 -0.4003
15741TIP3    H268715   5.377   4.550  14.282  0.5612 -1.4337  0.2584
15742TIP3   OH268716   1.954   5.610  13.168 -0.0847  0.2161  0.1614
15742TIP3    H168717   2.043   5.584  13.143 -0.7504 -2.0890  0.0818
15742TIP3    H268718   1.927   5.547  13.234 -1.0442  1.9467  1.4749
15743TIP3   OH268719   1.759   3.993   4.230  1.0055 -0.5205 -0.3155
15743TIP3    H168720   1.852   4.004   4.210  0.8473 -1.1668 -1.4749
15743TIP3    H268721   1.714   4.032   4.155  0.3212  0.5453  0.6334
15744TIP3   OH268722   5.941   4.442   4.525  0.4079 -0.1298  0.3303
15744TIP3    H168723   5.999   4.518   4.526 -1.5490  1.3990  1.4207
15744TIP3    H268724   5.888   4.453   4.445  0.0842 -0.3300  0.5149
15745TIP3   OH268725   5.521   0.164  14.667 -0.3189  0.3264 -0.6457
15745TIP3    H168726   5.506   0.076  14.632  0.3422  1.5861 -4.3644
15745TIP3    H268727   5.616   0.169  14.681 -0.5986 -0.2254  1.5965
15746TIP3   OH268728   0.288   4.031   4.643 -0.0897  0.7564  0.5553
15746TIP3    H168729   0.237   4.003   4.567  1.4170  0.4036 -0.3617
15746TIP3    H268730   0.237   4.002   4.719 -0.4144 -1.1419 -0.3543
15747TIP3   OH268731   2.398   1.570   2.232 -0.0088 -0.4234  0.2590
15747TIP3    H168732   2.350   1.501   2.277 -1.5720  2.7776  3.7150
15747TIP3    H268733   2.332   1.618   2.183  0.6527  0.2362 -0.0040
15748TIP3   OH268734   5.513   4.143   2.712  0.1251 -0.0737  0.2636
15748TIP3    H168735   5.556   4.063   2.683 -0.5837 -0.4682  0.2962
15748TIP3    H268736   5.524   4.143   2.807 -3.3061 -2.1841  0.7492
15749TIP3   OH268737   5.219   6.447   2.446 -0.0084 -0.0028 -0.3413
15749TIP3    H168738   5.313   6.462   2.447  0.7687 -4.0401 -2.1742
15749TIP3    H268739   5.199   6.412   2.533  0.4639 -0.4979 -0.4295
15750TIP3   OH268740   0.116   3.962   0.563 -0.0907  0.6455 -0.1328
15750TIP3    H168741   0.033   3.930   0.598  0.6503 -1.0116  0.1721
15750TIP3    H268742   0.121   3.923   0.475  0.6993  0.1012  0.1407
15751TIP3   OH268743   1.578   6.042   2.350  0.2717  0.3495 -0.2292
15751TIP3    H168744   1.607   6.057   2.260  0.7559 -0.9573 -0.3004
15751TIP3    H268745   1.500   5.987   2.342 -0.3821  1.2168  0.1035
15752TIP3   OH268746   1.077   3.194  16.959  0.0682  0.2988  0.0163
15752TIP3    H168747   1.025   3.166  17.035  0.3005  0.3659  0.2059
15752TIP3    H268748   1.104   3.112  16.917 -3.5124  0.2910 -2.4021
15753TIP3   OH268749   0.187   3.075   0.920 -0.2961  0.0680  0.0186
15753TIP3    H168750   0.249   3.011   0.884 -0.1780 -0.4090  1.0225
15753TIP3    H268751   0.181   3.143   0.854  1.0932 -0.0217 -0.2239
15754TIP3   OH268752   6.006   1.460   1.147 -0.5293  0.0104 -0.4745
15754TIP3    H168753   6.087   1.427   1.187 -1.6293 -3.1777 -0.7677
15754TIP3    H268754   5.939   1.396   1.172 -2.8169  2.1710 -0.9179
15755TIP3   OH268755   4.963   6.536  13.315  0.4602  0.4970  0.4756
15755TIP3    H168756   4.871   6.520  13.292  0.2883  0.9644  0.8101
15755TIP3    H268757   4.973   6.498  13.402  1.3382 -2.0247 -0.6793
15756TIP3   OH268758   6.275   0.256   4.962  0.3305  0.6480 -0.3653
15756TIP3    H168759   6.200   0.315   4.968  0.9445  1.4534 -0.5408
15756TIP3    H268760   6.262   0.209   4.880 -0.6824 -0.1852  0.2670
15757TIP3   OH268761   0.045   3.578   5.883  0.2583 -0.4598  0.3282
15757TIP3    H168762   0.126   3.595   5.835  0.1738 -2.8277 -0.7274
15757TIP3    H268763   0.062   3.611   5.971  1.6846  0.7609 -0.3804
15758TIP3   OH268764   3.531   4.874   0.484 -0.3031 -0.1790 -0.2634
15758TIP3    H168765   3.455   4.899   0.431 -1.0392  1.2082  1.4016
15758TIP3    H268766   3.555   4.787   0.452 -1.7153 -0.0339 -1.7709
15759TIP3   OH268767   4.115   2.473   2.019 -0.2817 -0.0634  0.0552
15759TIP3    H168768   4.061   2.511   1.950 -0.7937 -0.2889  0.3266
15759TIP3    H268769   4.073   2.502   2.100  1.2758  1.6088  0.3101
15760TIP3   OH268770   1.812   3.507  15.335  0.0883  0.0878  0.0900
15760TIP3    H168771   1.890   3.519  15.390  0.5872  1.2402 -0.8636
15760TIP3    H268772   1.838   3.443  15.270 -0.2406 -0.6476  0.6723
15761TIP3   OH268773   1.498   3.333  13.092  0.3427 -0.1229 -0.3360
15761TIP3    H168774   1.410   3.300  13.074 -0.0886  0.3730  0.8525
15761TIP3    H268775   1.494   3.367  13.181  1.4674  0.8563 -0.6429
15762TIP3   OH268776   3.306   5.124  16.328 -0.5153  0.0130 -0.8432
15762TIP3    H168777   3.372   5.115  16.397 -0.4301  1.4225 -0.7202
15762TIP3    H268778   3.243   5.054  16.346  1.5694 -2.1630 -1.7218
15763TIP3   OH268779   3.046   2.825   5.542 -0.3646 -0.0294 -0.0799
15763TIP3    H168780   3.013   2.894   5.599 -0.7641 -2.1184  2.3066
15763TIP3    H268781   3.138   2.846   5.529  0.0944 -0.2616  2.5142
15764TIP3   OH268782   3.290   5.458  14.159  0.0266 -0.4352 -0.4515
15764TIP3    H168783   3.308   5.533  14.102  0.9135  0.4226  0.9044
15764TIP3    H268784   3.217   5.413  14.117 -1.3653  1.9051 -0.6610
15765TIP3   OH268785   0.165   5.468   5.695  0.3203  0.3478 -0.2054
15765TIP3    H168786   0.244   5.419   5.717  1.0092  1.3034 -0.4992
15765TIP3    H268787   0.123   5.417   5.627  0.6479 -0.2047  0.0034
15766TIP3   OH268788   3.858   2.148   2.715  0.1294  0.6161 -0.0536
15766TIP3    H168789   3.868   2.063   2.758 -0.1852  0.5783 -0.0519
15766TIP3    H268790   3.842   2.209   2.787 -1.7481  0.3356 -0.2198
15767TIP3   OH268791   6.101   0.969  12.419  0.4804  0.0912 -0.6127
15767TIP3    H168792   6.123   0.927  12.336  2.1308 -0.3055  0.0105
15767TIP3    H268793   6.171   1.033  12.434 -0.0237  0.4563  0.2582
15768TIP3   OH268794   0.121   3.955  10.832 -0.4149 -0.1194  0.0214
15768TIP3    H168795   0.027   3.971  10.841 -0.2187  1.1318 -0.0448
15768TIP3    H268796   0.127   3.874  10.781 -1.4582  1.7661 -3.2370
15769TIP3   OH268797   2.507   2.680   6.221 -0.0283 -0.2581 -0.2030
15769TIP3    H168798   2.424   2.704   6.179  0.5612  0.1856 -1.1145
15769TIP3    H268799   2.522   2.589   6.196  0.0309 -0.1728 -0.4760
15770TIP3   OH268800   6.342   1.658   0.171 -0.2608 -0.4416  0.3739
15770TIP3    H168801   6.422   1.645   0.222 -0.3827 -1.1084  0.4061
15770TIP3    H268802   6.324   1.572   0.133 -1.3238 -0.4636  0.9030
15771TIP3   OH268803   4.674   2.293   1.298 -0.4923 -0.1519 -0.1549
15771TIP3    H168804   4.693   2.334   1.382  2.2749 -1.6309  0.0129
15771TIP3    H268805   4.686   2.362   1.233 -1.1717  0.6179  0.5360
15772TIP3   OH268806   4.848   5.399   5.151  0.0971  0.3055 -0.4705
15772TIP3    H168807   4.837   5.486   5.190 -0.3208  0.3730 -0.7399
15772TIP3    H268808   4.783   5.396   5.080 -3.0176 -1.8877  2.3339
15773TIP3   OH268809   4.465   3.108   0.463 -0.1678  0.5181  0.1983
15773TIP3    H168810   4.498   3.022   0.490  0.3129  0.2871 -1.1010
15773TIP3    H268811   4.533   3.169   0.491  0.4496  0.2501 -0.6867
15774TIP3   OH268812   4.675   5.900  16.320  0.1021 -0.0124 -0.5841
15774TIP3    H168813   4.618   5.968  16.356  0.4095 -0.1650  0.2096
15774TIP3    H268814   4.763   5.938  16.324  0.1333 -0.0249 -1.1919
15775TIP3   OH268815   6.300   3.438  16.816 -0.1857 -0.2624 -0.0346
15775TIP3    H168816   6.357   3.367  16.843 -0.2494 -0.7488 -1.1381
15775TIP3    H268817   6.218   3.423  16.862 -0.1265 -0.7752 -0.0996
15776TIP3   OH268818   4.209   6.194  11.953 -0.2094 -0.9945  0.5918
15776TIP3    H168819   4.215   6.106  11.991 -0.3064 -1.1056  0.3501
15776TIP3    H268820   4.133   6.234  11.997  0.2973 -0.7570  1.2636
15777TIP3   OH268821   6.455   0.005   6.444 -0.2482 -0.1457  0.4777
15777TIP3    H168822   6.479  -0.088   6.443 -2.3317 -0.7008 -1.2208
15777TIP3    H268823   6.536   0.051   6.466  1.8618 -2.0708 -2.9261
15778TIP3   OH268824   5.486   0.181  16.317  0.0205 -0.8434  0.6950
15778TIP3    H168825   5.581   0.195  16.311 -0.2734 -0.0420 -2.7255
15778TIP3    H268826   5.448   0.268  16.310 -1.1093 -1.5140 -2.1071
15779TIP3   OH268827   3.503   5.654  11.298 -0.2484 -0.1172  0.0844
15779TIP3    H168828   3.571   5.628  11.235 -0.4355  1.2888 -0.7022
15779TIP3    H268829   3.424   5.610  11.267  0.2774 -1.8026  1.0297
15780TIP3   OH268830   1.822   5.778   6.262 -0.0074 -0.3722 -0.2164
15780TIP3    H168831   1.775   5.766   6.179 -0.7045 -0.4276  0.1758
15780TIP3    H268832   1.867   5.695   6.276 -1.8045 -1.2280  0.6306
15781TIP3   OH268833   4.556   0.109  16.862  0.7274  0.7814  0.2928
15781TIP3    H168834   4.496   0.104  16.936  0.6235 -0.7019  0.1298
15781TIP3    H268835   4.643   0.118  16.902  0.5009  1.7537  0.5524
15782TIP3   OH268836   3.187   1.898  15.525  0.2173 -0.3643 -0.2330
15782TIP3    H168837   3.258   1.864  15.580  1.2683  1.5062 -0.4028
15782TIP3    H268838   3.120   1.926  15.588  0.6911  0.1897  0.0241
15783TIP3   OH268839   0.972   3.289  14.007  0.6847 -0.0487 -0.0408
15783TIP3    H168840   0.950   3.290  13.913 -1.6387 -0.9283  0.4554
15783TIP3    H268841   0.907   3.346  14.047  0.7349 -0.8769  1.2365
15784TIP3   OH268842   1.221   5.472  14.964 -0.1535  0.2451  0.2582
15784TIP3    H168843   1.312   5.449  14.946 -0.2866  0.8710 -1.2291
15784TIP3    H268844   1.198   5.418  15.040  1.0614 -0.8677 -0.1393
15785TIP3   OH268845   6.633   4.307  12.907  0.0060  0.1002 -0.0599
15785TIP3    H168846   6.605   4.219  12.880  2.3887 -1.8474  3.2752
15785TIP3    H268847   6.725   4.312  12.879 -0.4730  2.0938 -1.3740
15786TIP3   OH268848   3.954   0.992   2.144 -0.0535 -0.1644 -0.6945
15786TIP3    H168849   4.027   1.053   2.134 -0.0267 -0.0061  0.4302
15786TIP3    H268850   3.947   0.977   2.238 -1.6513  0.0302 -0.7621
15787TIP3   OH268851   0.997   0.525  16.832  0.2633 -1.0862  0.1124
15787TIP3    H168852   0.929   0.488  16.887 -0.1658  1.1498  1.1490
15787TIP3    H268853   0.986   0.620  16.839  1.3728 -0.7071 -2.3641
15788TIP3   OH268854   0.795   0.210   3.377 -0.2259  0.1248  0.6399
15788TIP3    H168855   0.811   0.137   3.438 -0.5798  0.7369  1.4740
15788TIP3    H268856   0.723   0.180   3.322 -0.7295  0.0519  1.3335
15789TIP3   OH268857   0.763   0.798  11.967 -0.2516 -0.3292  0.2482
15789TIP3    H168858   0.796   0.806  11.877  0.0161  0.5735  0.4157
15789TIP3    H268859   0.828   0.845  12.020 -1.7478  1.4162  0.5907
15790TIP3   OH268860   4.609   3.493   2.100 -0.7689 -0.3526 -0.2624
15790TIP3    H168861   4.684   3.468   2.154 -2.6039  0.8110  2.9733
15790TIP3    H268862   4.647   3.518   2.016  2.1103 -3.1418  0.1066
15791TIP3   OH268863   0.909   6.694  15.080  0.1640  0.1629  0.2631
15791TIP3    H168864   0.968   6.732  15.016 -1.1547  1.6459 -0.1125
15791TIP3    H268865   0.945   6.720  15.165 -0.1195  1.3532  0.0302
15792TIP3   OH268866   0.561   2.904  11.900  0.1261  0.5628 -0.3319
15792TIP3    H168867   0.484   2.953  11.873  0.7781  1.6926 -0.1714
15792TIP3    H268868   0.547   2.886  11.993  0.7587  2.1323  0.0860
15793TIP3   OH268869   0.513   1.894  11.894 -0.5112  0.6391  0.7648
15793TIP3    H168870   0.514   1.876  11.988  2.1609 -0.2638  0.6041
15793TIP3    H268871   0.591   1.948  11.879  1.5080 -2.7082 -1.5344
15794TIP3   OH268872   3.286   3.594  13.996  0.1313 -0.5415  0.0297
15794TIP3    H168873   3.377   3.577  14.019 -0.1314  0.8095  2.2401
15794TIP3    H268874   3.244   3.508  13.996  1.2571 -1.1035 -0.4201
15795TIP3   OH268875   4.298   1.117  15.182 -0.4997 -0.3174  0.2323
15795TIP3    H168876   4.319   1.157  15.267  0.6347 -0.2838 -0.0557
15795TIP3    H268877   4.214   1.156  15.157 -0.7606 -0.2070  1.2595
15796TIP3   OH268878   3.492   5.099  15.263  0.6801  0.3873 -0.8163
15796TIP3    H168879   3.584   5.107  15.237  0.4354 -0.8899 -2.1077
15796TIP3    H268880   3.472   5.006  15.254  0.1801  0.0954  2.6342
15797TIP3   OH268881   0.887   3.551   3.651 -0.1974 -0.0625  0.1429
15797TIP3    H168882   0.926   3.551   3.738 -0.0869  1.6119  0.1090
15797TIP3    H268883   0.887   3.458   3.625  1.2107 -0.3995  1.2616
15798TIP3   OH268884   1.330   1.067  12.946 -0.4382 -0.3362  0.0522
15798TIP3    H168885   1.258   1.127  12.964 -1.7017 -1.9478  0.5309
15798TIP3    H268886   1.359   1.089  12.858 -0.0955  1.7426  0.6672
15799TIP3   OH268887   1.182   0.192   0.834  0.4787 -0.3624 -0.3410
15799TIP3    H168888   1.254   0.253   0.853  2.3887 -3.0603  1.4929
15799TIP3    H268889   1.213   0.142   0.758  0.3491 -1.1879  0.1432
15800TIP3   OH268890   2.093   3.078  15.984  0.4613 -0.0551 -0.7412
15800TIP3    H168891   2.141   3.111  16.061 -2.6546  0.3939  1.1131
15800TIP3    H268892   2.069   2.988  16.008  3.0153 -1.3727 -2.9505
15801TIP3   OH268893   3.466   1.241  13.679 -0.1635 -0.4525 -0.1460
15801TIP3    H168894   3.411   1.264  13.604  0.3265  0.9254 -0.1002
15801TIP3    H268895   3.448   1.149  13.694 -1.9116 -0.2032 -0.5832
15802TIP3   OH268896   3.030   2.960  11.681  0.3010 -0.5295 -0.2708
15802TIP3    H168897   3.029   2.975  11.775 -1.5726  0.1428 -0.3924
15802TIP3    H268898   2.938   2.955  11.656  0.7706 -2.6151 -1.7714
15803TIP3   OH268899   2.237   4.643  16.231 -0.1403 -0.4296  0.5604
15803TIP3    H168900   2.235   4.638  16.135  0.6902 -3.3859  0.6435
15803TIP3    H268901   2.322   4.683  16.251 -0.9864  1.6914  0.0656
15804TIP3   OH268902   3.113   4.875   3.280 -0.2598  0.2370  0.3508
15804TIP3    H168903   3.042   4.939   3.283  0.2153  0.7628  0.5625
15804TIP3    H268904   3.085   4.804   3.338 -1.0523 -0.0282 -0.3453
15805TIP3   OH268905   1.725   6.517   2.833  0.0617  0.8520 -0.2090
15805TIP3    H168906   1.735   6.578   2.760 -1.4245 -1.1805 -2.2205
15805TIP3    H268907   1.638   6.478   2.820 -0.6834  1.1629  3.2670
15806TIP3   OH268908   4.932   2.662   3.508  0.2192 -0.3287  0.0008
15806TIP3    H168909   4.851   2.630   3.546  0.2736  1.5145  1.8088
15806TIP3    H268910   4.915   2.755   3.490  2.0501  0.2182  0.8966
15807TIP3   OH268911   1.593   3.667  16.683  0.1674 -0.5656  0.2760
15807TIP3    H168912   1.679   3.638  16.654 -0.0640 -1.9950  0.9923
15807TIP3    H268913   1.554   3.708  16.606  0.8392 -1.4226 -0.5236
15808TIP3   OH268914   5.796   3.243  16.015 -0.2598  0.3319  0.5609
15808TIP3    H168915   5.788   3.268  16.107 -0.8087  1.4798  0.2064
15808TIP3    H268916   5.871   3.292  15.983 -1.9713  2.4089 -0.4092
15809TIP3   OH268917   4.711   2.899  15.962 -0.0835  0.2307 -0.2431
15809TIP3    H168918   4.730   2.911  15.869  0.8884 -0.1430 -0.0996
15809TIP3    H268919   4.776   2.953  16.007 -0.9917  0.9500  0.2027
15810TIP3   OH268920   0.791   2.150  14.626  0.0185  0.2710  0.0642
15810TIP3    H168921   0.794   2.244  14.645 -1.5150  0.3195  0.1248
15810TIP3    H268922   0.700   2.125  14.640  0.3770 -1.2062 -0.0994
15811TIP3   OH268923   3.396   6.776   5.230  0.0952  0.8963 -0.4227
15811TIP3    H168924   3.375   6.687   5.202 -1.1805  1.5582 -1.6361
15811TIP3    H268925   3.311   6.815   5.251  0.5241  2.1923 -1.0400
15812TIP3   OH268926   3.446   0.328  13.554  0.3516  0.3132 -0.3576
15812TIP3    H168927   3.448   0.393  13.624  1.6218  0.6331 -0.6718
15812TIP3    H268928   3.403   0.252  13.593 -2.7620  1.8990 -0.4909
15813TIP3   OH268929   4.398   5.200  14.030 -0.0702 -0.1996  0.2204
15813TIP3    H168930   4.402   5.107  14.054 -1.3534 -0.3557 -0.1299
15813TIP3    H268931   4.461   5.209  13.959 -1.1508 -1.1735 -0.8809
15814TIP3   OH268932   2.889   5.161  11.215 -0.1739  0.6109  0.2808
15814TIP3    H168933   2.901   5.131  11.305 -0.2162  2.1061  0.7939
15814TIP3    H268934   2.805   5.205  11.215 -0.7945 -0.5336 -0.8163
15815TIP3   OH268935   0.112   2.794   4.538  0.3648  0.2050  0.4177
15815TIP3    H168936   0.023   2.800   4.505 -0.6300  0.2946  2.9540
15815TIP3    H268937   0.168   2.799   4.461 -1.7642  2.0105 -1.0421
15816TIP3   OH268938   3.808   1.331   2.890 -0.2777 -0.5765  0.0162
15816TIP3    H168939   3.794   1.423   2.867 -0.6670 -0.4363  0.8163
15816TIP3    H268940   3.745   1.313   2.959  0.0505 -1.3484  0.1246
15817TIP3   OH268941   0.659   5.013   0.501 -0.2917 -0.5707 -0.4562
15817TIP3    H168942   0.565   5.001   0.487 -0.1563 -1.4243 -0.6188
15817TIP3    H268943   0.680   4.954   0.573 -0.4935  1.9351  1.7790
15818TIP3   OH268944   5.867   1.731   2.328  0.1655 -0.0688  0.6473
15818TIP3    H168945   5.928   1.668   2.366 -0.2327 -0.2411  1.0089
15818TIP3    H268946   5.920   1.782   2.266  0.6644 -0.2458  0.9239
15819TIP3   OH268947   4.026   2.767   1.220 -0.2984 -0.1102 -0.2158
15819TIP3    H168948   4.117   2.791   1.207 -0.1414 -1.2371 -1.3571
15819TIP3    H268949   3.998   2.734   1.135 -1.2503 -1.4325  0.5882
15820TIP3   OH268950   4.496   2.697   3.843  0.7317  0.0838  0.0125
15820TIP3    H168951   4.516   2.738   3.927 -3.7517 -0.4282  1.4851
15820TIP3    H268952   4.496   2.769   3.780  1.6718  0.8818  0.9093
15821TIP3   OH268953   2.916   5.979  12.653  0.1073  0.1150  0.3959
15821TIP3    H168954   2.927   6.049  12.588  2.4672  1.0151  1.7273
15821TIP3    H268955   2.994   5.925  12.644 -0.7575 -1.2262  0.7805
15822TIP3   OH268956   4.334   5.153   4.778  0.3236  0.4818  0.1135
15822TIP3    H168957   4.341   5.220   4.710  0.5639  0.9551  0.5972
15822TIP3    H268958   4.355   5.071   4.734  0.0366  0.7240 -0.4826
15823TIP3   OH268959   0.217   5.391   3.963 -0.2591 -0.4130 -0.0243
15823TIP3    H168960   0.273   5.323   4.001  0.8446  1.2966  1.4799
15823TIP3    H268961   0.206   5.364   3.872  2.1437 -1.3419 -0.0676
15824TIP3   OH268962   1.516   4.022  13.638  0.1138 -0.3665  0.5930
15824TIP3    H168963   1.590   3.967  13.611  1.1440 -0.2206  3.0167
15824TIP3    H268964   1.473   3.973  13.708 -0.3334  0.8504  1.1931
15825TIP3   OH268965   6.511   4.963   4.314  0.7846 -0.7446 -0.0647
15825TIP3    H168966   6.456   4.952   4.392 -0.2668  0.4196 -0.6201
15825TIP3    H268967   6.600   4.976   4.349  0.3664 -0.5018  0.9308
15826TIP3   OH268968   4.853   4.536   3.805 -0.6421  0.2094  0.1227
15826TIP3    H168969   4.883   4.536   3.714  0.2544  2.7938  0.3859
15826TIP3    H268970   4.864   4.445   3.833  3.3859  0.2427 -0.9682
15827TIP3   OH268971   0.234   3.338   1.477 -0.0277  0.3096 -0.2939
15827TIP3    H168972   0.142   3.349   1.499  0.2543  1.1589  0.4751
15827TIP3    H268973   0.278   3.414   1.515  0.8688  0.3674 -1.4126
15828TIP3   OH268974   5.539   2.114   0.952  0.8830 -1.3319 -0.3957
15828TIP3    H168975   5.575   2.181   1.010  0.1679 -0.1202 -1.3032
15828TIP3    H268976   5.464   2.079   1.000 -0.7627  0.8802 -1.2257
15829TIP3   OH268977   1.158   4.212  11.608  0.1480 -1.2983  0.2087
15829TIP3    H168978   1.120   4.294  11.577  1.7699 -1.1969 -1.5657
15829TIP3    H268979   1.085   4.166  11.650 -1.4475 -0.2040 -1.3211
15830TIP3   OH268980   1.608   6.211   5.984  0.4264 -0.6431  0.0426
15830TIP3    H168981   1.674   6.279   6.001  0.6513 -0.5344 -1.2261
15830TIP3    H268982   1.535   6.233   6.042  1.1602 -0.2778  0.8476
15831TIP3   OH268983   6.634   4.960   3.812  0.2123 -0.1534 -0.2144
15831TIP3    H168984   6.604   4.871   3.789 -0.8283 -0.1264  0.9464
15831TIP3    H268985   6.715   4.946   3.860  0.2061 -0.4638 -0.2922
15832TIP3   OH268986   2.124   4.844   1.586  0.7357 -0.2737  0.0646
15832TIP3    H168987   2.062   4.909   1.553  1.2502  1.3397  2.1723
15832TIP3    H268988   2.070   4.767   1.605 -0.2003  0.2195 -0.5288
15833TIP3   OH268989   2.040   1.668  14.690 -0.4733 -0.7874 -0.7348
15833TIP3    H168990   2.118   1.618  14.711  0.6066  1.1838  0.1270
15833TIP3    H268991   1.981   1.653  14.764  0.6420  0.7619  0.5097
15834TIP3   OH268992   2.336   6.715   5.985  0.2142  0.0239  0.3319
15834TIP3    H168993   2.264   6.777   5.971  0.2896 -0.1189 -0.6960
15834TIP3    H268994   2.378   6.746   6.065 -0.3906  0.6915  0.4027
15835TIP3   OH268995   4.073   3.453   2.674 -0.4858 -0.0199 -0.2361
15835TIP3    H168996   4.087   3.545   2.653 -1.4098  0.6268  1.8233
15835TIP3    H268997   3.983   3.449   2.705 -1.1669 -2.0250 -2.3017
15836TIP3   OH268998   6.671   3.508   5.189  0.5261  0.5391 -0.0343
15836TIP3    H168999   6.637   3.509   5.278  1.6776  1.4518  0.4090
15836TIP3    H269000   6.597   3.535   5.134  0.0513  0.7725  0.7237
15837TIP3   OH269001   4.227   6.010   3.729  0.0663  0.1595  0.1921
15837TIP3    H169002   4.317   5.980   3.742 -1.2142 -3.7162  0.7018
15837TIP3    H269003   4.196   5.961   3.652 -1.2588  2.3632 -0.7420
15838TIP3   OH269004   4.312   1.468  15.098  0.2270 -0.5386  0.0062
15838TIP3    H169005   4.341   1.530  15.165  1.0565 -1.0683  0.1508
15838TIP3    H269006   4.248   1.413  15.143 -0.7260  0.4027 -0.2044
15839TIP3   OH269007   1.061   2.111  10.913  0.7702  0.8244 -0.3711
15839TIP3    H169008   1.005   2.112  10.835  0.3253  2.2525 -0.0345
15839TIP3    H269009   1.145   2.145  10.882  1.2129 -0.5267 -0.6823
15840TIP3   OH269010   5.576   0.716  15.551 -0.4065  0.4931 -0.8898
15840TIP3    H169011   5.499   0.770  15.568 -0.7617 -0.0165 -0.8550
15840TIP3    H269012   5.561   0.680  15.463 -0.6355 -0.3131 -0.5290
15841TIP3   OH269013   5.656   3.205  14.724  0.1189  0.1743  0.6394
15841TIP3    H169014   5.601   3.130  14.703 -0.6373  0.5845  1.0969
15841TIP3    H269015   5.741   3.168  14.746 -0.2440 -0.5420  0.8410
15842TIP3   OH269016   0.691   6.094   0.486  0.2136  0.0586  0.5134
15842TIP3    H169017   0.679   6.056   0.399  1.4364 -0.3075  0.5033
15842TIP3    H269018   0.615   6.063   0.536  1.1323 -2.3220  0.4722
15843TIP3   OH269019   1.211   6.691   4.424  0.4603  0.2318  0.3323
15843TIP3    H169020   1.147   6.654   4.485  0.7769  0.3999  0.7709
15843TIP3    H269021   1.203   6.638   4.345 -0.0588  0.1069  0.4669
15844TIP3   OH269022   2.084   2.958  14.285  0.4448 -0.5944 -0.0644
15844TIP3    H169023   2.166   2.997  14.315  1.3607 -2.3573 -0.1815
15844TIP3    H269024   2.099   2.938  14.193  0.3580 -2.0773  0.2239
15845TIP3   OH269025   1.020   3.738  11.434  0.1186  0.3465 -0.2560
15845TIP3    H169026   0.926   3.753  11.443  0.5163  2.5356  0.6235
15845TIP3    H269027   1.036   3.737  11.340 -0.9246 -1.0416 -0.4237
15846TIP3   OH269028   0.694   1.097  14.410  0.2114  0.2815 -0.2433
15846TIP3    H169029   0.760   1.165  14.398  1.1041 -0.3431  1.0341
15846TIP3    H269030   0.668   1.105  14.501  0.8657 -1.5698  0.1235
15847TIP3   OH269031   6.199   2.387  13.253  0.2238 -0.5742  0.2350
15847TIP3    H169032   6.115   2.424  13.280  0.5229  1.2854 -1.2978
15847TIP3    H269033   6.178   2.332  13.178  0.2044 -1.1175  0.6363
15848TIP3   OH269034   4.619   4.006  15.903 -0.4806  0.7367 -0.4133
15848TIP3    H169035   4.618   4.066  15.978  0.2679  0.4181 -0.1419
15848TIP3    H269036   4.537   3.957  15.910 -0.3542  0.6165  0.2740
15849TIP3   OH269037   4.478   5.466  14.904  0.4724  0.7102  0.0686
15849TIP3    H169038   4.565   5.496  14.928  0.3067  1.5282 -0.3267
15849TIP3    H269039   4.421   5.500  14.973  0.7517 -1.6337  1.4725
15850TIP3   OH269040   1.085   3.985   2.869  0.3885 -0.5895 -0.1786
15850TIP3    H169041   1.051   4.058   2.922 -1.0719 -2.3361  1.3462
15850TIP3    H269042   1.013   3.962   2.812  0.7729 -0.9984 -0.4979
15851TIP3   OH269043   2.365   4.953  16.676 -0.6821 -0.2426  0.0905
15851TIP3    H169044   2.398   4.951  16.587  0.0108 -0.6657  0.3516
15851TIP3    H269045   2.318   5.037  16.683 -0.0722  0.1416 -0.4268
15852TIP3   OH269046   0.640   1.409  16.954 -0.4124 -0.2644  0.2967
15852TIP3    H169047   0.550   1.402  16.988 -0.0213 -0.1052  1.4128
15852TIP3    H269048   0.695   1.379  17.027  0.3336 -2.6586 -1.1923
15853TIP3   OH269049   5.439   1.690  14.893  0.4563 -0.2331 -0.5703
15853TIP3    H169050   5.380   1.681  14.817 -1.4407 -0.2961  0.8643
15853TIP3    H269051   5.387   1.738  14.958  1.9036 -0.5522  0.8477
15854TIP3   OH269052   2.458   3.533  14.891  0.2588 -0.1270  0.3104
15854TIP3    H169053   2.503   3.537  14.807 -0.9594  0.1532 -0.3393
15854TIP3    H269054   2.456   3.623  14.922 -0.9778  0.0576 -0.2747
15855TIP3   OH269055   1.711   5.840  10.905 -0.7268  0.3463 -0.1081
15855TIP3    H169056   1.645   5.838  10.835  0.5698  0.6679 -1.3685
15855TIP3    H269057   1.786   5.884  10.865  1.0072 -1.8652  0.6344
15856TIP3   OH269058   4.117   3.954  14.504  0.4427 -0.2066 -0.6122
15856TIP3    H169059   4.088   3.919  14.588  1.2737 -0.4523 -0.4276
15856TIP3    H269060   4.150   4.041  14.523  0.9934 -0.4102 -0.6126
15857TIP3   OH269061   0.728   0.221  14.131 -0.1203 -0.4100 -0.1361
15857TIP3    H169062   0.760   0.132  14.118 -0.5072 -0.3002 -1.9665
15857TIP3    H269063   0.804   0.269  14.164  0.3976 -1.1670 -0.2160
15858TIP3   OH269064   1.208   3.602  15.528 -0.1430 -0.1026 -0.5187
15858TIP3    H169065   1.176   3.560  15.448 -1.0179 -2.2434  0.9221
15858TIP3    H269066   1.161   3.558  15.599 -1.7903  3.9247  1.0455
15859TIP3   OH269067   1.897   3.198  13.550 -0.4633 -0.8672  0.5168
15859TIP3    H169068   1.931   3.267  13.606  0.7556 -1.5428  0.6135
15859TIP3    H269069   1.809   3.228  13.526 -0.6382 -0.1342  2.0152
15860TIP3   OH269070   0.855   1.004   1.024  0.0632 -0.2689 -1.2086
15860TIP3    H169071   0.807   0.999   1.107  0.9246 -0.3143 -0.7077
15860TIP3    H269072   0.944   0.975   1.046  0.2056 -0.6280 -2.2211
15861TIP3   OH269073   2.685   0.540  15.950  0.2448 -0.0468  0.2328
15861TIP3    H169074   2.675   0.614  15.892 -1.4757  0.5790  1.3039
15861TIP3    H269075   2.658   0.464  15.898  0.8491  0.2052 -0.4641
15862TIP3   OH269076   1.471   2.902   1.594  0.4216  0.2188  0.0367
15862TIP3    H169077   1.513   2.943   1.518  0.2833 -0.4397 -0.3985
15862TIP3    H269078   1.508   2.948   1.670  1.1097  0.3855 -0.3947
15863TIP3   OH269079   2.984   5.057  14.211 -0.6033  0.4288  0.0724
15863TIP3    H169080   2.983   4.962  14.219  0.2289  0.4979  1.1064
15863TIP3    H269081   2.980   5.073  14.116  0.7508 -0.6708 -0.1885
15864TIP3   OH269082   3.678   1.571  12.033  0.5607  0.1173 -0.4584
15864TIP3    H169083   3.707   1.499  11.977 -0.5970  0.2305 -1.2343
15864TIP3    H269084   3.604   1.535  12.082  2.8324 -0.6004  2.5319
15865TIP3   OH269085   1.195   6.089   0.956  0.2656 -0.4108  0.2382
15865TIP3    H169086   1.195   6.184   0.965 -0.9758 -0.2831 -1.0355
15865TIP3    H269087   1.108   6.062   0.985  0.3152 -1.0678 -0.2075
15866TIP3   OH269088   3.774   6.778  11.491 -0.4895 -0.0507  0.0127
15866TIP3    H169089   3.726   6.729  11.424 -2.1744  0.1626  1.0331
15866TIP3    H269090   3.797   6.712  11.557 -0.2032  0.0222 -0.0120
15867TIP3   OH269091   1.122   2.210   1.779  0.2133  0.7493 -0.0532
15867TIP3    H169092   1.039   2.253   1.760 -0.6061 -0.3503  0.9069
15867TIP3    H269093   1.101   2.116   1.779  1.3844  0.4729  0.4774
15868TIP3   OH269094   5.457   1.736  14.346 -0.4060 -0.2331 -0.1840
15868TIP3    H169095   5.519   1.807  14.361  0.7465 -1.3109  0.2278
15868TIP3    H269096   5.461   1.720  14.252  0.7142 -1.0032 -0.0045
15869TIP3   OH269097   4.135   0.020   3.657 -0.2112  0.3845  0.4501
15869TIP3    H169098   4.107   0.092   3.714 -0.3934  1.3043 -0.7751
15869TIP3    H269099   4.054  -0.023   3.631 -0.1781  0.4035  0.3166
15870TIP3   OH269100   6.611   1.449  16.652  0.1411  0.5943  0.1912
15870TIP3    H169101   6.588   1.487  16.568 -0.4987  1.5431  0.7869
15870TIP3    H269102   6.622   1.524  16.710 -1.5037 -0.1211  1.4727
15871TIP3   OH269103   6.747   6.247  14.969  0.0922 -0.3245  0.3744
15871TIP3    H169104   6.667   6.299  14.978 -1.4244 -2.4624 -0.4139
15871TIP3    H269105   6.789   6.282  14.891  0.0541  0.9223  0.8877
15872TIP3   OH269106   1.268   0.202  15.008 -0.1175  0.0891 -0.0914
15872TIP3    H169107   1.279   0.152  15.088  3.0580  0.3341 -0.3124
15872TIP3    H269108   1.257   0.292  15.037 -1.2503 -0.1044  0.1200
15873TIP3   OH269109   1.442   6.609  11.585  0.2030  0.1974 -0.2982
15873TIP3    H169110   1.464   6.524  11.545  0.0097  0.9601 -2.0776
15873TIP3    H269111   1.518   6.664  11.566  1.3796 -0.2038  2.9102
15874TIP3   OH269112   6.089   2.758  11.273 -0.6386 -0.4002  0.3462
15874TIP3    H169113   6.156   2.816  11.237  0.4977 -1.9177 -0.0220
15874TIP3    H269114   6.112   2.749  11.365  0.0261 -1.4030  0.0873
15875TIP3   OH269115   0.701   6.804  11.633 -0.1153  0.1909  0.4228
15875TIP3    H169116   0.773   6.804  11.697 -0.1360 -1.4758  0.4619
15875TIP3    H269117   0.662   6.718  11.642 -0.4838  0.1553 -1.4502
15876TIP3   OH269118   3.693   4.805   2.670  0.3622  0.7991 -0.3534
15876TIP3    H169119   3.702   4.890   2.712  1.0745  1.1217 -1.1485
15876TIP3    H269120   3.675   4.825   2.578  0.6069  0.0976 -0.5607
15877TIP3   OH269121   3.648   0.062   1.806 -0.1042 -0.3131 -0.2701
15877TIP3    H169122   3.591   0.075   1.730 -1.0229 -2.7249 -0.0390
15877TIP3    H269123   3.611  -0.014   1.851  2.3454 -0.9500  0.7580
15878TIP3   OH269124   2.001   5.479  12.564  0.2552 -0.2578 -0.6053
15878TIP3    H169125   2.056   5.401  12.566  1.8223  0.8477  0.3685
15878TIP3    H269126   2.041   5.535  12.497 -1.2072 -0.5099 -1.7325
15879TIP3   OH269127   0.677   4.126   5.313  0.2389  0.1078  0.3452
15879TIP3    H169128   0.649   4.098   5.225  1.4262  0.9930 -0.3311
15879TIP3    H269129   0.672   4.046   5.366 -1.7151 -0.1650 -0.2001
15880TIP3   OH269130   5.842   3.408  14.134 -0.5468  0.4588  0.0944
15880TIP3    H169131   5.927   3.365  14.141  0.0994  1.4552 -1.2279
15880TIP3    H269132   5.811   3.385  14.046 -1.2297  0.8241  0.2337
15881TIP3   OH269133   0.982   4.902  15.052 -0.2334 -0.3587 -0.0862
15881TIP3    H169134   0.915   4.840  15.079 -1.2838  0.2501 -1.2694
15881TIP3    H269135   1.018   4.935  15.135 -0.7007 -1.4181  0.5466
15882TIP3   OH269136   3.566   5.189  13.190 -0.1845 -0.1155 -0.3593
15882TIP3    H169137   3.656   5.167  13.165 -0.4494 -0.3611 -1.1017
15882TIP3    H269138   3.527   5.106  13.217  0.0455  0.1213  0.6933
15883TIP3   OH269139   0.850   6.810  14.089  0.3938  0.1151 -0.0735
15883TIP3    H169140   0.928   6.814  14.144 -0.8449  3.5995  1.6124
15883TIP3    H269141   0.831   6.717  14.081  4.2230 -0.7829  0.1097
15884TIP3   OH269142   6.431   6.449  11.326 -0.0005  0.1099  0.0036
15884TIP3    H169143   6.343   6.482  11.345 -0.8163 -1.1661 -1.3898
15884TIP3    H269144   6.438   6.456  11.231  0.3955 -2.1870 -0.1660
15885TIP3   OH269145   4.221   3.170  12.698  0.1070 -0.2946 -0.1296
15885TIP3    H169146   4.287   3.175  12.768 -0.9406 -1.2848  0.9478
15885TIP3    H269147   4.199   3.077  12.694  0.1621 -0.2430 -1.7986
15886TIP3   OH269148   3.015   3.787  12.036  0.3651  0.2769 -0.7544
15886TIP3    H169149   2.989   3.700  12.004  0.7987  0.5509 -1.8495
15886TIP3    H269150   3.045   3.770  12.126  3.6435 -1.2801 -2.0525
15887TIP3   OH269151   5.118   1.944   1.190  0.3290  0.1597 -0.0173
15887TIP3    H169152   5.050   1.998   1.151  0.2039  0.8266  1.0911
15887TIP3    H269153   5.192   1.949   1.129 -0.1990  0.3846 -0.6423
15888TIP3   OH269154   5.441   1.458  14.133  0.1571  0.0042 -0.0775
15888TIP3    H169155   5.351   1.454  14.164  0.0419 -0.3247 -0.4421
15888TIP3    H269156   5.454   1.550  14.110 -0.0243  0.0876  0.1505
15889TIP3   OH269157   4.765   5.510  11.244 -0.1716  0.2036  0.2884
15889TIP3    H169158   4.713   5.438  11.281  0.5805  0.2180  1.4138
15889TIP3    H269159   4.833   5.467  11.193 -0.3103  0.1470  0.1497
15890TIP3   OH269160   5.835   5.197   4.938  1.0877  0.0156 -0.7503
15890TIP3    H169161   5.758   5.224   4.887  1.0756 -1.9934 -1.8669
15890TIP3    H269162   5.801   5.132   5.000  1.4185  1.1549  0.6600
15891TIP3   OH269163   1.319   0.504   0.264 -0.0273  0.1601  0.2377
15891TIP3    H169164   1.265   0.485   0.341 -0.8860 -1.3348 -0.6998
15891TIP3    H269165   1.404   0.464   0.284  0.1547  0.8777  0.9263
15892TIP3   OH269166   6.265   6.788   5.186 -0.2310  0.4728 -0.3321
15892TIP3    H169167   6.270   6.878   5.219  2.4598  0.5482 -0.7987
15892TIP3    H269168   6.355   6.769   5.158 -0.3185 -3.0907  1.6393
15893TIP3   OH269169   0.217   4.630   1.146  0.2108 -0.1314  0.6002
15893TIP3    H169170   0.257   4.704   1.191 -0.7496  0.9021 -0.2073
15893TIP3    H269171   0.123   4.649   1.148  0.1405 -0.0736 -1.7593
15894TIP3   OH269172   4.075   5.550  13.738 -0.0306 -0.2847 -0.0790
15894TIP3    H169173   4.036   5.607  13.672 -0.7626 -0.2854  0.3514
15894TIP3    H269174   4.104   5.473  13.689  0.7721  0.3575 -0.6250
15895TIP3   OH269175   2.145   5.312   1.904  0.4254 -0.1188 -0.8774
15895TIP3    H169176   2.057   5.276   1.915  0.3043  0.3731 -0.2283
15895TIP3    H269177   2.190   5.247   1.850 -0.4904 -0.1111 -1.6540
15896TIP3   OH269178   0.408   5.337   5.748  0.1353  0.2378 -0.0581
15896TIP3    H169179   0.442   5.250   5.730  0.0299 -0.0041  0.8674
15896TIP3    H269180   0.420   5.348   5.843  1.3242  1.7297 -0.3667
15897TIP3   OH269181   6.614   5.441  16.655  0.4119 -0.2397 -0.4366
15897TIP3    H169182   6.679   5.440  16.725  0.1511 -1.3042 -0.2122
15897TIP3    H269183   6.638   5.518  16.602 -1.2162  2.4077  2.4871
15898TIP3   OH269184   5.680   1.735  11.982  0.2643  0.4850  0.1602
15898TIP3    H169185   5.753   1.709  11.926 -0.2980  1.4822 -1.0512
15898TIP3    H269186   5.667   1.828  11.964 -1.1445  0.3792  0.5532
15899TIP3   OH269187   6.069   0.941   5.875  0.2636  0.6127  0.1680
15899TIP3    H169188   6.009   0.979   5.811  1.2639  0.1776 -1.0518
15899TIP3    H269189   6.128   1.012   5.898  2.0072 -0.1026 -1.9588
15900TIP3   OH269190   3.425   5.065  14.912  0.6579 -0.0309 -0.2493
15900TIP3    H169191   3.370   5.010  14.967 -0.9989  0.9856 -0.8439
15900TIP3    H269192   3.511   5.023  14.914 -0.0641 -1.4984  0.9153
15901TIP3   OH269193   1.353   4.609  13.252 -0.1843 -0.1292 -0.4250
15901TIP3    H169194   1.319   4.524  13.226 -0.8956 -0.3820  1.2998
15901TIP3    H269195   1.296   4.638  13.322  1.3539  0.7844  0.4873
15902TIP3   OH269196   2.599   5.101  16.574 -0.0548  0.1250  0.0324
15902TIP3    H169197   2.542   5.091  16.498 -0.1322 -2.0019  0.3400
15902TIP3    H269198   2.548   5.153  16.636 -0.9808 -0.2972 -0.3642
15903TIP3   OH269199   6.206   6.286   0.703 -0.9080 -0.0949  0.1714
15903TIP3    H169200   6.237   6.322   0.787 -3.1732 -0.3077  1.1238
15903TIP3    H269201   6.220   6.358   0.640  2.1584 -0.4271  0.3709
15904TIP3   OH269202   3.433   4.762   4.294 -0.2574 -0.6020 -0.2236
15904TIP3    H169203   3.360   4.775   4.355  0.0656  1.2226 -0.1932
15904TIP3    H269204   3.394   4.769   4.207 -0.1566  0.2382 -0.2071
15905TIP3   OH269205   6.493   1.583  12.016  0.3411  0.0148  0.4926
15905TIP3    H169206   6.462   1.605  12.104  2.5989 -2.2648  1.9462
15905TIP3    H269207   6.448   1.502  11.994  1.1471 -0.3951  0.3348
15906TIP3   OH269208   2.559   1.383   1.967  0.0280  0.1242  0.6297
15906TIP3    H169209   2.480   1.408   2.014 -0.0078  1.2377  0.0060
15906TIP3    H269210   2.619   1.457   1.981  0.0600  0.4139 -0.9466
15907TIP3   OH269211   3.915   4.465   2.422 -0.4514  0.3972  0.0674
15907TIP3    H169212   3.894   4.548   2.379 -2.0294 -0.0833 -0.1243
15907TIP3    H269213   4.010   4.461   2.420 -0.3999  1.5905 -1.1005
15908TIP3   OH269214   0.399   0.907  16.411 -0.8307  0.4969 -0.1722
15908TIP3    H169215   0.471   0.946  16.460 -1.3367  1.5987 -0.3017
15908TIP3    H269216   0.359   0.845  16.473  0.6689 -0.6614 -0.3469
15909TIP3   OH269217   4.916   2.496   4.371 -0.2368  0.4894  0.1873
15909TIP3    H169218   4.931   2.467   4.282 -1.1683 -0.2766  0.2726
15909TIP3    H269219   4.873   2.422   4.414  0.4870  0.7376  1.3533
15910TIP3   OH269220   4.240   3.997   3.442  0.1734 -0.4536  0.0666
15910TIP3    H169221   4.254   3.918   3.390 -3.2250 -1.0252 -0.0882
15910TIP3    H269222   4.167   4.041   3.400 -0.9069  0.4534  2.7853
15911TIP3   OH269223   1.567   4.881  13.330  0.3755  0.1306 -0.4023
15911TIP3    H169224   1.482   4.864  13.370  0.4484 -1.9445 -1.0767
15911TIP3    H269225   1.548   4.943  13.259 -0.3917  0.5295  0.1466
15912TIP3   OH269226   0.101   4.284  12.067 -0.5279  0.5405  0.2130
15912TIP3    H169227   0.091   4.248  12.155 -0.5857  0.9792  0.3901
15912TIP3    H269228   0.032   4.351  12.061 -1.3541 -0.3692 -0.6290
15913TIP3   OH269229   0.773   3.194   2.524 -0.4971  0.6669 -0.1418
15913TIP3    H169230   0.798   3.145   2.603 -0.7879 -1.0010 -1.0445
15913TIP3    H269231   0.682   3.168   2.509  0.1275 -0.5108 -2.0638
15914TIP3   OH269232   6.022   6.309   2.118  0.1332 -0.0321 -0.0008
15914TIP3    H169233   5.936   6.342   2.144 -0.7622 -1.8061 -0.5829
15914TIP3    H269234   6.031   6.335   2.027 -0.0460 -0.3415 -0.1080
15915TIP3   OH269235   0.658   3.492   5.144  0.0068 -0.9567 -0.0200
15915TIP3    H169236   0.598   3.559   5.111  1.7814  0.7667  0.1856
15915TIP3    H269237   0.709   3.537   5.211  0.2451 -2.9227  1.1451
15916TIP3   OH269238   2.590   2.653  12.126 -0.1617 -0.2804 -0.6140
15916TIP3    H169239   2.513   2.604  12.157 -1.0578  2.2254  1.2798
15916TIP3    H269240   2.662   2.622  12.182 -0.5374 -0.0500 -0.0036
15917TIP3   OH269241   0.717   2.853   1.383  0.5231 -0.2280 -0.2466
15917TIP3    H169242   0.722   2.792   1.310  0.6543 -0.6874  0.1461
15917TIP3    H269243   0.625   2.850   1.410  0.2940  0.5717 -0.9291
15918TIP3   OH269244   2.258   3.261   3.912  0.3728 -0.0269  0.3508
15918TIP3    H169245   2.272   3.354   3.933  0.6870  0.6060 -2.4981
15918TIP3    H269246   2.182   3.236   3.965  0.0304  1.9641  0.8421
15919TIP3   OH269247   6.706   5.659  13.495 -0.4797 -0.1432 -0.2882
15919TIP3    H169248   6.748   5.616  13.570 -0.8277 -0.7285 -0.4266
15919TIP3    H269249   6.635   5.600  13.471  0.8446 -0.9541 -2.3463
15920TIP3   OH269250   5.997   6.632   5.869  0.2527 -0.5891  0.3134
15920TIP3    H169251   5.964   6.590   5.949  1.2252 -0.0871  0.9967
15920TIP3    H269252   6.042   6.562   5.822  0.8761 -0.5761  0.8848
15921TIP3   OH269253   0.848   1.030  11.013 -0.0614  0.6696  0.2851
15921TIP3    H169254   0.883   1.079  10.939 -1.4031  1.7428  0.3499
15921TIP3    H269255   0.923   1.016  11.071  0.8215  0.5309 -0.8735
15922TIP3   OH269256   6.333   3.988   0.937  0.0289  0.2190 -0.1517
15922TIP3    H169257   6.323   3.945   1.022  1.5261 -0.9974 -0.5580
15922TIP3    H269258   6.244   4.005   0.908 -0.5449 -0.9642  0.8620
15923TIP3   OH269259   5.946   4.164  12.389  0.6792  0.2064  0.6394
15923TIP3    H169260   5.854   4.137  12.390  0.9829 -0.8850  0.0010
15923TIP3    H269261   5.945   4.254  12.420 -0.5315 -0.0417  1.3573
15924TIP3   OH269262   3.999   3.743   1.044  0.2700 -0.4867 -0.6542
15924TIP3    H169263   4.047   3.826   1.050 -0.4334 -0.1364  0.3749
15924TIP3    H269264   3.990   3.715   1.135 -4.0751  0.9709 -0.5234
15925TIP3   OH269265   0.995   1.697  12.330  0.2100 -0.5351  0.0426
15925TIP3    H169266   1.064   1.641  12.295  0.8157 -0.0948  0.5161
15925TIP3    H269267   1.034   1.736  12.409 -0.8394 -0.8486  0.7124
15926TIP3   OH269268   5.095   2.718  15.681  0.2762  0.1222  0.2031
15926TIP3    H169269   5.056   2.710  15.594  1.6091  0.0007 -0.4055
15926TIP3    H269270   5.111   2.812  15.691 -2.4595  0.4745  1.5007
15927TIP3   OH269271   3.068   3.994   4.624 -0.2611 -0.1906 -0.0233
15927TIP3    H169272   2.981   4.018   4.592  0.4195  0.2453 -1.6103
15927TIP3    H269273   3.119   4.075   4.616  0.2686 -0.4225  0.9829
15928TIP3   OH269274   6.461   0.598   0.639 -0.5050  0.5921 -0.1744
15928TIP3    H169275   6.368   0.590   0.661 -0.0459  1.6702  2.4073
15928TIP3    H269276   6.504   0.534   0.696  0.3644  0.3603 -1.0905
15929TIP3   OH269277   3.318   6.435  15.497 -0.3157  0.6984  0.0135
15929TIP3    H169278   3.349   6.376  15.428 -3.0735 -0.8533  0.0143
15929TIP3    H269279   3.364   6.517  15.481  0.9110 -0.3737 -2.2031
15930TIP3   OH269280   1.988   3.880   6.615 -0.2864  0.1163  0.0046
15930TIP3    H169281   2.024   3.816   6.554 -1.6936  0.6683 -1.4122
15930TIP3    H269282   2.061   3.900   6.674  1.3103  0.1463 -1.9512
15931TIP3   OH269283   2.775   0.598   0.117  0.2333 -0.1294  0.2502
15931TIP3    H169284   2.798   0.609   0.209 -0.0665 -0.2745  0.3415
15931TIP3    H269285   2.683   0.620   0.111  0.2525 -0.1102 -0.0176
15932TIP3   OH269286   1.581   3.766   5.093 -0.0071 -0.3707 -0.1152
15932TIP3    H169287   1.600   3.841   5.037  0.3253  0.1697  0.6988
15932TIP3    H269288   1.501   3.790   5.140 -1.3000 -1.5759 -1.6688
15933TIP3   OH269289   0.704   6.512   3.130 -1.0057  0.1981  0.0786
15933TIP3    H169290   0.782   6.458   3.122 -2.5257 -1.5747 -3.7931
15933TIP3    H269291   0.738   6.601   3.141  1.5568 -0.4667 -2.0460
15934TIP3   OH269292   4.273   1.869   5.344  0.1018  0.0468 -0.4180
15934TIP3    H169293   4.227   1.886   5.261  0.6991 -0.0191 -0.7635
15934TIP3    H269294   4.357   1.912   5.334 -0.0253  0.4738  0.3674
15935TIP3   OH269295   4.918   1.552  15.281 -0.8921  0.3719 -0.7011
15935TIP3    H169296   5.004   1.591  15.300 -0.9088  0.1359 -0.1366
15935TIP3    H269297   4.914   1.474  15.335 -1.0121 -0.2358 -1.5697
15936TIP3   OH269298   6.338   2.178   2.068  0.0108 -0.0007 -0.2721
15936TIP3    H169299   6.325   2.233   2.145  1.1417 -0.1446  0.0311
15936TIP3    H269300   6.259   2.192   2.015  0.1381  1.6605 -0.0545
15937TIP3   OH269301   2.119   1.228  12.911 -0.2333  0.3080  0.3833
15937TIP3    H169302   2.213   1.220  12.931 -0.1005 -1.1749 -0.7783
15937TIP3    H269303   2.077   1.167  12.971 -0.3892  0.3606  0.3271
15938TIP3   OH269304   5.130   4.369  12.903 -0.2849 -0.4516  0.3043
15938TIP3    H169305   5.147   4.459  12.931 -2.6354 -0.2909  1.2824
15938TIP3    H269306   5.212   4.323  12.922  0.2303  1.0092  1.8101
15939TIP3   OH269307   0.548   1.620   3.371  0.2448 -0.1977 -0.0553
15939TIP3    H169308   0.568   1.630   3.278 -1.5887 -1.1419 -0.5862
15939TIP3    H269309   0.633   1.608   3.414  1.2304  1.7251 -1.3892
15940TIP3   OH269310   2.076   4.127   4.302  0.1703 -0.4042  0.1524
15940TIP3    H169311   2.144   4.165   4.357 -0.8229  0.1103  1.0319
15940TIP3    H269312   2.106   4.038   4.285  1.8623  0.3268 -0.8278
15941TIP3   OH269313   3.803   3.796   4.801 -0.6914  0.2707 -0.4014
15941TIP3    H169314   3.712   3.787   4.772 -0.5146 -0.3745 -0.7586
15941TIP3    H269315   3.829   3.883   4.771 -0.7668 -0.0734 -1.4821
15942TIP3   OH269316   2.915   1.666  10.875  0.3125 -0.0102 -0.5823
15942TIP3    H169317   2.946   1.606  10.807 -1.0550 -1.3814  0.0026
15942TIP3    H269318   2.875   1.610  10.941 -1.6433  1.5636 -0.3716
15943TIP3   OH269319   1.714   5.064  16.069 -0.3807 -0.1731 -0.7080
15943TIP3    H169320   1.806   5.045  16.083 -0.7698 -0.1047  2.3333
15943TIP3    H269321   1.681   4.989  16.018  1.0993 -0.6955 -0.9054
15944TIP3   OH269322   5.868   6.144   1.061  0.3618  0.0827  0.1582
15944TIP3    H169323   5.811   6.199   1.114 -0.4777  0.0479 -0.7093
15944TIP3    H269324   5.890   6.198   0.985  1.6509  0.1752  0.5719
15945TIP3   OH269325   5.168   0.993   4.803 -0.2350  0.3748  0.2146
15945TIP3    H169326   5.157   0.915   4.749  1.1935  0.2317  0.1043
15945TIP3    H269327   5.246   0.975   4.855 -1.0949  0.8687  1.7151
15946TIP3   OH269328   4.779   5.130   5.231  0.2810  0.0098  0.9370
15946TIP3    H169329   4.841   5.201   5.215 -0.3292  1.1257  3.4550
15946TIP3    H269330   4.813   5.085   5.308 -0.5594 -1.0549  0.7009
15947TIP3   OH269331   3.230   5.240   3.744 -0.0475 -0.4015 -0.6317
15947TIP3    H169332   3.246   5.229   3.650 -2.2105  0.1881 -1.0997
15947TIP3    H269333   3.149   5.193   3.760 -0.3416  0.5301  0.7028
15948TIP3   OH269334   1.532   3.526  15.376 -0.2848  0.2214 -0.4029
15948TIP3    H169335   1.625   3.518  15.351 -0.2043  2.0054 -0.7118
15948TIP3    H269336   1.487   3.546  15.294 -0.9684 -0.6674 -0.2547
15949TIP3   OH269337   4.066   3.310   3.462  0.8029  0.0642  0.0798
15949TIP3    H169338   4.044   3.218   3.475  2.0350 -0.3728 -0.8198
15949TIP3    H269339   4.132   3.329   3.528  2.0640 -0.2750 -1.0726
15950TIP3   OH269340   4.757   2.106   5.541  0.1000  0.6107  0.4335
15950TIP3    H169341   4.813   2.107   5.619  0.7103 -0.7641  0.0259
15950TIP3    H269342   4.722   2.195   5.536 -0.1629  0.6433  2.4231
15951TIP3   OH269343   2.890   4.325  14.113  0.0387 -0.4292  0.1422
15951TIP3    H169344   2.850   4.263  14.174 -0.0413 -1.3034 -0.7925
15951TIP3    H269345   2.960   4.367  14.164 -0.2316 -0.9192  0.9247
15952TIP3   OH269346   1.825   1.938  15.231  0.1683  0.3235  0.2406
15952TIP3    H169347   1.917   1.927  15.257 -0.4200 -1.1109  1.8568
15952TIP3    H269348   1.781   1.965  15.311 -0.7978  1.2867 -0.5943
15953TIP3   OH269349   0.690   3.145   4.864 -0.3300  0.1653 -0.0641
15953TIP3    H169350   0.727   3.195   4.937  0.3619 -2.0604  1.1500
15953TIP3    H269351   0.611   3.105   4.899 -0.6232 -0.0045 -0.8906
15954TIP3   OH269352   3.928   5.568   5.222  0.3122  0.3033 -0.2860
15954TIP3    H169353   3.965   5.642   5.173  0.6060  1.6679  1.9378
15954TIP3    H269354   3.939   5.493   5.164  0.1546  1.9647 -2.5333
15955TIP3   OH269355   0.406   1.284  11.847 -0.1703  0.3741  0.0623
15955TIP3    H169356   0.378   1.261  11.936  0.7609 -0.0614  0.2581
15955TIP3    H269357   0.427   1.377  11.853  0.0864  0.3003  0.3598
15956TIP3   OH269358   5.055   3.805  16.084 -0.0551  0.1358 -0.6746
15956TIP3    H169359   5.087   3.739  16.024 -0.8424 -1.2201  0.3726
15956TIP3    H269360   4.972   3.834  16.047 -1.1061 -1.5337  0.3464
15957TIP3   OH269361   3.926   2.360  14.902 -0.9020  0.2694  0.1787
15957TIP3    H169362   4.000   2.368  14.841 -0.9557 -0.7771 -0.0370
15957TIP3    H269363   3.967   2.351  14.988 -0.7581 -1.0115 -0.0211
15958TIP3   OH269364   0.771   5.981   4.445 -0.1473  0.2334 -0.0938
15958TIP3    H169365   0.677   5.992   4.428  0.0297  0.5757 -0.8231
15958TIP3    H269366   0.789   6.039   4.519 -0.2552  1.0827 -0.7332
15959TIP3   OH269367   4.497   0.337  11.120 -0.2018 -0.3623 -0.0027
15959TIP3    H169368   4.455   0.251  11.120 -1.7456  0.3671  1.4737
15959TIP3    H269369   4.585   0.321  11.154 -0.6422 -1.2846  0.7189
15960TIP3   OH269370   2.796   3.238  17.066  0.3155 -0.8264 -0.6737
15960TIP3    H169371   2.827   3.322  17.032  0.6926 -0.0737  1.4063
15960TIP3    H269372   2.824   3.173  17.002  0.4132  0.5949 -2.0837
15961TIP3   OH269373   3.455   2.352   2.538  0.3572  0.0011  0.2613
15961TIP3    H169374   3.417   2.265   2.548 -0.9639  0.6111  0.6090
15961TIP3    H269375   3.498   2.350   2.452 -3.2146  0.3289 -1.5925
15962TIP3   OH269376   0.643   2.687   1.859  0.1006  0.9111 -0.7589
15962TIP3    H169377   0.631   2.782   1.856  0.6542  0.9899 -0.4278
15962TIP3    H269378   0.726   2.675   1.903 -0.3290  0.2444 -0.1243
15963TIP3   OH269379   1.439   6.140  15.111 -0.6348  0.3383 -0.1443
15963TIP3    H169380   1.409   6.219  15.067 -1.1380  0.7385  0.8917
15963TIP3    H269381   1.485   6.172  15.189 -1.8821 -0.4129  0.9234
15964TIP3   OH269382   2.022   5.244  15.861  0.4754  0.1120 -0.0804
15964TIP3    H169383   2.030   5.149  15.860  0.8919  0.1384  0.6377
15964TIP3    H269384   1.941   5.261  15.909  0.5333  0.1324  0.0086
15965TIP3   OH269385   0.500   0.914  15.646 -0.5098  0.1433 -0.4268
15965TIP3    H169386   0.504   0.943  15.737 -2.0004 -1.6182  0.2303
15965TIP3    H269387   0.591   0.899  15.621  0.1429  3.1923 -0.1190
15966TIP3   OH269388   5.557   5.971  13.207  0.4859 -0.2334 -0.0526
15966TIP3    H169389   5.585   6.021  13.284 -0.0501  0.6951 -0.4628
15966TIP3    H269390   5.639   5.938  13.170  0.9454  1.2665 -0.4094
15967TIP3   OH269391   0.490   4.344   3.843  0.6509  0.2686  0.2876
15967TIP3    H169392   0.410   4.323   3.890  0.9243  0.4654  0.8487
15967TIP3    H269393   0.468   4.421   3.791  0.0831 -0.5060 -0.6111
15968TIP3   OH269394   2.831   6.017  11.863  0.2311 -0.1037  0.1350
15968TIP3    H169395   2.888   6.065  11.923  2.2797 -1.1901 -0.8954
15968TIP3    H269396   2.881   6.011  11.782 -0.6725 -2.5068 -0.2890
15969TIP3   OH269397   5.419   3.619  12.896  0.4296  0.5486 -0.5216
15969TIP3    H169398   5.327   3.604  12.918  0.5879  2.2208  1.3722
15969TIP3    H269399   5.417   3.643  12.803 -0.8981 -0.5315 -0.8015
15970TIP3   OH269400   0.768   1.538  10.385 -0.3931  0.5434  0.2670
15970TIP3    H169401   0.808   1.574  10.465  0.6785  0.0223 -0.0222
15970TIP3    H269402   0.841   1.529  10.324 -1.0121 -0.1665 -0.3800
15971TIP3   OH269403   6.676   3.141  15.913  0.6100 -0.2251 -0.1962
15971TIP3    H169404   6.647   3.181  15.831 -1.8466  0.3339  0.8994
15971TIP3    H269405   6.705   3.215  15.967 -0.3374 -0.3165  0.4359
15972TIP3   OH269406   5.153   5.523  16.479 -0.0754 -0.0921  0.4604
15972TIP3    H169407   5.188   5.446  16.435 -0.1902 -0.8019  1.6171
15972TIP3    H269408   5.177   5.513  16.571  0.3873  1.5185  0.5449
15973TIP3   OH269409   1.476   6.029  13.244 -0.2496  0.5353  0.4362
15973TIP3    H169410   1.431   5.949  13.272 -0.4165  1.1047  1.8484
15973TIP3    H269411   1.414   6.074  13.187 -1.3524  1.1419  2.0831
15974TIP3   OH269412   1.032   4.740   6.262 -0.2044 -0.2118  0.3589
15974TIP3    H169413   1.002   4.818   6.310  0.0002 -0.9821  1.7823
15974TIP3    H269414   0.984   4.743   6.179  1.4242  2.5846 -0.5465
15975TIP3   OH269415   0.661   6.769  14.895  0.2164 -0.4232  0.4398
15975TIP3    H169416   0.637   6.735  14.809  0.4774 -2.5445  1.1828
15975TIP3    H269417   0.687   6.860  14.878 -1.6788 -0.1691 -1.4016
15976TIP3   OH269418   2.831   0.400  12.758  0.2389  0.7657  0.1391
15976TIP3    H169419   2.787   0.354  12.686 -0.1485 -0.3346  1.0701
15976TIP3    H269420   2.788   0.369  12.837  0.9240  1.6814  0.8871
15977TIP3   OH269421   0.479   0.963   1.387  0.3432 -0.4965  0.2530
15977TIP3    H169422   0.564   0.934   1.421  0.1680  1.0122  1.9930
15977TIP3    H269423   0.463   0.904   1.313  1.1030 -3.2966  2.2395
15978TIP3   OH269424   5.640   1.189  14.340 -0.1770 -0.2667  0.2581
15978TIP3    H169425   5.641   1.119  14.274 -0.7925  0.8614 -0.9642
15978TIP3    H269426   5.702   1.254  14.307 -0.2490  0.1685  0.9640
15979TIP3   OH269427   3.543   4.085   5.660  0.5954 -0.3146  0.4173
15979TIP3    H169428   3.486   4.030   5.607 -3.0934  3.0684  0.6207
15979TIP3    H269429   3.627   4.083   5.615 -1.3524 -0.6218 -3.3950
15980TIP3   OH269430   4.956   6.468   5.721  0.3726  0.1154 -0.0280
15980TIP3    H169431   5.026   6.403   5.725  0.8021  0.6346  1.0297
15980TIP3    H269432   4.880   6.423   5.757  0.6803  0.1921  0.7367
15981TIP3   OH269433   5.194   6.166  15.839  0.0245 -0.4665 -0.4207
15981TIP3    H169434   5.201   6.105  15.766  1.5886  0.0077 -0.6907
15981TIP3    H269435   5.197   6.253  15.798  1.4657 -0.1955  0.2327
15982TIP3   OH269436   4.473   3.314  17.196  0.7641 -0.5186  0.2337
15982TIP3    H169437   4.431   3.345  17.276  0.8683 -1.7757  0.7678
15982TIP3    H269438   4.563   3.348  17.201  0.4657  0.2973  0.1354
15983TIP3   OH269439   0.983   4.956  12.654  0.2125  0.6114 -0.7896
15983TIP3    H169440   1.045   4.988  12.589 -0.0955  3.3975  0.2096
15983TIP3    H269441   1.023   4.978  12.738 -0.9675  0.1160 -0.0801
15984TIP3   OH269442   1.101   4.520  12.939  0.7916 -0.1059  0.0875
15984TIP3    H169443   1.065   4.577  12.871  0.0704  0.7381  1.1606
15984TIP3    H269444   1.024   4.484  12.982  1.2268  0.5607  1.4442
15985TIP3   OH269445   1.787   5.386   0.216  0.4145  0.6418  0.1134
15985TIP3    H169446   1.867   5.349   0.253  1.0953  1.9696  0.0302
15985TIP3    H269447   1.723   5.315   0.219  1.6449 -0.4778  0.0310
15986TIP3   OH269448   5.869   3.410  13.123 -0.2334 -0.1283  0.0505
15986TIP3    H169449   5.797   3.459  13.083  0.4609  0.0346 -1.0132
15986TIP3    H269450   5.947   3.438  13.075  0.6959  0.4342  1.8236
15987TIP3   OH269451   5.531   2.622   1.594 -0.2015  0.1265 -0.2517
15987TIP3    H169452   5.604   2.572   1.558  1.2211  1.1871  1.0955
15987TIP3    H269453   5.465   2.621   1.524  1.6302  0.3199 -2.0419
15988TIP3   OH269454   1.040   3.346   0.024  0.4870 -0.4244 -0.1307
15988TIP3    H169455   0.946   3.351   0.005  0.5190  0.3647 -0.1136
15988TIP3    H269456   1.067   3.438   0.034  1.5491 -0.5539 -1.5403
15989TIP3   OH269457   4.290   0.812  14.151  1.1506  0.0356 -0.4304
15989TIP3    H169458   4.281   0.849  14.239  0.9974 -2.3017  0.5832
15989TIP3    H269459   4.232   0.866  14.096 -1.4142 -0.5531  1.5636
15990TIP3   OH269460   2.424   1.388   3.663 -0.0640 -0.0879  0.3102
15990TIP3    H169461   2.476   1.307   3.662 -1.1284 -0.7858 -0.5415
15990TIP3    H269462   2.448   1.431   3.744  1.4675 -0.6502  0.1713
15991TIP3   OH269463   2.528   4.036   2.483  0.4699  0.2250  0.3742
15991TIP3    H169464   2.463   4.015   2.550 -0.3989 -0.6494 -0.7247
15991TIP3    H269465   2.575   3.954   2.469  0.3656  0.2920 -0.3855
15992TIP3   OH269466   5.695   5.670   5.395  0.0310  0.1794  0.1765
15992TIP3    H169467   5.655   5.746   5.436 -0.1766  0.7478 -1.0463
15992TIP3    H269468   5.667   5.675   5.303  2.2826  0.1869 -0.5466
15993TIP3   OH269469   3.608   3.413   5.583 -0.3722 -0.0401 -0.4837
15993TIP3    H169470   3.542   3.449   5.642  0.4104  0.3331  0.1847
15993TIP3    H269471   3.679   3.385   5.641 -0.1780 -0.9543 -1.1438
15994TIP3   OH269472   1.657   6.513  16.695 -0.0592 -0.1981 -0.3137
15994TIP3    H169473   1.587   6.476  16.642  0.0522 -1.1257  0.1620
15994TIP3    H269474   1.694   6.583  16.642 -1.2144  0.1611 -0.6492
15995TIP3   OH269475   5.539   4.872   2.944 -0.1825 -0.5465 -0.4692
15995TIP3    H169476   5.445   4.875   2.961 -0.4271  0.1572 -1.8518
15995TIP3    H269477   5.570   4.961   2.964 -0.3064  0.0115 -2.6338
15996TIP3   OH269478   5.325   0.839   5.817  0.1006 -0.5028  0.5224
15996TIP3    H169479   5.246   0.891   5.808 -0.9173 -2.2270 -0.8495
15996TIP3    H269480   5.394   0.902   5.839 -1.5269  1.0828  1.1460
15997TIP3   OH269481   0.470   1.995  13.700 -0.3014  0.4266  0.0553
15997TIP3    H169482   0.512   1.970  13.617 -1.1506  0.3635 -0.3656
15997TIP3    H269483   0.533   1.970  13.767  0.5580  0.8226 -0.5933
15998TIP3   OH269484   0.802   6.174  12.754  0.2446  0.1521 -0.0297
15998TIP3    H169485   0.826   6.093  12.799  1.4261  0.1477 -0.6361
15998TIP3    H269486   0.819   6.155  12.661 -1.7095  0.3112 -0.4416
15999TIP3   OH269487   2.510   4.472   3.852 -0.6099 -0.4080 -0.5282
15999TIP3    H169488   2.517   4.503   3.943  0.7365 -0.7456 -0.5105
15999TIP3    H269489   2.438   4.524   3.815 -0.8437  0.0837  0.5864
16000TIP3   OH269490   5.660   2.951  13.541 -0.3530  0.7697 -0.1193
16000TIP3    H169491   5.753   2.928  13.543 -0.1728  1.3519 -1.5215
16000TIP3    H269492   5.652   3.019  13.608  0.8378  2.8142 -1.9753
16001TIP3   OH269493   0.025   3.563  16.351 -0.1222  0.2438  0.1220
16001TIP3    H169494  -0.023   3.489  16.387  2.1049 -1.6403 -0.6420
16001TIP3    H269495   0.057   3.611  16.427  1.4746 -1.6561  0.6868
16002TIP3   OH269496   6.281   0.243   0.569  0.5719  0.2114 -0.3280
16002TIP3    H169497   6.255   0.317   0.513 -1.2012 -0.4260 -0.3614
16002TIP3    H269498   6.376   0.239   0.559  0.6094  2.0166 -0.9261
16003TIP3   OH269499   0.256   1.526  15.910  0.0625  0.0144 -0.1212
16003TIP3    H169500   0.170   1.564  15.890 -1.5481 -3.7914 -0.7604
16003TIP3    H269501   0.246   1.491  15.998  1.0866 -0.2064 -0.0894
16004TIP3   OH269502   2.401   4.587  11.215 -0.4316  0.6936 -0.2249
16004TIP3    H169503   2.406   4.581  11.120  1.3174 -0.6788 -0.0737
16004TIP3    H269504   2.353   4.509  11.242  0.9340 -0.0501  0.1291
16005TIP3   OH269505   3.271   1.795  14.446 -0.6397  0.1244 -0.3854
16005TIP3    H169506   3.362   1.783  14.473 -0.0493 -0.7330 -2.6288
16005TIP3    H269507   3.237   1.862  14.505  1.1808 -0.1862  1.0632
16006TIP3   OH269508   3.428   3.460   5.323 -0.8676 -0.0652 -0.4965
16006TIP3    H169509   3.422   3.411   5.241  2.2190  1.3565 -1.6249
16006TIP3    H269510   3.473   3.401   5.383  0.1377  0.2336 -0.9444
16007TIP3   OH269511   0.070   3.875   3.524  0.0711  0.5547 -0.0553
16007TIP3    H169512   0.086   3.780   3.520 -2.3113  0.1071  0.5259
16007TIP3    H269513   0.107   3.908   3.442  0.1933 -0.9956 -0.6462
16008TIP3   OH269514   3.389   0.263   5.593  0.2342 -0.0703 -0.1605
16008TIP3    H169515   3.296   0.244   5.583  0.2067  0.3081 -0.6543
16008TIP3    H269516   3.409   0.323   5.521  0.4419  1.3153  1.0197
16009TIP3   OH269517   0.102   0.583   5.390 -0.2505  0.0676 -0.2512
16009TIP3    H169518   0.055   0.642   5.449 -1.0992 -1.7695  0.9631
16009TIP3    H269519   0.193   0.614   5.392  0.1163 -1.0014  3.4682
16010TIP3   OH269520   4.646   6.298   6.185  0.3644  0.2191  0.7279
16010TIP3    H169521   4.597   6.376   6.157 -1.4368 -1.1764 -0.0789
16010TIP3    H269522   4.598   6.266   6.261  0.2937 -0.8769  0.2300
16011TIP3   OH269523   6.438   2.665  11.481 -0.9153  0.9219  0.2044
16011TIP3    H169524   6.509   2.680  11.543 -1.8758 -1.7721  2.0603
16011TIP3    H269525   6.408   2.752  11.455  1.5695  2.0735  1.0953
16012TIP3   OH269526   5.104   4.477  15.930 -0.3317  0.0988  0.1350
16012TIP3    H169527   5.099   4.441  16.018  0.1226 -2.3700 -0.8200
16012TIP3    H269528   5.196   4.499  15.918 -0.1194 -0.9829 -0.2598
16013TIP3   OH269529   2.515   2.480  13.602  1.2271  0.4569  0.1371
16013TIP3    H169530   2.512   2.440  13.689  2.3754  2.3157  1.0595
16013TIP3    H269531   2.423   2.501  13.582  0.9542 -0.0230  0.8798
16014TIP3   OH269532   2.392   4.780  11.888  0.5084 -0.2207  0.2433
16014TIP3    H169533   2.461   4.845  11.903  0.1988  0.0039  0.6646
16014TIP3    H269534   2.437   4.696  11.899  1.1564 -0.1058 -1.3382
16015TIP3   OH269535   3.548   3.866   1.086 -0.7365  0.7368 -0.5051
16015TIP3    H169536   3.592   3.785   1.112 -3.4075 -0.5595  0.0831
16015TIP3    H269537   3.615   3.915   1.037  1.7359 -0.5809  1.4612
16016TIP3   OH269538   5.034   4.554   2.510  0.2613  0.6174  0.2304
16016TIP3    H169539   4.969   4.519   2.572  0.7665  0.4847  0.6916
16016TIP3    H269540   5.106   4.491   2.513 -0.4328 -0.2957 -1.8015
16017TIP3   OH269541   5.568   3.556   4.270 -0.0131  0.2342 -0.0175
16017TIP3    H169542   5.503   3.547   4.339  0.5618  3.2992  0.9905
16017TIP3    H269543   5.603   3.467   4.259 -0.0987 -0.3437  3.6468
16018TIP3   OH269544   1.885   4.946  13.670 -0.5209 -0.0411  0.6987
16018TIP3    H169545   1.855   4.870  13.620  1.2787  0.6816 -1.5390
16018TIP3    H269546   1.822   5.014  13.650 -0.0366  0.1255 -0.2492
16019TIP3   OH269547   5.984   0.334  14.546 -0.1598  0.0677  0.0565
16019TIP3    H169548   6.032   0.349  14.464  0.2084  1.5056  0.5314
16019TIP3    H269549   6.019   0.398  14.607 -1.8960  0.3884  0.7446
16020TIP3   OH269550   1.110   2.280  16.734 -0.1166 -0.6774  0.2133
16020TIP3    H169551   1.043   2.255  16.670 -1.2710  3.0557 -0.1622
16020TIP3    H269552   1.180   2.319  16.682  1.4471 -2.5750  0.8147
16021TIP3   OH269553   0.549   1.795   4.017 -0.3187 -0.1655 -0.4639
16021TIP3    H169554   0.632   1.763   4.051 -0.6865 -2.0575 -1.3353
16021TIP3    H269555   0.561   1.801   3.923 -0.5363  1.4730 -0.4110
16022TIP3   OH269556   4.584   2.731  17.268 -0.5337  0.5813 -0.4750
16022TIP3    H169557   4.523   2.746  17.340  0.6278  1.3158  0.3758
16022TIP3    H269558   4.536   2.760  17.190 -0.8406  2.2789  0.3228
16023TIP3   OH269559   5.454   5.143  13.558  0.0581  0.1258  0.3070
16023TIP3    H169560   5.362   5.145  13.586 -0.0230  0.9010 -0.0056
16023TIP3    H269561   5.488   5.060  13.593 -0.3353  0.5743  1.8018
16024TIP3   OH269562   6.703   5.142  13.752 -0.4331  0.6169  0.0080
16024TIP3    H169563   6.767   5.087  13.797 -1.4482 -0.2511  0.4261
16024TIP3    H269564   6.750   5.179  13.678  0.9771  1.2292  1.1914
16025TIP3   OH269565   1.467   3.269  17.253  0.0813 -0.0354  0.4849
16025TIP3    H169566   1.463   3.251  17.159  0.7996  0.3273  0.3847
16025TIP3    H269567   1.560   3.269  17.274 -0.1758 -3.1933  1.8057
16026TIP3   OH269568   0.840   3.023   1.050  0.6180 -0.3164 -0.5525
16026TIP3    H169569   0.935   3.030   1.043  0.5617  1.2987  0.0882
16026TIP3    H269570   0.813   3.107   1.088 -1.3658  0.5530 -3.6778
16027TIP3   OH269571   6.419   4.557   0.801 -1.1972  0.0926  0.1934
16027TIP3    H169572   6.447   4.487   0.860 -1.0310  0.9318  1.1244
16027TIP3    H269573   6.332   4.529   0.770 -1.5176 -0.0912  1.2578
16028TIP3   OH269574   2.668   4.626   1.678 -0.6641 -1.0368 -0.2125
16028TIP3    H169575   2.739   4.594   1.734  0.4338  0.8140 -0.4915
16028TIP3    H269576   2.636   4.548   1.632  0.8365 -1.9785  0.3148
16029TIP3   OH269577   6.081   2.524   5.354 -0.4525  0.2147 -0.0051
16029TIP3    H169578   6.010   2.558   5.409  0.7176  2.6090  0.1080
16029TIP3    H269579   6.107   2.598   5.299  1.5092 -0.8045 -0.5143
16030TIP3   OH269580   2.205   0.789   4.065  0.6711  0.4354  0.3596
16030TIP3    H169581   2.114   0.807   4.088  0.3823 -0.4610 -0.0573
16030TIP3    H269582   2.210   0.694   4.061  1.4857  0.4989 -0.1733
16031TIP3   OH269583   6.267   3.597  11.674 -0.0896 -0.0317  0.4110
16031TIP3    H169584   6.246   3.504  11.680  1.7848 -0.6509 -1.9800
16031TIP3    H269585   6.197   3.633  11.619  0.9015 -0.6849 -1.3374
16032TIP3   OH269586   2.240   1.735   0.690  0.2882 -0.0422 -0.4064
16032TIP3    H169587   2.167   1.750   0.750  0.2995 -0.8226 -0.1858
16032TIP3    H269588   2.317   1.732   0.747  0.3646 -0.2478 -0.5198
16033TIP3   OH269589   3.784   4.141  16.415 -0.5733  0.7106 -0.1610
16033TIP3    H169590   3.714   4.174  16.359 -4.2788 -2.8175  2.1029
16033TIP3    H269591   3.786   4.201  16.490 -1.5639  0.5269  0.0148
16034TIP3   OH269592   6.358   1.079   4.144  0.3465  0.0671 -0.3955
16034TIP3    H169593   6.390   1.142   4.079 -1.8617  0.7841 -0.8524
16034TIP3    H269594   6.381   1.118   4.228  1.5444  0.0684 -0.7186
16035TIP3   OH269595   5.515   4.320   1.819  0.0047 -0.0487  0.0223
16035TIP3    H169596   5.561   4.357   1.894 -0.0736 -2.1196  1.1301
16035TIP3    H269597   5.449   4.261   1.857  1.2348 -2.6189 -1.6613
16036TIP3   OH269598   0.264   1.706   2.020 -0.2842  0.3452  0.9789
16036TIP3    H169599   0.310   1.695   2.103  0.0913  1.2173  0.8881
16036TIP3    H269600   0.288   1.628   1.969  0.6545  0.5263  1.1391
16037TIP3   OH269601   4.658   4.032  11.819 -0.1502  0.2931 -0.0194
16037TIP3    H169602   4.699   4.005  11.737  0.5961  3.0254 -0.6040
16037TIP3    H269603   4.627   3.951  11.859  4.4506 -1.7819 -0.3091
16038TIP3   OH269604   3.794   3.217   4.258 -0.0164 -0.1454  0.1197
16038TIP3    H169605   3.887   3.216   4.280  0.0652  1.3257 -0.0909
16038TIP3    H269606   3.749   3.229   4.342  0.0252 -0.0231  0.1244
16039TIP3   OH269607   2.928   1.165  15.556  0.4924 -0.4114  0.8645
16039TIP3    H169608   2.836   1.175  15.583 -0.2360  0.2950 -1.7240
16039TIP3    H269609   2.936   1.072  15.537  0.3247 -0.4846  1.1419
16040TIP3   OH269610   4.887   2.555   0.748  0.6696 -0.5986  0.4145
16040TIP3    H169611   4.833   2.556   0.669  0.7465 -0.3161  0.3660
16040TIP3    H269612   4.936   2.473   0.742  0.3363 -0.7983  0.3977
16041TIP3   OH269613   5.777   3.941   4.990 -0.0173  0.1141 -0.4416
16041TIP3    H169614   5.843   3.919   4.924 -0.8475 -0.8148 -0.9853
16041TIP3    H269615   5.824   3.938   5.073  0.3274 -1.9777 -0.6745
16042TIP3   OH269616   5.127   2.068  15.882  0.2218  0.3402 -0.3222
16042TIP3    H169617   5.084   2.138  15.931  1.1288  0.9785 -0.4261
16042TIP3    H269618   5.104   2.085  15.790  1.0660  0.9622 -0.4294
16043TIP3   OH269619   5.700   2.759   0.403  0.0687  0.6082  0.0355
16043TIP3    H169620   5.744   2.831   0.359  0.8732  0.6232  0.8460
16043TIP3    H269621   5.767   2.722   0.461 -1.0084  0.6726  1.3324
16044TIP3   OH269622   2.164   0.574   3.594  0.5571 -0.9414  0.5050
16044TIP3    H169623   2.094   0.630   3.627  0.1821  0.1802 -2.1100
16044TIP3    H269624   2.120   0.492   3.571  0.2418 -0.5495 -0.3065
16045TIP3   OH269625   0.877   2.776  11.465  0.1460  0.0710 -0.4554
16045TIP3    H169626   0.969   2.749  11.460  0.5186  1.1304  0.5889
16045TIP3    H269627   0.880   2.867  11.496 -1.0234  1.6901 -4.6424
16046TIP3   OH269628   4.937   5.256  11.214 -0.0738  0.0024  0.4731
16046TIP3    H169629   5.011   5.197  11.198 -0.2268  0.2065 -1.0983
16046TIP3    H269630   4.871   5.200  11.255  0.2713 -0.6049  0.2141
16047TIP3   OH269631   0.385   2.609   5.602 -0.1762 -0.0002 -0.0522
16047TIP3    H169632   0.476   2.582   5.613 -0.6067 -1.2157  0.5854
16047TIP3    H269633   0.377   2.688   5.655  0.3073 -0.3079  0.4817
16048TIP3   OH269634   0.473   3.242  15.722 -0.2394  0.1609  0.1580
16048TIP3    H169635   0.425   3.162  15.700 -2.4428  1.7708 -1.1157
16048TIP3    H269636   0.451   3.303  15.651  1.5759  1.8312  0.9874
16049TIP3   OH269637   6.543   1.460   6.819  0.1026  0.1924 -0.0153
16049TIP3    H169638   6.547   1.376   6.865 -0.8543 -0.5709 -1.3074
16049TIP3    H269639   6.623   1.505   6.846 -0.7151  0.0363  2.9016
16050TIP3   OH269640   4.834   0.972  12.335 -0.2810 -0.3535  0.0310
16050TIP3    H169641   4.824   1.061  12.367 -0.5462 -0.6251  0.7171
16050TIP3    H269642   4.750   0.930  12.355  0.2056 -1.0479  0.6673
16051TIP3   OH269643   2.121   1.798  14.461  0.0280  0.0463 -0.5866
16051TIP3    H169644   2.175   1.872  14.488 -0.4678  0.4660 -0.7187
16051TIP3    H269645   2.087   1.762  14.542  1.8755 -1.2981 -0.3799
16052TIP3   OH269646   2.122   0.664  11.694 -0.3541  0.1906  0.5571
16052TIP3    H169647   2.113   0.751  11.653  1.2193  0.1110  0.0136
16052TIP3    H269648   2.131   0.683  11.787 -1.6134  0.5144  0.6173
16053TIP3   OH269649   3.224   5.085  13.211  0.5899 -0.3170  0.3316
16053TIP3    H169650   3.240   5.164  13.158  0.6545  0.2165  1.1449
16053TIP3    H269651   3.250   5.110  13.299  1.4530 -1.5328  0.4364
16054TIP3   OH269652   2.546   0.685   5.791 -0.0109 -0.4163  0.3905
16054TIP3    H169653   2.579   0.753   5.850 -1.2546 -0.5278  1.2172
16054TIP3    H269654   2.586   0.605   5.823 -0.2912 -0.4030  0.7718
16055TIP3   OH269655   1.876   3.959   5.945  0.1496  0.0617 -0.2936
16055TIP3    H169656   1.787   3.961   5.980  0.6988 -1.6847  1.2873
16055TIP3    H269657   1.868   3.909   5.864 -0.0621 -1.5978  0.7110
16056TIP3   OH269658   5.923   0.706   2.598  0.2013  0.5662  0.1517
16056TIP3    H169659   5.889   0.772   2.538  0.3006 -0.1478 -0.6916
16056TIP3    H269660   5.857   0.637   2.599  1.4437 -0.6522 -1.2064
16057TIP3   OH269661   5.251   4.714   4.602 -0.0801 -0.1210 -0.0782
16057TIP3    H169662   5.205   4.773   4.542  1.2680 -0.9409 -1.9929
16057TIP3    H269663   5.190   4.642   4.617 -0.3842  0.0296 -0.5827
16058TIP3   OH269664   3.137   2.176  13.078 -0.1615 -0.0778  0.0668
16058TIP3    H169665   3.216   2.186  13.025 -0.0192 -1.2108  0.0549
16058TIP3    H269666   3.094   2.262  13.073  0.2172  0.0499 -1.2864
16059TIP3   OH269667   0.223   3.771  14.849  0.0139  0.0323  0.6446
16059TIP3    H169668   0.172   3.764  14.768  2.3416 -1.6872 -0.7232
16059TIP3    H269669   0.241   3.680  14.873 -0.0006  0.5609  2.6781
16060TIP3   OH269670   0.186   6.434  11.509 -0.2009 -0.0284  0.2773
16060TIP3    H169671   0.268   6.480  11.491  0.0789 -0.0529  1.4519
16060TIP3    H269672   0.208   6.341  11.501  0.0416 -0.0554  1.2074
16061TIP3   OH269673   4.069   1.237  14.353  0.3429 -0.5979 -0.0465
16061TIP3    H169674   4.149   1.187  14.370  0.6876 -0.1744 -0.4053
16061TIP3    H269675   4.005   1.200  14.413  1.7892  1.4573  2.9573
16062TIP3   OH269676   1.280   4.192  13.765  0.0547  0.3190 -0.0168
16062TIP3    H169677   1.343   4.127  13.795  0.1898  0.0506 -0.8518
16062TIP3    H269678   1.196   4.148  13.770  0.2236 -0.1707 -1.2360
16063TIP3   OH269679   3.821   1.179   5.694  0.5165 -0.1355 -0.4369
16063TIP3    H169680   3.804   1.176   5.600  0.4001  1.6332 -0.4883
16063TIP3    H269681   3.910   1.146   5.703 -0.0647 -1.9287 -0.9725
16064TIP3   OH269682   3.415   0.675   5.026 -0.2363 -0.5523 -0.0942
16064TIP3    H169683   3.469   0.669   5.105  0.2531 -0.5624 -0.4280
16064TIP3    H269684   3.362   0.753   5.040 -1.2562 -1.4254  0.9296
16065TIP3   OH269685   3.437   4.223   3.434  0.3293  0.2220  0.1090
16065TIP3    H169686   3.377   4.220   3.360  2.5657  0.4103 -1.7861
16065TIP3    H269687   3.439   4.314   3.461  1.2280  0.5806 -1.1120
16066TIP3   OH269688   3.800   2.056   3.956  0.0796  0.4088  0.0802
16066TIP3    H169689   3.797   2.049   4.052 -0.8546  1.3167  0.1218
16066TIP3    H269690   3.805   2.150   3.939  0.3579  0.2436 -0.7635
16067TIP3   OH269691   6.705   1.267  17.216  0.1032  0.2795 -0.4346
16067TIP3    H169692   6.776   1.270  17.279 -1.3894 -0.0847  1.2871
16067TIP3    H269693   6.685   1.359  17.199 -0.6446  0.3798  0.9480
16068TIP3   OH269694   0.537   4.505  15.841 -0.1022  0.5353 -0.2101
16068TIP3    H169695   0.510   4.547  15.923  0.5575  1.4791 -0.4649
16068TIP3    H269696   0.455   4.490  15.794 -0.6083 -1.0716  1.0931
16069TIP3   OH269697   5.087   2.727   5.084  0.2049  0.2443  0.2356
16069TIP3    H169698   5.172   2.751   5.046 -0.7453  1.2748 -1.3210
16069TIP3    H269699   5.068   2.641   5.046  0.1985  0.3624 -0.0330
16070TIP3   OH269700   6.190   0.112  14.426 -0.2374  0.6255  0.3140
16070TIP3    H169701   6.263   0.070  14.471  0.0834  0.4040 -0.4042
16070TIP3    H269702   6.214   0.204  14.421 -0.9496  0.8989  1.9138
16071TIP3   OH269703   1.943   5.202  15.450 -0.3389 -0.1784 -0.3572
16071TIP3    H169704   1.936   5.298  15.449 -0.8348 -0.2212 -0.8036
16071TIP3    H269705   1.854   5.171  15.467  0.0056 -0.5443  0.8654
16072TIP3   OH269706   1.919   6.322  14.047 -0.1780 -0.0184  0.0618
16072TIP3    H169707   1.873   6.347  13.967 -0.1005 -0.7151 -0.2074
16072TIP3    H269708   1.875   6.242  14.076  0.4388 -0.3302  0.1587
16073TIP3   OH269709   4.300   6.386  12.253 -0.2532  0.1646 -0.0555
16073TIP3    H169710   4.228   6.326  12.234  0.0253 -0.1590 -0.0851
16073TIP3    H269711   4.305   6.388  12.349  0.5493 -0.8358 -0.0634
16074TIP3   OH269712   3.647   4.676  14.308 -0.4004 -0.3341  0.0342
16074TIP3    H169713   3.640   4.748  14.370  0.9850 -0.0373 -0.1443
16074TIP3    H269714   3.648   4.718  14.222 -0.2971 -0.6150 -0.1024
16075TIP3   OH269715   4.835   3.173   4.396  0.2927  0.6354 -0.2242
16075TIP3    H169716   4.927   3.148   4.399  0.7073  1.8082 -1.9494
16075TIP3    H269717   4.788   3.091   4.387  1.1691  0.0183  0.6953
16076TIP3   OH269718   6.077   1.630   2.639 -0.1597 -0.3851 -0.3158
16076TIP3    H169719   6.042   1.575   2.569  0.0860 -1.8493  0.6972
16076TIP3    H269720   6.115   1.705   2.594  0.4874 -1.5922 -1.7828
16077TIP3   OH269721   2.069   5.744  14.599  0.0337  0.4358  0.2439
16077TIP3    H169722   2.082   5.660  14.644  0.3061  0.2290 -0.2177
16077TIP3    H269723   2.094   5.809  14.664 -1.0271  0.1949  0.9039
16078TIP3   OH269724   3.043   5.695   4.114 -0.2766  0.3807  0.1650
16078TIP3    H169725   3.011   5.615   4.072  0.9599 -0.5020  0.8820
16078TIP3    H269726   2.973   5.759   4.098 -1.1812 -0.7639 -0.6155
16079TIP3   OH269727   3.959   2.268   3.821  0.0184 -0.3295  0.1573
16079TIP3    H169728   4.018   2.208   3.774  1.6642  0.9161  0.5614
16079TIP3    H269729   3.880   2.272   3.767  0.6512 -1.3557 -0.8648
16080TIP3   OH269730   1.710   3.144   2.159 -0.2479 -0.3869  0.0223
16080TIP3    H169731   1.718   3.196   2.079  0.8659 -0.5232  0.0365
16080TIP3    H269732   1.800   3.139   2.194 -0.7155 -0.3287  1.2757
16081TIP3   OH269733   5.070   3.970   4.683  0.1484 -0.3986 -0.2284
16081TIP3    H169734   5.114   3.900   4.634  0.8368 -0.1884  0.0818
16081TIP3    H269735   5.117   3.974   4.766 -0.0420  0.2727 -0.1537
16082TIP3   OH269736   4.059   3.300   6.017 -0.1088 -0.2015 -0.2302
16082TIP3    H169737   4.109   3.375   5.982  0.3818 -0.7518 -0.7255
16082TIP3    H269738   4.116   3.225   6.001 -0.8269 -0.7490 -0.2110
16083TIP3   OH269739   5.108   1.844  13.744 -0.7999  0.2732 -0.1043
16083TIP3    H169740   5.145   1.812  13.662 -0.6456 -0.7445  0.3461
16083TIP3    H269741   5.090   1.936  13.729  3.0542  1.1344  0.0777
16084TIP3   OH269742   3.273   0.518  15.554 -0.0499  0.3043  0.1217
16084TIP3    H169743   3.272   0.433  15.510  1.4599  0.3381  0.0041
16084TIP3    H269744   3.331   0.573  15.501 -1.3074  1.5405 -0.0222
16085TIP3   OH269745   1.377   1.196  15.529  0.0830 -0.4754 -0.0338
16085TIP3    H169746   1.356   1.151  15.448  0.4148  0.2196 -0.5151
16085TIP3    H269747   1.457   1.245  15.509 -1.5959  2.2726 -0.2749
16086TIP3   OH269748   2.108   5.911  14.886 -0.0610  0.4721  0.3479
16086TIP3    H169749   2.059   5.976  14.834  2.0319  0.7948 -1.3056
16086TIP3    H269750   2.143   5.961  14.960 -0.1125  0.8139  0.1425
16087TIP3   OH269751   6.432   2.510   3.730 -0.7809 -0.6747 -0.6152
16087TIP3    H169752   6.449   2.462   3.811  0.6559 -1.0167 -1.1067
16087TIP3    H269753   6.512   2.498   3.678 -0.2874  2.4452 -0.6509
16088TIP3   OH269754   4.016   5.871   3.357  0.0975 -0.1869 -0.0520
16088TIP3    H169755   3.931   5.886   3.398  0.2494  0.1845  0.1365
16088TIP3    H269756   4.061   5.955   3.365  0.7314 -0.5676  0.4466
16089TIP3   OH269757   0.702   1.501  14.633  0.4990 -0.3408  0.1294
16089TIP3    H169758   0.629   1.544  14.679  0.5848  1.4725 -1.3628
16089TIP3    H269759   0.670   1.490  14.544  1.9283  0.1514 -0.4511
16090TIP3   OH269760   4.579   6.156  11.964  0.0606 -0.2124 -0.9248
16090TIP3    H169761   4.513   6.221  11.989 -0.3820 -1.6220  1.7580
16090TIP3    H269762   4.528   6.086  11.922 -0.0545 -0.8700  0.2930
16091TIP3   OH269763   5.058   6.362   4.979 -0.4255  0.4273 -0.6188
16091TIP3    H169764   5.057   6.414   5.059 -0.2337 -0.0392 -0.3075
16091TIP3    H269765   5.001   6.409   4.918 -0.4243  0.8810 -0.2692
16092TIP3   OH269766   1.459   3.210   2.017  0.8194 -0.3189  0.0219
16092TIP3    H169767   1.369   3.211   2.049  1.9045  0.1639  3.2128
16092TIP3    H269768   1.506   3.155   2.079  3.3862  2.0715  0.2995
16093TIP3   OH269769   3.487   2.781   4.539  0.4053 -0.3432  0.0795
16093TIP3    H169770   3.431   2.858   4.546  1.7815  0.7102 -0.1965
16093TIP3    H269771   3.574   2.817   4.521  0.9080 -1.9992 -0.9156
16094TIP3   OH269772   2.466   1.198   6.468 -0.2981  0.3182  0.3253
16094TIP3    H169773   2.462   1.286   6.433 -2.0254  0.2004  0.1783
16094TIP3    H269774   2.477   1.210   6.562  0.6356  0.6654  0.1785
16095TIP3   OH269775   4.543   5.839   5.044  0.9868 -0.2561 -0.6987
16095TIP3    H169776   4.469   5.899   5.041  1.0703 -0.0672  0.8387
16095TIP3    H269777   4.617   5.890   5.010  0.6767 -0.0487 -1.0608
16096TIP3   OH269778   1.216   4.301  15.343  0.0838  0.2388  0.0806
16096TIP3    H169779   1.300   4.264  15.371 -0.2321 -0.5888 -0.0651
16096TIP3    H269780   1.193   4.363  15.412  1.6310  1.7098 -0.6761
16097TIP3   OH269781   3.140   1.358  17.262 -0.1343  0.1302  0.1439
16097TIP3    H169782   3.087   1.338  17.185 -1.0282  0.0283  0.7833
16097TIP3    H269783   3.127   1.283  17.320  0.8246  0.0329  0.2500
16098TIP3   OH269784   6.065   0.230  17.093  0.2922  0.2507  0.1789
16098TIP3    H169785   6.006   0.167  17.134 -0.8592  1.4937  0.4490
16098TIP3    H269786   6.047   0.313  17.137  3.2749  0.3797  1.2842
16099TIP3   OH269787   0.257   5.438  16.955 -0.0745 -0.0219 -0.1337
16099TIP3    H169788   0.265   5.530  16.983  0.1668 -0.0596 -0.0818
16099TIP3    H269789   0.307   5.389  17.020 -0.5748 -0.2370  0.0908
16100TIP3   OH269790   2.258   1.625  13.377 -0.5634 -1.0122 -0.8436
16100TIP3    H169791   2.229   1.598  13.290  2.1645 -2.2872 -1.3875
16100TIP3    H269792   2.315   1.700  13.361 -0.7173 -0.7244 -0.0705
16101TIP3   OH269793   3.556   0.835   1.966  0.5025 -0.0794 -0.0368
16101TIP3    H169794   3.493   0.763   1.958  0.7005 -0.1878 -0.6471
16101TIP3    H269795   3.543   0.888   1.888  1.6463 -0.4935 -0.5322
16102TIP3   OH269796   6.666   1.708   1.542  0.3115  0.2790  0.3699
16102TIP3    H169797   6.683   1.682   1.451  2.6779  2.0935  0.2494
16102TIP3    H269798   6.586   1.760   1.537 -1.0026 -1.7182 -0.2615
16103TIP3   OH269799   1.086   6.614  13.363  0.2974  0.0316  0.1816
16103TIP3    H169800   1.121   6.617  13.452 -0.6421  0.1952  0.5474
16103TIP3    H269801   1.000   6.572  13.372 -0.7702  2.0646 -0.3296
16104TIP3   OH269802   6.100   2.471  15.661  0.4089 -0.6928 -0.2203
16104TIP3    H169803   6.014   2.438  15.635  0.3236  0.3598 -1.2810
16104TIP3    H269804   6.081   2.552  15.708  0.8077 -0.7182 -0.0104
16105TIP3   OH269805   2.058   4.556  13.940 -0.4063  0.1759  0.3557
16105TIP3    H169806   1.977   4.565  13.888  1.3233  2.1442 -2.1229
16105TIP3    H269807   2.100   4.641  13.934  1.2590 -0.4237  2.7333
16106TIP3   OH269808   0.689   3.777  11.343 -0.1405 -0.2015 -0.2373
16106TIP3    H169809   0.659   3.715  11.277 -1.0226  0.2616 -0.2757
16106TIP3    H269810   0.613   3.832  11.362  0.0809 -0.3793  1.2358
16107TIP3   OH269811   2.386   2.292  14.467  0.0865 -0.2086  0.8989
16107TIP3    H169812   2.434   2.258  14.392 -2.6607 -0.0849 -1.0077
16107TIP3    H269813   2.420   2.381  14.480 -0.1529  0.1602 -0.9138
16108TIP3   OH269814   1.067   5.423  12.459 -0.5592 -0.3426 -0.6058
16108TIP3    H169815   1.050   5.467  12.543 -0.3475  1.5328 -1.5099
16108TIP3    H269816   1.161   5.437  12.444 -1.0495  1.4419 -2.2801
16109TIP3   OH269817   0.953   2.785   3.143 -0.1973 -0.0772  0.2929
16109TIP3    H169818   1.033   2.736   3.163  0.2783  0.2791 -0.7238
16109TIP3    H269819   0.935   2.833   3.224  0.4514 -0.3815  0.6316
16110TIP3   OH269820   3.960   1.955   4.449 -0.0419 -0.7636  0.3707
16110TIP3    H169821   4.049   1.946   4.415 -0.2355  1.7568 -0.9710
16110TIP3    H269822   3.969   2.011   4.526 -0.6956  1.5555 -1.1795
16111TIP3   OH269823   5.902   2.251   4.983 -0.0793 -0.1931 -0.1248
16111TIP3    H169824   5.823   2.217   5.024  0.3159  0.2745  1.0441
16111TIP3    H269825   5.953   2.289   5.055  0.0071  1.8526 -1.2054
16112TIP3   OH269826   3.568   2.126   1.202  0.4642 -0.0231 -0.4105
16112TIP3    H169827   3.648   2.112   1.253  0.4619 -2.0025 -0.8875
16112TIP3    H269828   3.596   2.176   1.126  0.8502  1.1490  0.4982
16113TIP3   OH269829   4.388   2.650  14.502 -0.2208  0.7689  0.2726
16113TIP3    H169830   4.336   2.731  14.501 -1.0563  0.2513  1.2441
16113TIP3    H269831   4.348   2.596  14.434  0.8190  1.4553 -0.9111
16114TIP3   OH269832   2.107   2.167  17.259 -0.9373 -0.3546  0.2332
16114TIP3    H169833   2.138   2.126  17.178 -0.7330 -0.9095  0.5947
16114TIP3    H269834   2.073   2.095  17.311 -1.8751  0.1124  0.2841
16115TIP3   OH269835   1.404   2.582  12.628 -0.0467 -0.2301 -0.4244
16115TIP3    H169836   1.350   2.568  12.706 -2.3217 -0.4134 -1.9849
16115TIP3    H269837   1.478   2.634  12.659 -0.5091 -0.9649  2.0028
16116TIP3   OH269838   5.928   4.567   5.318  0.1498 -0.5088 -0.0617
16116TIP3    H169839   5.956   4.520   5.396  0.8743  0.2909  0.1766
16116TIP3    H269840   5.833   4.558   5.316  0.0974 -0.2560  1.1008
16117TIP3   OH269841   2.574   1.611  11.259  0.0851 -0.3366 -0.2075
16117TIP3    H169842   2.486   1.576  11.273 -0.5955  1.0274 -0.9920
16117TIP3    H269843   2.614   1.608  11.346 -1.6464  1.4321  0.6791
16118TIP3   OH269844   5.235   1.620   3.103  0.0295  0.0202  0.5165
16118TIP3    H169845   5.151   1.580   3.083  0.1756  0.2995 -0.6442
16118TIP3    H269846   5.264   1.575   3.183 -0.9423 -0.4797  0.5883
16119TIP3   OH269847   3.129   0.102   3.618 -0.0364 -0.1683  0.1556
16119TIP3    H169848   3.210   0.096   3.669 -0.1398  1.7006  0.5907
16119TIP3    H269849   3.154   0.149   3.538 -0.6991  0.5674  0.3662
16120TIP3   OH269850   6.686   2.722   4.763  0.6462 -0.7557 -0.6361
16120TIP3    H169851   6.634   2.770   4.699  1.9812  0.8532 -0.5553
16120TIP3    H269852   6.776   2.727   4.728  1.1208 -1.2983  0.5036
16121TIP3   OH269853   0.834   3.989   6.913  0.2806 -0.6932  0.0564
16121TIP3    H169854   0.879   3.975   6.830  0.0813 -0.2425 -0.1290
16121TIP3    H269855   0.876   4.066   6.951 -1.2531  0.5909 -0.7748
16122TIP3   OH269856   0.461   5.645  15.177 -0.3824 -0.3612  0.1263
16122TIP3    H169857   0.552   5.619  15.159 -0.9769 -0.6486 -2.5602
16122TIP3    H269858   0.448   5.623  15.270  2.1190 -0.7734  0.4153
16123TIP3   OH269859   4.818   3.714   5.301  0.4138 -0.2820  0.5018
16123TIP3    H169860   4.851   3.781   5.361 -1.2442  1.1445 -0.1423
16123TIP3    H269861   4.725   3.734   5.292  0.6697 -0.4048 -2.6701
16124TIP3   OH269862   3.554   1.049  12.571  0.3105 -0.0117  0.1569
16124TIP3    H169863   3.541   1.128  12.518  1.5429  1.5615  2.1574
16124TIP3    H269864   3.467   1.010  12.577 -0.3380  1.2536 -0.7382
16125TIP3   OH269865   2.250   0.542   1.435 -0.3523 -0.1049  0.0202
16125TIP3    H169866   2.316   0.590   1.386  0.8365  0.9864  2.6070
16125TIP3    H269867   2.224   0.471   1.376  0.7065  1.3841 -2.3227
16126TIP3   OH269868   1.201   1.798   6.451 -0.7059  0.0086 -0.1599
16126TIP3    H169869   1.173   1.721   6.501 -0.6968 -0.8875 -1.5107
16126TIP3    H269870   1.128   1.816   6.392 -0.7949  1.1811  0.2929
16127TIP3   OH269871   3.257   0.619   3.423 -0.0334  0.5121  0.0607
16127TIP3    H169872   3.172   0.657   3.443 -1.0275 -0.5260 -2.0197
16127TIP3    H269873   3.296   0.680   3.360  0.4393  0.6011  0.4397
16128TIP3   OH269874   0.756   1.882  12.816  0.0666 -0.6343  0.2365
16128TIP3    H169875   0.686   1.840  12.865 -0.6468  0.2264 -0.0378
16128TIP3    H269876   0.813   1.920  12.883 -1.2429  1.0856  0.3992
16129TIP3   OH269877   3.271   5.054   1.843 -0.0351 -0.6359 -0.5468
16129TIP3    H169878   3.200   5.052   1.907  0.5983 -0.3196  0.1666
16129TIP3    H269879   3.244   5.119   1.779 -0.0226  0.0621  0.1543
16130TIP3   OH269880   2.563   2.235  16.152 -0.3703 -0.5184 -0.1142
16130TIP3    H169881   2.554   2.328  16.172  1.1275  0.1108 -2.1890
16130TIP3    H269882   2.537   2.227  16.060  1.0640 -1.8544 -0.4239
16131TIP3   OH269883   5.144   1.368  16.289 -0.1418  0.1560  0.0531
16131TIP3    H169884   5.079   1.413  16.235 -0.1087 -0.6254 -0.6607
16131TIP3    H269885   5.113   1.277  16.293 -0.1144  0.2004  1.3220
16132TIP3   OH269886   0.446   6.531  11.445  0.1162  0.0980  0.0639
16132TIP3    H169887   0.489   6.566  11.522 -0.6284  0.1034  0.4842
16132TIP3    H269888   0.513   6.534  11.376  1.4994 -1.9939  1.2563
16133TIP3   OH269889   0.594   1.874  16.629 -0.3921 -0.1095  0.6581
16133TIP3    H169890   0.681   1.848  16.601 -1.6329 -1.2801 -2.3692
16133TIP3    H269891   0.554   1.793  16.661 -1.9267 -0.6451 -2.4071
16134TIP3   OH269892   0.401   1.201   3.621 -0.2450 -0.0600  0.1442
16134TIP3    H169893   0.464   1.130   3.623  0.8875  0.9715  2.2446
16134TIP3    H269894   0.369   1.202   3.530  0.2468 -2.7221 -0.0946
16135TIP3   OH269895   0.243   2.182   0.633 -0.0942  0.2189 -0.8037
16135TIP3    H169896   0.170   2.230   0.671 -0.4238 -0.0509 -1.0882
16135TIP3    H269897   0.321   2.216   0.678 -0.5185 -0.4244  0.4520
16136TIP3   OH269898   5.793   3.514  11.646  0.5355 -0.1447  0.5293
16136TIP3    H169899   5.743   3.577  11.594  1.3990  0.3377  0.2546
16136TIP3    H269900   5.784   3.545  11.737  2.1969  1.2973  0.2427
16137TIP3   OH269901   6.587   1.585  16.401 -0.2534  0.7587 -0.3140
16137TIP3    H169902   6.643   1.525  16.353  0.2465  0.0473  1.1276
16137TIP3    H269903   6.641   1.662  16.416 -0.1179  0.6361 -0.1614
16138TIP3   OH269904   3.978   5.720  11.218  0.1419  0.0706  0.5328
16138TIP3    H169905   3.958   5.744  11.128  0.6336 -0.7769  0.1862
16138TIP3    H269906   3.918   5.772  11.271 -1.3133 -0.6465 -0.3657
16139TIP3   OH269907   6.548   4.741   3.503 -0.4846  0.2150 -0.1772
16139TIP3    H169908   6.497   4.674   3.457 -0.0211  1.3590 -2.4292
16139TIP3    H269909   6.576   4.801   3.434  2.2883  0.6713  1.2774
16140TIP3   OH269910   0.901   2.050  10.305  0.0655  0.7799 -0.1249
16140TIP3    H169911   0.915   2.012  10.391 -0.7242  1.4468  0.3094
16140TIP3    H269912   0.806   2.060  10.298 -0.0288 -1.0494 -1.8550
16141TIP3   OH269913   4.216   4.475  14.930 -0.0948  0.4900 -0.1982
16141TIP3    H169914   4.302   4.489  14.971  0.7684  1.5876 -2.2881
16141TIP3    H269915   4.235   4.475  14.836 -2.0042 -2.0252 -0.6118
16142TIP3   OH269916   1.404   5.524   1.586  0.4230  0.4614 -0.0853
16142TIP3    H169917   1.387   5.478   1.503 -1.2873  0.9541 -0.0297
16142TIP3    H269918   1.499   5.531   1.590  0.5243  0.6873 -2.1728
16143TIP3   OH269919   5.341   3.660  11.808  0.7441  0.0211 -0.2563
16143TIP3    H169920   5.313   3.751  11.801 -0.4693 -0.3424 -0.2027
16143TIP3    H269921   5.418   3.654  11.751 -0.2067  0.6513 -1.6360
16144TIP3   OH269922   5.565   2.001   4.692 -0.4697  0.0534 -0.2077
16144TIP3    H169923   5.642   2.058   4.692 -0.4160 -0.0199 -0.2651
16144TIP3    H269924   5.580   1.940   4.764  0.2296 -0.9191 -1.1689
16145TIP3   OH269925   3.984   3.731   1.605 -0.4090 -0.1462 -0.0957
16145TIP3    H169926   3.996   3.718   1.699  0.7852 -2.7843 -0.5569
16145TIP3    H269927   3.890   3.735   1.593 -0.5668  0.4558  1.2440
16146TIP3   OH269928   3.376   4.439   5.044 -0.0221  0.2333 -0.5038
16146TIP3    H169929   3.395   4.533   5.041  1.3315  0.0147  0.4971
16146TIP3    H269930   3.348   4.417   4.955 -2.0293  1.9075 -0.3334
16147TIP3   OH269931   0.433   5.188   2.601  0.3215  0.2116 -0.3149
16147TIP3    H169932   0.521   5.222   2.616  0.5417 -1.1206  1.5987
16147TIP3    H269933   0.401   5.164   2.689 -1.5541 -0.2546 -1.0928
16148TIP3   OH269934   0.802   1.570   5.312  0.1488 -0.3937 -0.0699
16148TIP3    H169935   0.864   1.632   5.272  1.8875 -2.7003 -1.0652
16148TIP3    H269936   0.718   1.616   5.309  1.8551  3.1028  1.9079
16149TIP3   OH269937   3.687   0.053   0.740 -0.1586  0.1598 -0.1612
16149TIP3    H169938   3.638   0.111   0.682  0.2281  0.4288 -0.2171
16149TIP3    H269939   3.778   0.079   0.729 -0.1120  0.4244  0.8006
16150TIP3   OH269940   2.954   3.606   1.509  0.2070 -0.6314 -0.4497
16150TIP3    H169941   3.025   3.628   1.569  3.1053 -0.3003 -3.8411
16150TIP3    H269942   2.945   3.684   1.453 -3.1550 -0.5039  0.1588
16151TIP3   OH269943   5.792   6.089  13.984 -0.4540 -0.5043 -0.1903
16151TIP3    H169944   5.784   6.140  14.065 -1.3477 -0.0721 -0.5332
16151TIP3    H269945   5.794   6.156  13.915 -0.6051 -0.9023 -0.5794
16152TIP3   OH269946   4.388   5.131   5.632  0.2496 -0.8202 -0.3756
16152TIP3    H169947   4.461   5.153   5.689 -0.7436  0.0729  0.5758
16152TIP3    H269948   4.415   5.049   5.589  1.2587 -1.1862  0.9164
16153TIP3   OH269949   3.015   2.382  15.157 -0.1931  0.7463 -0.3801
16153TIP3    H169950   2.996   2.289  15.161  2.1181  0.2383 -0.5785
16153TIP3    H269951   2.939   2.424  15.197 -0.7657 -1.2758  0.7140
16154TIP3   OH269952   5.421   3.056   0.586 -0.0256 -0.9711  0.1710
16154TIP3    H169953   5.338   3.101   0.598 -0.5158 -1.7377 -0.2385
16154TIP3    H269954   5.461   3.054   0.673  0.6948  1.5328 -0.0790
16155TIP3   OH269955   6.674   1.545  10.914  0.5098  0.2990  0.5891
16155TIP3    H169956   6.737   1.560  10.984  1.6836 -0.3180 -0.3158
16155TIP3    H269957   6.703   1.602  10.843  1.8631 -2.2054 -0.9441
16156TIP3   OH269958   6.068   6.015  17.168 -0.2328 -0.2664 -0.3541
16156TIP3    H169959   6.108   5.966  17.241 -1.0573 -0.8268 -0.2731
16156TIP3    H269960   6.142   6.061  17.128 -0.0177  1.5089  1.9362
16157TIP3   OH269961   5.908   3.083  14.208  0.2639 -0.5312  0.5444
16157TIP3    H169962   5.893   3.107  14.300  1.0992  2.4416 -0.0368
16157TIP3    H269963   5.974   3.145  14.178 -1.6164  0.0436 -2.6743
16158TIP3   OH269964   1.544   1.740   2.552  0.6232  0.0691  0.0860
16158TIP3    H169965   1.467   1.748   2.495 -0.6671 -1.4282  1.5555
16158TIP3    H269966   1.550   1.825   2.596 -2.4626 -0.9470  2.6745
16159TIP3   OH269967   6.219   6.177   2.482 -0.2329 -0.2402  0.6591
16159TIP3    H169968   6.246   6.129   2.403  0.6543 -0.6686  1.2023
16159TIP3    H269969   6.271   6.137   2.552  1.7628  2.6005  0.8778
16160TIP3   OH269970   2.106   4.826  16.928 -0.3698 -0.3461 -0.2025
16160TIP3    H169971   2.172   4.816  16.859 -0.1123  0.6696 -0.1090
16160TIP3    H269972   2.151   4.799  17.008 -0.6893 -1.5907 -0.4300
16161TIP3   OH269973   1.642   3.943   3.122  0.6918  0.4870  0.4334
16161TIP3    H169974   1.687   3.861   3.103 -1.1939 -0.5665  0.3514
16161TIP3    H269975   1.608   3.972   3.037 -0.2701  0.3286  0.7510
16162TIP3   OH269976   2.834   0.185   6.464 -0.4424  0.9664 -0.2838
16162TIP3    H169977   2.820   0.127   6.389  0.5299 -0.2075  0.4219
16162TIP3    H269978   2.807   0.134   6.540 -1.5375  2.1955  0.1744
16163TIP3   OH269979   2.989   5.382   2.096  0.7775  0.0140  0.1131
16163TIP3    H169980   3.013   5.382   2.189 -0.5419 -1.4776  0.4662
16163TIP3    H269981   3.004   5.472   2.067 -3.1864  1.6988  2.9049
16164TIP3   OH269982   6.318   2.121   5.474  0.0843 -0.4933  0.2997
16164TIP3    H169983   6.407   2.086   5.476  0.8526  0.9656 -3.1623
16164TIP3    H269984   6.326   2.209   5.512 -0.1234 -0.8603  1.1821
16165TIP3   OH269985   3.768   5.387  17.221  0.1084  0.3119 -0.3779
16165TIP3    H169986   3.740   5.473  17.250 -2.1289  0.0173 -1.5250
16165TIP3    H269987   3.687   5.335  17.219  1.0180 -1.1039 -2.0434
16166TIP3   OH269988   4.766   5.010   1.203 -0.4046 -0.5177  0.7252
16166TIP3    H169989   4.763   5.044   1.292 -0.3156  1.9238 -0.1603
16166TIP3    H269990   4.700   5.061   1.156  0.4898 -0.8243 -0.8995
16167TIP3   OH269991   4.838   1.479   5.713 -0.2408 -0.0246  0.1113
16167TIP3    H169992   4.858   1.571   5.729  0.7707 -0.1958 -0.1035
16167TIP3    H269993   4.781   1.479   5.636 -0.0604  0.4144 -0.0197
16168TIP3   OH269994   1.303   4.037  12.998 -0.3839 -0.0959  0.4020
16168TIP3    H169995   1.242   4.110  13.009 -0.2642  0.2715 -1.1777
16168TIP3    H269996   1.378   4.076  12.952 -0.2358 -1.1516 -0.2637
16169TIP3   OH269997   0.376   0.282  16.665 -0.1138 -0.0935  0.3596
16169TIP3    H169998   0.304   0.299  16.604 -0.1884  1.4637  0.8711
16169TIP3    H269999   0.335   0.234  16.737  0.0803 -2.4269 -1.0406
16170TIP3   OH270000   5.569   6.108  16.936  0.6257  0.0798  0.4484
16170TIP3    H170001   5.597   6.112  17.027  1.7955  0.3987  0.0776
16170TIP3    H270002   5.641   6.146  16.886  1.4252 -3.0605 -0.9121
16171TIP3   OH270003   3.820   3.378   2.246 -0.1083 -0.7033 -0.0978
16171TIP3    H170004   3.879   3.323   2.297  0.1346 -0.4180 -0.0716
16171TIP3    H270005   3.861   3.464   2.246  0.3354 -0.9021 -1.4985
16172TIP3   OH270006   2.379   4.770  12.618 -0.0868 -0.4730  0.7144
16172TIP3    H170007   2.402   4.819  12.538 -0.1058  0.1631  1.0966
16172TIP3    H270008   2.284   4.779  12.625 -0.4248 -2.6777 -0.5823
16173TIP3   OH270009   4.733   2.735  16.923  0.2683 -0.3206 -0.1282
16173TIP3    H170010   4.744   2.791  16.846 -0.5439 -0.3039 -0.2355
16173TIP3    H270011   4.778   2.653  16.899 -0.3903 -0.4925 -0.8123
16174TIP3   OH270012   0.481   3.444   1.013 -0.0008  0.6507  0.0721
16174TIP3    H170013   0.537   3.507   0.968  1.8542 -0.2044  1.1017
16174TIP3    H270014   0.504   3.360   0.975 -2.5662  0.5390 -1.3901
16175TIP3   OH270015   4.266   0.748   1.566  0.0968 -0.3416  0.1962
16175TIP3    H170016   4.261   0.817   1.499 -0.7393 -1.2477 -0.6992
16175TIP3    H270017   4.359   0.734   1.580  0.2662  1.0464  0.4585
16176TIP3   OH270018   0.857   0.771   4.422 -0.4044 -0.2827  0.1087
16176TIP3    H170019   0.933   0.785   4.479  0.4958  0.1090 -1.1457
16176TIP3    H270020   0.803   0.707   4.468  0.5650 -0.3614  1.1494
16177TIP3   OH270021   2.451   0.139   1.959  0.1580 -0.0250 -0.2647
16177TIP3    H170022   2.456   0.234   1.952  0.5621 -0.0237  0.0240
16177TIP3    H270023   2.452   0.122   2.054  0.4133 -0.3329 -0.3216
16178TIP3   OH270024   5.961   3.155  12.886  0.4659 -0.0853  0.0161
16178TIP3    H170025   5.879   3.166  12.935  0.7982  0.2099  0.5055
16178TIP3    H270026   5.932   3.132  12.797 -0.1419 -0.3854  0.2861
16179TIP3   OH270027   0.442   5.854   3.134  0.1005  0.1904  0.2635
16179TIP3    H170028   0.418   5.916   3.203 -0.2753  0.3477 -0.0029
16179TIP3    H270029   0.423   5.900   3.052  1.6810  0.4445  0.0365
16180TIP3   OH270030   2.285   5.032  12.718  0.4127  0.0201 -0.4523
16180TIP3    H170031   2.233   4.954  12.698 -1.2575  0.8019  0.6974
16180TIP3    H270032   2.350   5.001  12.781 -0.2484 -0.4694  0.0072
16181TIP3   OH270033   2.178   2.778   1.930 -0.7664  0.0914 -0.3932
16181TIP3    H170034   2.182   2.868   1.963  0.1432  0.3351 -1.1440
16181TIP3    H270035   2.149   2.788   1.839 -0.3332 -0.3438 -0.5794
16182TIP3   OH270036   4.210   0.819   2.487 -0.2695 -0.1232  0.0701
16182TIP3    H170037   4.283   0.822   2.425 -1.6967  1.0799 -1.5798
16182TIP3    H270038   4.133   0.805   2.433 -1.4520  0.0746  1.6762
16183TIP3   OH270039   5.867   3.848  16.055 -0.2624 -0.2464 -0.0362
16183TIP3    H170040   5.776   3.845  16.084 -0.3237 -0.6438 -0.2546
16183TIP3    H270041   5.878   3.935  16.016 -1.7001 -1.5710 -3.6676
16184TIP3   OH270042   2.666   5.895   1.806  0.2045  0.3413 -0.2290
16184TIP3    H170043   2.683   5.939   1.722 -1.7916 -0.8996 -1.3178
16184TIP3    H270044   2.623   5.961   1.860 -0.6975  0.4397 -1.0540
16185TIP3   OH270045   5.727   3.372  11.918 -0.2701 -0.1326  0.0658
16185TIP3    H170046   5.791   3.368  11.989 -1.9037 -2.9700  1.4949
16185TIP3    H270047   5.671   3.447  11.939 -0.4709 -0.6903  1.5616
16186TIP3   OH270048   6.543   1.303  14.658  0.2811 -0.3417  0.1814
16186TIP3    H170049   6.615   1.275  14.600  0.3623  0.9260 -0.3648
16186TIP3    H270050   6.479   1.342  14.598 -0.6847 -1.0960  0.7155
16187TIP3   OH270051   2.848   4.438  13.180 -0.3653  0.2837 -0.0452
16187TIP3    H170052   2.884   4.490  13.108 -1.2489 -1.3513 -1.7360
16187TIP3    H270053   2.915   4.440  13.248  0.5151  1.8142 -0.9400
16188TIP3   OH270054   6.456   3.807  12.966  0.1706 -0.2253  0.1004
16188TIP3    H170055   6.420   3.760  12.891 -0.7263 -0.0539  0.4156
16188TIP3    H270056   6.550   3.792  12.960  0.3331  1.3144 -2.1286
16189TIP3   OH270057   2.941   0.940  11.906 -0.0227  0.6925  0.1124
16189TIP3    H170058   3.030   0.971  11.890  0.9045 -1.2392  1.4030
16189TIP3    H270059   2.905   1.003  11.969  0.5649  1.2133 -0.0637
16190TIP3   OH270060   6.533   5.634  13.988 -0.1250  0.5673  0.3997
16190TIP3    H170061   6.542   5.719  14.032  0.5430  0.5074  0.3820
16190TIP3    H270062   6.620   5.595  13.993  0.4637  1.3429 -2.5659
16191TIP3   OH270063   4.744   4.451  11.685 -0.5748  0.2235  0.0653
16191TIP3    H170064   4.791   4.427  11.766 -1.4288 -0.1613  0.4548
16191TIP3    H270065   4.716   4.367  11.648  2.3122  0.1761 -2.1799
16192TIP3   OH270066   5.439   6.114   5.632  0.8459  0.4094 -0.4229
16192TIP3    H170067   5.400   6.160   5.558 -3.6299 -0.6031  1.1327
16192TIP3    H270068   5.471   6.183   5.689 -0.4502  1.3976 -0.8716
16193TIP3   OH270069   4.135   5.614  14.005  0.0819  0.3963  0.0804
16193TIP3    H170070   4.101   5.604  13.916  2.5313  0.3224 -0.8909
16193TIP3    H270071   4.062   5.589  14.062 -0.1868 -3.8566 -1.9617
16194TIP3   OH270072   0.685   2.945   0.698  0.2183 -0.3039 -0.1261
16194TIP3    H170073   0.707   3.002   0.625 -1.1938  0.2864 -0.1162
16194TIP3    H270074   0.764   2.942   0.751  0.5703  1.0164 -0.5484
16195TIP3   OH270075   2.945   6.434  12.055  0.7216  0.1258  0.1080
16195TIP3    H170076   2.927   6.527  12.039 -1.4732  0.2738  2.9727
16195TIP3    H270077   2.865   6.389  12.028  0.7910 -0.6230  1.1041
16196TIP3   OH270078   6.042   0.415  10.767  0.1468  0.3504 -0.3625
16196TIP3    H170079   6.000   0.501  10.774 -1.0705 -0.1107 -1.6540
16196TIP3    H270080   6.066   0.393  10.857 -0.7454  1.4523  0.1662
16197TIP3   OH270081   3.286   3.272  11.018 -0.1620  0.2911  0.1130
16197TIP3    H170082   3.226   3.340  10.988 -0.6326 -0.3020 -0.2902
16197TIP3    H270083   3.340   3.251  10.941 -0.0308  0.1950  0.2299
16198TIP3   OH270084   6.267   0.602  12.494  0.3792 -0.2516  0.0576
16198TIP3    H170085   6.215   0.625  12.417  0.3969  0.6856  0.3191
16198TIP3    H270086   6.236   0.515  12.519 -0.3153 -0.1476 -0.4298
16199TIP3   OH270087   2.795   4.430  15.697 -0.5624  0.0522  0.0831
16199TIP3    H170088   2.715   4.445  15.748 -0.5882 -2.7791  0.9435
16199TIP3    H270089   2.858   4.397  15.761  0.9419  1.1052 -0.8189
16200TIP3   OH270090   2.511   4.895   5.097  0.3314 -0.2261  0.4388
16200TIP3    H170091   2.469   4.961   5.152  0.8793  0.8907 -0.4662
16200TIP3    H270092   2.438   4.844   5.062 -0.0302 -0.8304  2.0212
16201TIP3   OH270093   2.835   6.152  12.849 -0.3904 -0.1833 -0.1812
16201TIP3    H170094   2.761   6.105  12.887  0.3638 -2.0356 -0.9110
16201TIP3    H270095   2.864   6.096  12.777  0.8415  1.1979 -0.7807
16202TIP3   OH270096   0.753   0.472   3.302 -0.3006  0.4521 -0.0159
16202TIP3    H170097   0.755   0.377   3.315  4.1322  0.1797 -1.7200
16202TIP3    H270098   0.764   0.483   3.207  0.5723  2.6697  0.3220
16203TIP3   OH270099   5.674   1.991   0.484 -0.2224 -0.1611  0.0124
16203TIP3    H170100   5.757   1.947   0.466  0.1895  0.1854  1.0100
16203TIP3    H270101   5.698   2.082   0.501 -0.9224  0.1598 -0.6795
16204TIP3   OH270102   0.529   3.996   4.449 -0.2630  0.2066  0.1071
16204TIP3    H170103   0.568   4.009   4.536 -0.7070  0.7233  0.2320
16204TIP3    H270104   0.545   3.904   4.430  2.2453  0.7106 -0.4481
16205TIP3   OH270105   5.211   6.624   3.154 -0.5508  0.4451  0.0656
16205TIP3    H170106   5.233   6.713   3.127  1.0197 -0.1600 -0.7439
16205TIP3    H270107   5.296   6.579   3.157 -1.6045 -1.7982 -2.3275
16206TIP3   OH270108   2.754   5.341  15.235 -0.2442 -0.0421 -0.5447
16206TIP3    H170109   2.704   5.318  15.313  0.4821 -1.2449 -0.4225
16206TIP3    H270110   2.839   5.298  15.247  0.3179  0.7921 -1.4110
16207TIP3   OH270111   0.320   4.063   3.235 -0.2776 -0.0866 -0.6726
16207TIP3    H170112   0.400   4.060   3.183 -1.1070  0.7583 -2.0446
16207TIP3    H270113   0.344   4.111   3.314  0.4321  0.6754 -1.3416
16208TIP3   OH270114   0.694   5.439  14.794  0.3209 -0.1143  0.1616
16208TIP3    H170115   0.678   5.345  14.782  0.7771 -0.1218 -0.4018
16208TIP3    H270116   0.788   5.445  14.810  0.3241  0.2675 -0.0146
16209TIP3   OH270117   0.985   2.462   0.722 -0.7629 -0.3154  0.5565
16209TIP3    H170118   0.945   2.518   0.788 -1.8985  1.5637 -1.6189
16209TIP3    H270119   1.002   2.521   0.648  0.3214 -2.3560 -0.8891
16210TIP3   OH270120   4.403   1.696   3.080  0.3312 -0.3350 -0.1676
16210TIP3    H170121   4.485   1.650   3.100  0.8572  0.4800 -0.3848
16210TIP3    H270122   4.353   1.634   3.027  1.9006  0.0733 -2.1956
16211TIP3   OH270123   4.936   5.795  16.846 -0.1448  0.0719 -0.2389
16211TIP3    H170124   5.003   5.816  16.781  0.6155 -1.3501  0.0430
16211TIP3    H270125   4.855   5.827  16.808  0.3437 -0.4389 -1.7534
16212TIP3   OH270126   5.031   2.343   1.387 -0.5055  0.0763  0.0544
16212TIP3    H170127   4.967   2.343   1.315 -1.4921  0.2465  0.9228
16212TIP3    H270128   4.978   2.337   1.466  0.3885  2.9786  0.9412
16213TIP3   OH270129   6.573   5.474  15.459  0.5242 -0.0731  0.0448
16213TIP3    H170130   6.488   5.475  15.503  0.5627 -1.6448  0.1773
16213TIP3    H270131   6.583   5.563  15.426 -1.0454  0.2113  0.2619
16214TIP3   OH270132   0.951   4.028   5.232 -0.2436 -0.8014  0.0302
16214TIP3    H170133   0.868   4.050   5.190 -0.3682  0.3305  0.8240
16214TIP3    H270134   1.010   4.008   5.160 -0.8406 -0.2656 -0.6125
16215TIP3   OH270135   5.163   1.933  12.943  0.1091  0.0621  0.5013
16215TIP3    H170136   5.174   2.026  12.925  0.1488 -0.1540 -0.6171
16215TIP3    H270137   5.078   1.926  12.985 -0.2681  0.5008 -0.1913
16216TIP3   OH270138   2.779   6.039   0.094 -0.5612  0.2328 -0.5254
16216TIP3    H170139   2.727   6.035   0.013 -0.3551  2.0575 -0.7812
16216TIP3    H270140   2.715   6.032   0.164 -0.7801 -1.0396 -0.8531
16217TIP3   OH270141   1.458   0.862  14.073  0.1767  0.4454  0.2858
16217TIP3    H170142   1.468   0.790  14.011 -3.3430 -0.6143  0.8408
16217TIP3    H270143   1.516   0.930  14.040  1.2793 -1.5079 -1.9734
16218TIP3   OH270144   2.409   4.105   1.919 -0.1465 -0.2690 -0.1036
16218TIP3    H170145   2.469   4.077   1.988  1.8000 -1.1001 -2.0485
16218TIP3    H270146   2.459   4.169   1.869 -1.3213 -0.0831 -1.0494
16219TIP3   OH270147   3.914   5.006  16.289 -0.1618 -0.8299 -0.1358
16219TIP3    H170148   3.876   4.941  16.232  1.2126 -0.9911 -0.8936
16219TIP3    H270149   3.973   5.056  16.233  0.0470 -0.0056  0.8006
16220TIP3   OH270150   2.385   5.692  16.197  0.0387 -0.6796 -0.1276
16220TIP3    H170151   2.425   5.606  16.204 -1.5142 -1.2814  1.9405
16220TIP3    H270152   2.348   5.709  16.284 -1.5453  1.1258 -1.0978
16221TIP3   OH270153   0.455   6.653  15.153  0.3484  0.0063  0.0025
16221TIP3    H170154   0.392   6.717  15.188  1.3287  1.0336 -0.0802
16221TIP3    H270155   0.403   6.575  15.137 -0.7943  0.6439  0.5234
16222TIP3   OH270156   2.279   3.708  16.175 -0.3462  0.1723  0.2889
16222TIP3    H170157   2.362   3.746  16.146  0.0453 -1.0186 -0.1766
16222TIP3    H270158   2.243   3.772  16.236  1.4190  0.2248  1.3102
16223TIP3   OH270159   2.449   6.737   0.250 -0.1080  0.1962 -0.3437
16223TIP3    H170160   2.469   6.643   0.254 -1.0054 -0.0418 -1.2798
16223TIP3    H270161   2.381   6.750   0.316  0.3359  0.2844  0.1048
16224TIP3   OH270162   1.819   6.035   1.477  0.2605 -0.1524 -0.3893
16224TIP3    H170163   1.858   6.122   1.484 -1.1012  0.4124  0.4985
16224TIP3    H270164   1.813   6.019   1.383 -2.0611  1.9362 -0.6512
16225TIP3   OH270165   5.412   0.948   4.904  0.3087  0.2410 -0.0316
16225TIP3    H170166   5.490   0.991   4.871  0.6772 -0.3449  0.0699
16225TIP3    H270167   5.434   0.924   4.994  0.0290  0.0390 -0.0157
16226TIP3   OH270168   6.206   0.311   1.471  0.0765 -0.5470  0.1481
16226TIP3    H170169   6.123   0.317   1.424  0.6075 -0.0676 -0.7520
16226TIP3    H270170   6.215   0.218   1.492 -1.3325 -0.4103  1.4651
16227TIP3   OH270171   3.126   0.663  17.118 -0.1021  0.3393 -0.0364
16227TIP3    H170172   3.044   0.613  17.117 -0.5782  1.0553  1.3739
16227TIP3    H270173   3.177   0.627  17.046 -1.3906 -0.5815 -0.5114
16228TIP3   OH270174   2.911   1.923  13.158 -0.1787 -0.3750  0.8516
16228TIP3    H170175   2.874   2.011  13.151 -0.4237 -0.5413  0.0129
16228TIP3    H270176   2.943   1.918  13.248 -0.3741  0.4885  0.9758
16229TIP3   OH270177   4.343   1.139  14.395  0.4396 -0.2870  0.1674
16229TIP3    H170178   4.325   1.046  14.379  2.5248 -0.9196  1.2691
16229TIP3    H270179   4.323   1.152  14.487  1.3596  0.0283  0.3290
16230TIP3   OH270180   5.342   1.170  14.887 -0.3438 -0.1222  0.3421
16230TIP3    H170181   5.286   1.196  14.813  0.4275 -0.5040 -0.3845
16230TIP3    H270182   5.419   1.226  14.879 -0.3761  0.0295  1.0282
16231TIP3   OH270183   6.050   1.311  13.256 -0.7422 -0.3193  0.4683
16231TIP3    H170184   6.002   1.362  13.191 -1.9252 -0.7442  0.9994
16231TIP3    H270185   6.051   1.365  13.334  0.1975 -0.0464  0.2769
16232TIP3   OH270186   4.260   3.452  16.196  0.0217 -0.0707  0.2242
16232TIP3    H170187   4.181   3.454  16.251  0.1267 -1.1695  0.4176
16232TIP3    H270188   4.227   3.450  16.107 -0.1538  1.2577  0.2455
16233TIP3   OH270189   5.786   5.152  13.069 -0.1667 -0.1587 -0.0564
16233TIP3    H170190   5.691   5.145  13.070 -0.1558 -0.3518 -0.3289
16233TIP3    H270191   5.804   5.245  13.052 -0.3109  0.4006  2.5916
16234TIP3   OH270192   3.815   2.993   1.457 -0.3426 -0.3749  0.0418
16234TIP3    H170193   3.724   3.003   1.427 -0.3477 -1.4154 -0.3065
16234TIP3    H270194   3.838   2.903   1.434  0.3487 -0.5332  1.3026
16235TIP3   OH270195   4.390   5.325  14.295 -0.7661  0.3772 -0.5488
16235TIP3    H170196   4.479   5.347  14.324 -0.5067 -2.3374  0.7941
16235TIP3    H270197   4.400   5.245  14.244 -2.6190 -0.7623  0.8368
16236TIP3   OH270198   6.046   0.175  16.443 -0.1448  0.5346  0.0582
16236TIP3    H170199   6.071   0.208  16.356 -0.5620  2.0362  0.5017
16236TIP3    H270200   6.097   0.227  16.504  0.0113 -0.4019  0.7345
16237TIP3   OH270201   2.456   2.839  11.539  0.0666  0.3213  0.6080
16237TIP3    H170202   2.449   2.924  11.582  1.1942  0.2943  0.8814
16237TIP3    H270203   2.470   2.860  11.447  1.7811  0.4769  0.8882
16238TIP3   OH270204   3.828   5.984  16.232 -0.4939 -0.4450 -0.1541
16238TIP3    H170205   3.747   5.990  16.181 -1.0837  2.6052  0.9927
16238TIP3    H270206   3.890   6.039  16.184 -0.0261 -0.3184  0.5890
16239TIP3   OH270207   6.395   1.781   4.279 -0.1272 -0.6798 -0.0130
16239TIP3    H170208   6.455   1.830   4.334 -2.6323  0.2769  1.9212
16239TIP3    H270209   6.340   1.847   4.238 -1.8556 -1.7200  0.6044
16240TIP3   OH270210   5.487   3.404   1.915  0.3371  0.0185  0.1190
16240TIP3    H170211   5.573   3.425   1.951  0.3733  1.2418 -0.6364
16240TIP3    H270212   5.426   3.426   1.985  0.6760 -1.7235  1.0000
16241TIP3   OH270213   2.700   1.439  14.462 -0.0767 -0.4600 -0.4786
16241TIP3    H170214   2.724   1.364  14.407 -0.6993 -0.2545 -1.0454
16241TIP3    H270215   2.702   1.406  14.551  1.3758 -0.6883 -0.5917
16242TIP3   OH270216   6.482   3.164  13.315 -0.3209 -0.1082  0.2022
16242TIP3    H170217   6.576   3.182  13.311  0.2501 -2.7200  1.2001
16242TIP3    H270218   6.450   3.187  13.228  1.2258  0.7617 -0.1715
16243TIP3   OH270219   0.511   3.479  14.715 -0.3663  0.0509  0.1217
16243TIP3    H170220   0.576   3.434  14.768 -0.0426  0.4249  0.0453
16243TIP3    H270221   0.545   3.474  14.625  0.7956  2.3667  0.3878
16244TIP3   OH270222   5.730   6.253   0.032  0.3070  0.1651  0.5223
16244TIP3    H170223   5.694   6.165   0.043 -1.2021  0.4709 -1.7169
16244TIP3    H270224   5.823   6.244   0.054  0.4331 -2.2382 -0.8091
16245TIP3   OH270225   0.120   5.644  11.157  0.1443  0.5643  0.4255
16245TIP3    H170226   0.116   5.711  11.088  0.7418 -0.6944 -0.8701
16245TIP3    H270227   0.052   5.581  11.133  1.2584 -0.5824  0.2201
16246TIP3   OH270228   5.713   5.366  11.498  0.0341  0.4675 -0.1793
16246TIP3    H170229   5.633   5.360  11.552  1.1930 -0.7574  1.4484
16246TIP3    H270230   5.729   5.276  11.470 -0.0073  0.9542 -1.8047
16247TIP3   OH270231   3.404   5.568  13.271  0.4956  0.0946 -0.3787
16247TIP3    H170232   3.405   5.509  13.347 -0.4106 -0.7384 -0.9974
16247TIP3    H270233   3.381   5.653  13.308  3.6082  0.4918  0.7812
16248TIP3   OH270234   4.326   1.752   0.740  0.1392  0.0302  0.5113
16248TIP3    H170235   4.320   1.761   0.645  1.0378  0.9226  0.5241
16248TIP3    H270236   4.335   1.842   0.772 -0.9695 -0.1981  1.5104
16249TIP3   OH270237   1.444   5.017  13.946 -0.0910  0.2465 -0.0196
16249TIP3    H170238   1.524   5.070  13.949  0.0612  0.0049  0.1312
16249TIP3    H270239   1.379   5.075  13.905 -0.0124  0.6713  0.4450
16250TIP3   OH270240   2.801   0.665  14.579  0.3942 -0.4839  0.0503
16250TIP3    H170241   2.772   0.596  14.519 -0.4035  0.1009 -0.2508
16250TIP3    H270242   2.882   0.697  14.541 -0.1014 -0.1270 -0.7110
16251TIP3   OH270243   5.144   2.559  15.150  0.6814 -0.0910  0.5357
16251TIP3    H170244   5.118   2.524  15.065  1.4447 -1.2053  0.7423
16251TIP3    H270245   5.236   2.533  15.159  0.2799 -1.0600  2.2250
16252TIP3   OH270246   4.980   0.558   1.511 -0.4621 -0.1227 -0.4578
16252TIP3    H170247   4.995   0.512   1.429 -0.7563 -1.9523  0.4868
16252TIP3    H270248   5.043   0.519   1.572 -0.4553  1.0080  0.2692
16253TIP3   OH270249   6.111   0.359  11.682  0.3865 -0.1154 -0.2416
16253TIP3    H170250   6.089   0.451  11.670  0.2445 -0.0965  0.1714
16253TIP3    H270251   6.045   0.311  11.630  1.4691  0.0754 -1.8265
16254TIP3   OH270252   0.453   3.083   2.235  0.5805 -0.4539  0.1983
16254TIP3    H170253   0.416   3.170   2.247 -1.8296 -1.2333 -1.2234
16254TIP3    H270254   0.463   3.048   2.323  1.1837  1.0885  0.7530
16255TIP3   OH270255   5.756   4.188  14.423  0.3293 -0.3126 -0.6074
16255TIP3    H170256   5.682   4.173  14.482  0.5295  2.3763  0.3943
16255TIP3    H270257   5.716   4.201  14.337 -0.0171 -3.4779 -0.9801
16256TIP3   OH270258   5.754   2.410  12.026 -0.0321  0.3651 -0.0715
16256TIP3    H170259   5.759   2.491  12.077 -0.6414 -1.4246  2.9342
16256TIP3    H270260   5.816   2.351  12.069 -0.8953 -1.3369 -1.1286
16257TIP3   OH270261   4.487   5.536   2.984  0.0710 -0.1084  0.4639
16257TIP3    H170262   4.397   5.564   2.970  0.3271  0.9601  0.8511
16257TIP3    H270263   4.539   5.594   2.929  0.4552 -1.3879 -0.5386
16258TIP3   OH270264   3.534   4.410   0.558  0.4595 -0.5432  0.7735
16258TIP3    H170265   3.553   4.335   0.614 -0.1437 -0.2756  1.3459
16258TIP3    H270266   3.550   4.487   0.613  1.5356 -0.2222  0.0497
16259TIP3   OH270267   0.184   2.473  14.645 -0.2322 -0.0414  0.9768
16259TIP3    H170268   0.248   2.423  14.593  0.0341  1.3487 -0.0489
16259TIP3    H270269   0.158   2.545  14.588 -2.1663 -0.1752  1.6818
16260TIP3   OH270270   2.434   1.519  15.763  0.2673  0.1953  0.2340
16260TIP3    H170271   2.412   1.428  15.784 -1.4169  0.5277 -0.0517
16260TIP3    H270272   2.412   1.528  15.670  0.3544  0.9208  0.2820
16261TIP3   OH270273   0.697   0.125  16.072  0.1754 -0.4657  0.3408
16261TIP3    H170274   0.644   0.202  16.094  3.2427  1.8668 -0.1153
16261TIP3    H270275   0.741   0.103  16.154  2.1779  0.6029 -0.4373
16262TIP3   OH270276   6.711   1.124  12.315  0.4613 -0.2568  0.7600
16262TIP3    H170277   6.800   1.149  12.338  0.5343 -1.5595  1.9363
16262TIP3    H270278   6.719   1.034  12.282 -0.4855 -0.6028  1.4493
16263TIP3   OH270279   0.265   6.463  16.874 -0.1130  0.0541 -0.3635
16263TIP3    H170280   0.225   6.387  16.916 -0.3061 -1.0620 -2.4793
16263TIP3    H270281   0.191   6.522  16.855 -0.5057 -1.0196 -2.2797
16264TIP3   OH270282   4.903   1.473   3.723  0.4403 -0.2880 -0.1675
16264TIP3    H170283   4.942   1.388   3.705 -0.7618 -1.1438  1.1779
16264TIP3    H270284   4.843   1.487   3.649 -0.7126 -1.4534  0.5358
16265TIP3   OH270285   4.338   1.803  12.775  0.0172 -0.5251 -0.6404
16265TIP3    H170286   4.333   1.843  12.688  2.5205 -0.9123 -1.0208
16265TIP3    H270287   4.254   1.758  12.785 -0.4468 -0.2175 -2.7396
16266TIP3   OH270288   2.613   4.591   4.402 -0.0702 -0.1064 -0.1002
16266TIP3    H170289   2.682   4.530   4.375  0.4644  0.2145  0.5344
16266TIP3    H270290   2.597   4.570   4.494  0.7757  1.3253  0.3877
16267TIP3   OH270291   1.623   6.197   1.275 -0.6190  0.3444 -0.4286
16267TIP3    H170292   1.579   6.219   1.357 -2.4259 -1.5807 -0.8392
16267TIP3    H270293   1.716   6.211   1.292 -1.0243  0.3835  1.8076
16268TIP3   OH270294   2.540   0.323  15.806  0.4281 -0.5863 -0.5451
16268TIP3    H170295   2.444   0.321  15.797  0.3059  1.3438  0.0204
16268TIP3    H270296   2.572   0.340  15.717  0.2678 -1.3874 -0.7626
16269TIP3   OH270297   2.815   5.865  16.552  0.2767  0.5262  0.4159
16269TIP3    H170298   2.910   5.869  16.561  0.6951 -1.9761 -2.0945
16269TIP3    H270299   2.789   5.796  16.613  0.4005 -0.5091 -0.6796
16270TIP3   OH270300   2.413   0.737   3.435  0.4341  0.3037 -0.4779
16270TIP3    H170301   2.352   0.692   3.494  0.9888 -0.2080 -0.2882
16270TIP3    H270302   2.401   0.830   3.455 -1.4388  0.3152 -1.5768
16271TIP3   OH270303   5.370   0.468  12.176 -0.2295 -0.0757  0.0519
16271TIP3    H170304   5.454   0.458  12.221  0.4492 -0.2847 -1.2360
16271TIP3    H270305   5.381   0.423  12.093 -2.1700 -1.5049  0.5296
16272TIP3   OH270306   3.544   0.862  15.128 -0.5540 -0.5450 -0.4166
16272TIP3    H170307   3.503   0.938  15.171  0.3419  0.1187 -0.7293
16272TIP3    H270308   3.614   0.835  15.187 -1.1891 -1.4503 -0.0636
16273TIP3   OH270309   3.345   4.772  11.079  1.5145  0.0404  0.1701
16273TIP3    H170310   3.338   4.695  11.022 -0.0803  0.4462 -0.2185
16273TIP3    H270311   3.348   4.736  11.168 -1.1893 -0.4373  0.1176
16274TIP3   OH270312   4.799   3.968  15.346 -0.2140  0.1360 -0.5997
16274TIP3    H170313   4.707   3.944  15.332 -0.5521  0.1059  1.3759
16274TIP3    H270314   4.794   4.040  15.410  1.1213  0.4361 -0.8366
16275TIP3   OH270315   5.989   5.056  11.417 -0.1357  0.2823  0.5314
16275TIP3    H170316   6.015   5.008  11.496 -0.3867 -1.5127 -0.4432
16275TIP3    H270317   6.033   5.010  11.345  1.0261  2.6056 -0.2764
16276TIP3   OH270318   4.930   1.065  12.802  0.4363 -0.6865  0.3530
16276TIP3    H170319   4.893   1.132  12.859  0.6614  0.5263 -0.9110
16276TIP3    H270320   4.999   1.024  12.854  1.2394  1.0058  0.6453
16277TIP3   OH270321   6.468   5.077  10.895  0.4572  0.4320  0.1490
16277TIP3    H170322   6.447   5.143  10.829 -0.0877  0.6489  0.5415
16277TIP3    H270323   6.552   5.040  10.865  0.4871  0.9068 -0.3686
16278TIP3   OH270324   2.186   0.053   1.595  0.1410 -0.1872 -0.2175
16278TIP3    H170325   2.277   0.084   1.594  1.7794 -4.6839 -1.5102
16278TIP3    H270326   2.136   0.124   1.553  3.6797  0.6936 -3.2195
16279TIP3   OH270327   4.604   3.233  13.803 -0.3446 -0.8714  0.6507
16279TIP3    H170328   4.553   3.217  13.723  1.7190  0.2369 -0.9515
16279TIP3    H270329   4.542   3.219  13.874 -3.0414  0.9238 -1.2268
16280TIP3   OH270330   2.240   4.996  14.571 -1.2133  0.0093 -0.2145
16280TIP3    H170331   2.300   5.003  14.497 -0.6683 -0.0598  0.2194
16280TIP3    H270332   2.251   4.906  14.602 -0.9589  0.2364  0.3583
16281TIP3   OH270333   6.232   6.241   0.199 -0.5813  0.5020  0.1466
16281TIP3    H170334   6.283   6.286   0.132  1.4015  0.3350  1.5185
16281TIP3    H270335   6.213   6.308   0.264 -0.4559  0.1119  0.5897
16282TIP3   OH270336   3.505   3.569  15.785  0.0758  0.9095  0.2400
16282TIP3    H170337   3.548   3.501  15.837  2.0638  0.9466 -1.2807
16282TIP3    H270338   3.503   3.646  15.842  1.4226  0.7053  0.5807
16283TIP3   OH270339   1.387   2.012   6.374  0.3251 -0.2205  0.3735
16283TIP3    H170340   1.323   1.954   6.415  0.4893  0.2844  1.3677
16283TIP3    H270341   1.462   1.956   6.355 -0.8054 -1.0485 -1.7780
16284TIP3   OH270342   0.115   1.529  15.603  0.0536  0.0049 -0.0072
16284TIP3    H170343   0.204   1.555  15.578  0.4947 -1.4457  0.0087
16284TIP3    H270344   0.067   1.523  15.521  0.4110 -0.7984 -0.1586
16285TIP3   OH270345   1.269   2.113  12.101  0.3203 -0.4796  0.0783
16285TIP3    H170346   1.350   2.160  12.079  1.2284 -1.3256  1.5913
16285TIP3    H270347   1.274   2.032  12.051  2.2356 -2.2595  3.0549
16286TIP3   OH270348   3.793   4.042   5.533  0.4952  0.1098 -0.8426
16286TIP3    H170349   3.796   3.983   5.458  0.5076 -1.8732  0.6519
16286TIP3    H270350   3.885   4.065   5.549  0.8766 -2.2304  0.6127
16287TIP3   OH270351   4.885   1.052  13.558 -0.2008 -0.1855  0.4325
16287TIP3    H170352   4.825   1.118  13.524  1.1709  1.6453  1.4517
16287TIP3    H270353   4.903   0.995  13.483  0.3494  1.9334 -1.1011
16288TIP3   OH270354   6.193   1.325   1.310  0.1218  1.0786 -0.3321
16288TIP3    H170355   6.154   1.273   1.381 -0.2849  2.9653  0.8523
16288TIP3    H270356   6.260   1.267   1.273 -0.5315 -0.4192  0.7389
16289TIP3   OH270357   4.969   5.504  12.295 -0.0743 -0.9065 -0.3657
16289TIP3    H170358   4.950   5.438  12.229 -0.9440 -1.2267  0.1930
16289TIP3    H270359   4.920   5.582  12.267  0.6860 -0.6022 -0.8490
16290TIP3   OH270360   3.618   3.222   0.466  0.6424 -0.0515  0.5127
16290TIP3    H170361   3.536   3.181   0.438  0.8712 -0.4470  0.4131
16290TIP3    H270362   3.672   3.149   0.497  1.1897  0.1288  0.0029
16291TIP3   OH270363   4.721   1.006   4.154 -0.2867  0.4921 -0.0097
16291TIP3    H170364   4.802   1.055   4.164  0.9408 -1.4582 -0.2190
16291TIP3    H270365   4.745   0.915   4.172 -2.0388 -0.3723 -1.8496
16292TIP3   OH270366   3.874   5.450  11.266 -0.0972  0.4986  0.0301
16292TIP3    H170367   3.906   5.390  11.199 -0.0519 -0.6602  1.0639
16292TIP3    H270368   3.891   5.538  11.231  0.5909 -0.0942 -1.1388
16293TIP3   OH270369   1.901   4.610   1.608  0.4628  0.0492  0.2285
16293TIP3    H170370   1.814   4.606   1.647  0.3391  0.6441  0.0286
16293TIP3    H270371   1.951   4.541   1.651  0.2580  0.5330  1.2433
16294TIP3   OH270372   2.226   2.683  11.537 -0.0300  0.5188  0.2782
16294TIP3    H170373   2.230   2.633  11.456 -1.0438  3.4433 -1.6735
16294TIP3    H270374   2.315   2.714  11.551 -0.1529  1.2947 -0.5985
16295TIP3   OH270375   2.224   6.428   2.699 -0.0785  0.1390  0.9386
16295TIP3    H170376   2.240   6.498   2.762  0.2599  0.2488  0.7366
16295TIP3    H270377   2.227   6.472   2.613 -0.2008 -0.0644  0.8305
16296TIP3   OH270378   3.967   0.044  11.274 -0.1534 -0.0886  0.0402
16296TIP3    H170379   3.990  -0.048  11.286 -1.8415 -0.4878  0.4149
16296TIP3    H270380   3.890   0.057  11.329 -0.1435  1.4591 -0.2807
16297TIP3   OH270381   0.110   4.641  12.005 -0.5325 -0.6880 -0.1164
16297TIP3    H170382   0.176   4.616  11.940 -0.0410 -1.5848  0.7077
16297TIP3    H270383   0.152   4.621  12.089 -1.4821 -0.3212  0.4461
16298TIP3   OH270384   2.422   3.462  16.088 -0.2195  0.3242  0.3720
16298TIP3    H170385   2.478   3.479  16.165 -2.0148 -0.1217  1.7993
16298TIP3    H270386   2.356   3.531  16.091 -1.6305 -1.0070  0.5175
16299TIP3   OH270387   2.818   4.734  11.843 -0.2685 -0.2576  0.2256
16299TIP3    H170388   2.815   4.693  11.930  1.3174  1.4757  1.1450
16299TIP3    H270389   2.881   4.805  11.853 -0.1001 -0.0063 -2.3587
16300TIP3   OH270390   3.649   4.494   5.726 -0.3854  0.2384 -0.5514
16300TIP3    H170391   3.639   4.411   5.773 -0.2361  0.7236  0.3365
16300TIP3    H270392   3.613   4.476   5.639 -0.7427 -0.6371 -0.2290
16301TIP3   OH270393   3.614   5.145  12.605  0.0787 -0.0211 -0.2533
16301TIP3    H170394   3.564   5.065  12.587  0.1884 -0.4328  1.1498
16301TIP3    H270395   3.549   5.208  12.635  0.1499  0.0339 -0.2142
16302TIP3   OH270396   4.624   5.887  10.352 -0.2965 -0.2732  0.0064
16302TIP3    H170397   4.534   5.902  10.381 -0.6684 -1.6802 -0.3529
16302TIP3    H270398   4.630   5.792  10.343  1.9906 -0.4033  2.4140
16303TIP3   OH270399   3.949   4.907  15.810 -0.2126  0.1825  0.2798
16303TIP3    H170400   3.882   4.960  15.854 -0.6452 -0.8947  0.9447
16303TIP3    H270401   4.007   4.971  15.769 -0.5326  1.1813  1.3531
16304TIP3   OH270402   4.880   2.887   6.342  0.5680  0.6505 -0.2963
16304TIP3    H170403   4.832   2.950   6.395  1.0012  0.8754 -0.1704
16304TIP3    H270404   4.821   2.812   6.335 -0.4566  1.5442 -1.4693
16305TIP3   OH270405   6.271   6.706  13.748  0.1141  0.2977 -0.3364
16305TIP3    H170406   6.320   6.739  13.673  0.7754  0.9036  0.3602
16305TIP3    H270407   6.191   6.760  13.750 -0.2212 -0.1662 -0.9969
16306TIP3   OH270408   4.695   3.449  12.323  0.0027 -0.0504 -0.2802
16306TIP3    H170409   4.729   3.510  12.258  0.3740 -1.5311 -1.5065
16306TIP3    H270410   4.600   3.456  12.316  0.0398 -0.7599 -1.5232
16307TIP3   OH270411   4.075   1.952   1.212 -0.8465  0.1332 -0.6503
16307TIP3    H170412   3.998   1.958   1.269 -0.5517  0.0196 -0.2387
16307TIP3    H270413   4.149   1.968   1.271 -0.4445 -1.3141 -0.7493
16308TIP3   OH270414   1.572   4.453   2.244  0.2070  0.4886 -0.2750
16308TIP3    H170415   1.589   4.471   2.151  0.7372 -0.5359 -0.3813
16308TIP3    H270416   1.635   4.508   2.291  0.5647  0.3141 -0.5490
16309TIP3   OH270417   0.739   0.668  16.566  0.5906  0.2104  0.0458
16309TIP3    H170418   0.779   0.698  16.648  1.0204 -0.5473  0.1219
16309TIP3    H270419   0.813   0.655  16.507  0.3431  0.0450 -0.2267
16310TIP3   OH270420   1.134   3.006  13.058 -0.3937 -0.1867  0.0571
16310TIP3    H170421   1.092   2.971  12.980  0.0358 -0.4853 -0.0399
16310TIP3    H270422   1.064   3.009  13.124 -0.6216 -0.4505 -0.1766
16311TIP3   OH270423   0.980   2.870   6.497  0.0399 -0.1365 -0.1962
16311TIP3    H170424   0.992   2.940   6.561 -1.0370 -0.1890  0.0700
16311TIP3    H270425   1.057   2.876   6.440  0.4571  0.6079  0.4389
16312TIP3   OH270426   3.582   2.601   6.337 -0.5595  0.1656 -0.1099
16312TIP3    H170427   3.604   2.672   6.397  0.1843 -0.6079  0.5383
16312TIP3    H270428   3.492   2.577   6.360 -0.3696  0.0507  0.5367
16313TIP3   OH270429   1.301   2.063  15.675 -0.1410 -0.4555  0.5106
16313TIP3    H170430   1.310   2.128  15.745 -1.7073 -0.8819  1.1235
16313TIP3    H270431   1.335   2.107  15.597  2.3051 -0.2256  1.6694
16314TIP3   OH270432   3.286   5.978  14.077  0.6126 -0.5254 -0.3773
16314TIP3    H170433   3.193   6.000  14.077  0.1161 -2.5734  0.4754
16314TIP3    H270434   3.324   6.035  14.144 -0.4649 -1.3777  0.9959
16315TIP3   OH270435   0.503   2.546  12.516  0.9812  0.0836  0.3244
16315TIP3    H170436   0.420   2.574  12.556  1.2743  1.8630 -0.2640
16315TIP3    H270437   0.502   2.451  12.524  0.1129  0.2660  2.7309
16316TIP3   OH270438   2.812   5.211  14.981 -0.1984 -0.2859 -0.1882
16316TIP3    H170439   2.904   5.235  14.972 -0.6622  1.2124 -1.2353
16316TIP3    H270440   2.797   5.207  15.075  0.6953  0.4950 -0.0073
16317TIP3   OH270441   0.431   1.301  15.506 -0.2958  0.1344  0.0002
16317TIP3    H170442   0.361   1.236  15.515 -1.4641  1.4982  0.7743
16317TIP3    H270443   0.484   1.267  15.434 -1.2235 -1.3876 -0.0009
16318TIP3   OH270444   0.573   6.181   3.154  0.3230  0.0992  0.3466
16318TIP3    H170445   0.651   6.142   3.115  0.3700 -0.7269  1.2248
16318TIP3    H270446   0.544   6.246   3.091  2.7110  1.6333  0.7851
16319TIP3   OH270447   5.532   4.271   2.307 -0.0898 -0.0460 -0.7710
16319TIP3    H170448   5.536   4.338   2.376  1.2555 -0.1386 -0.7545
16319TIP3    H270449   5.566   4.192   2.349  0.8238 -0.0787 -1.5854
16320TIP3   OH270450   6.099   2.776  11.551  0.4426  0.4593 -0.0320
16320TIP3    H170451   6.124   2.766  11.643  0.4268  0.5612 -0.0177
16320TIP3    H270452   6.060   2.863  11.547 -0.3718  0.1084  0.0551
16321TIP3   OH270453   6.604   0.354  13.311 -0.2359 -0.3952 -0.5029
16321TIP3    H170454   6.678   0.298  13.289 -0.5223 -0.6514 -0.8260
16321TIP3    H270455   6.558   0.367  13.228  0.4650  1.2655 -0.6494
16322TIP3   OH270456   2.263   1.570  12.938  0.1042 -0.0960  0.4432
16322TIP3    H170457   2.253   1.502  12.871 -0.9935 -0.4433  0.9550
16322TIP3    H270458   2.281   1.650  12.889  0.4733 -0.5697 -0.2073
16323TIP3   OH270459   1.488   3.603   4.351 -0.2218  0.5989  0.0576
16323TIP3    H170460   1.538   3.522   4.357  0.1063  0.9207  1.8011
16323TIP3    H270461   1.536   3.657   4.288  0.8003  0.3150  0.5888
16324TIP3   OH270462   5.517   4.597  12.837 -0.0855 -0.3178  0.1165
16324TIP3    H170463   5.532   4.516  12.789 -0.8578 -0.6908  0.4918
16324TIP3    H270464   5.567   4.588  12.918  1.5357  0.4779 -0.7866
16325TIP3   OH270465   4.441   3.784   3.965 -0.1784  0.1880 -0.1636
16325TIP3    H170466   4.362   3.772   4.018  0.7907 -0.5081  1.1406
16325TIP3    H270467   4.444   3.707   3.908 -0.6025  0.3736 -0.4426
16326TIP3   OH270468   0.132   0.821   5.079  0.4031  0.0613  0.2379
16326TIP3    H170469   0.120   0.863   4.994  0.5398  1.2647  0.8000
16326TIP3    H270470   0.143   0.894   5.140 -0.5673 -0.7771  1.4230
16327TIP3   OH270471   3.538   1.609   0.006 -0.3467  0.1934  0.5662
16327TIP3    H170472   3.534   1.694  -0.038 -1.5927 -0.0448  0.1986
16327TIP3    H270473   3.460   1.608   0.061  0.3072 -0.2226  1.4950
16328TIP3   OH270474   1.258   2.132  13.874  0.8446  0.2815 -0.3054
16328TIP3    H170475   1.169   2.097  13.872  0.4984  0.8880  2.7208
16328TIP3    H270476   1.257   2.202  13.809 -0.6711 -0.2011 -0.8313
16329TIP3   OH270477   3.301   6.101  13.553  0.5536 -0.1978 -0.3415
16329TIP3    H170478   3.272   6.088  13.643 -0.5962  0.1711 -0.6442
16329TIP3    H270479   3.382   6.151  13.560 -0.3526  1.1754  0.4238
16330TIP3   OH270480   3.067   4.964  14.682 -0.2953 -0.4918 -0.8909
16330TIP3    H170481   2.982   4.994  14.652 -0.9221 -0.1081  1.1650
16330TIP3    H270482   3.122   5.043  14.681 -0.3502 -0.4535 -0.8962
16331TIP3   OH270483   6.355   4.655  14.493  0.1636 -0.0343 -0.2875
16331TIP3    H170484   6.270   4.626  14.462  1.1640 -2.1833 -1.1188
16331TIP3    H270485   6.347   4.658  14.588 -0.2844 -2.1537 -0.2356
16332TIP3   OH270486   1.491   4.201   3.026 -0.1654  0.1286  0.3488
16332TIP3    H170487   1.552   4.272   3.007 -2.0094  1.7460  0.2893
16332TIP3    H270488   1.466   4.214   3.117  0.4719 -1.2505  0.7410
16333TIP3   OH270489   4.376   3.601  11.010 -0.8579 -0.1663  0.3771
16333TIP3    H170490   4.379   3.675  10.950 -3.0578  0.1465  0.6007
16333TIP3    H270491   4.371   3.524  10.953  0.3920 -0.0869  0.1525
16334TIP3   OH270492   6.004   6.479   3.161 -0.1818  0.3231 -0.1998
16334TIP3    H170493   5.918   6.449   3.131 -0.5260  0.6609  0.4486
16334TIP3    H270494   6.029   6.415   3.228  0.3353 -0.1034 -0.7851
16335TIP3   OH270495   2.038   1.236   2.856 -0.1266  0.1714  0.4020
16335TIP3    H170496   2.088   1.241   2.774 -0.4436 -0.3770  0.1719
16335TIP3    H270497   2.081   1.298   2.914  2.3873 -2.0819  1.0680
16336TIP3   OH270498   0.130   5.248  14.860 -0.2174 -0.3461 -0.2414
16336TIP3    H170499   0.204   5.299  14.826  0.4570 -0.3026  1.2760
16336TIP3    H270500   0.130   5.168  14.807  1.0950 -0.4794 -0.0569
16337TIP3   OH270501   2.757   1.674  15.158  0.1209  0.1833 -0.1659
16337TIP3    H170502   2.707   1.730  15.216  0.2257  0.5349 -0.4129
16337TIP3    H270503   2.740   1.708  15.070  0.5063  0.0866 -0.2831
16338TIP3   OH270504   6.052   3.731  17.221 -0.2141 -0.3732 -0.0226
16338TIP3    H170505   6.000   3.672  17.167  1.0020 -0.5224 -1.0531
16338TIP3    H270506   6.115   3.674  17.266  0.3988  0.0234 -0.3610
16339TIP3   OH270507   4.327   3.801   3.276 -0.3516  0.2825  0.6165
16339TIP3    H170508   4.298   3.720   3.319  0.7523 -0.6377 -0.3261
16339TIP3    H270509   4.420   3.786   3.259 -0.2940  1.5118 -0.1413
16340TIP3   OH270510   3.923   3.221  11.998  0.3020  0.8948 -0.1424
16340TIP3    H170511   3.942   3.315  12.007  0.3574  0.8160  0.6059
16340TIP3    H270512   3.856   3.217  11.929  0.2418  1.4903 -0.1280
16341TIP3   OH270513   2.378   1.217  12.893 -0.5477 -0.3064 -0.2665
16341TIP3    H170514   2.433   1.294  12.909 -1.6483  0.0683  1.9489
16341TIP3    H270515   2.367   1.215  12.798  1.2674  1.0146 -0.5359
16342TIP3   OH270516   0.860   3.936   5.664  0.7546  0.2535  0.7127
16342TIP3    H170517   0.920   3.917   5.592 -0.7893 -1.8508 -0.0974
16342TIP3    H270518   0.899   3.892   5.740  1.2508  0.5721  0.6401
16343TIP3   OH270519   1.105   3.926  13.518  0.1284  0.1118 -0.0603
16343TIP3    H170520   1.096   3.960  13.607  1.4362  1.1394 -0.3101
16343TIP3    H270521   1.191   3.957  13.489 -0.7841  0.7712 -2.1170
16344TIP3   OH270522   5.081   6.156   5.559 -0.0620  0.1033  0.0471
16344TIP3    H170523   5.133   6.081   5.587 -2.3391 -1.5997 -0.0745
16344TIP3    H270524   5.133   6.233   5.582  1.2931 -1.4657  2.3473
16345TIP3   OH270525   0.468   0.528  15.854  0.5573 -0.1617  0.0180
16345TIP3    H170526   0.538   0.520  15.788  1.0975 -0.4263  0.6149
16345TIP3    H270527   0.505   0.586  15.921  0.8956 -1.7409  1.2197
16346TIP3   OH270528   1.256   5.807  15.188  0.0361 -0.4486  0.1271
16346TIP3    H170529   1.175   5.772  15.151 -0.2359  0.2842  0.0429
16346TIP3    H270530   1.305   5.841  15.113 -1.9144  3.9830  0.7177
16347TIP3   OH270531   5.794   0.960  16.249 -0.2965 -0.3468 -0.1073
16347TIP3    H170532   5.783   1.044  16.204 -1.0561 -0.6987 -0.5904
16347TIP3    H270533   5.828   0.984  16.335 -4.4891  0.8074  1.3343
16348TIP3   OH270534   5.190   1.848   4.951 -0.5693  0.2568  0.4354
16348TIP3    H170535   5.096   1.828   4.948 -0.4636 -0.2809  0.6715
16348TIP3    H270536   5.208   1.889   4.866 -1.3212  1.7514  0.9639
16349TIP3   OH270537   1.324   2.374   2.903  0.9581 -0.4208  0.1737
16349TIP3    H170538   1.245   2.412   2.942  0.5925 -2.5558  1.6086
16349TIP3    H270539   1.392   2.387   2.970  0.9826 -1.6742  0.4019
16350TIP3   OH270540   5.466   4.157  12.459 -0.4418  0.7689 -0.1857
16350TIP3    H170541   5.432   4.224  12.400 -1.0068 -0.3112 -1.1084
16350TIP3    H270542   5.388   4.114  12.494 -0.0751 -0.2211 -0.5673
16351TIP3   OH270543   2.196   0.617   0.701 -0.0293 -0.0549  0.2175
16351TIP3    H170544   2.215   0.524   0.704  0.3154  0.0483  1.7046
16351TIP3    H270545   2.124   0.625   0.638 -0.3042 -1.3512  0.3575
16352TIP3   OH270546   3.498   6.322  12.404  0.2901  0.4164  0.5115
16352TIP3    H170547   3.499   6.288  12.494  0.1859  1.0198  0.7438
16352TIP3    H270548   3.554   6.262  12.355 -1.4839 -1.2722  0.4906
16353TIP3   OH270549   3.455   4.571  15.941 -0.0209 -0.0806 -0.2685
16353TIP3    H170550   3.495   4.509  15.881 -1.2588 -0.9033 -0.2749
16353TIP3    H270551   3.501   4.559  16.023  0.2405 -0.4893 -0.4749
16354TIP3   OH270552   1.836   5.459   5.459 -0.0312 -1.0090 -0.2026
16354TIP3    H170553   1.797   5.530   5.407 -0.6058 -0.9109  0.3589
16354TIP3    H270554   1.860   5.501   5.541  0.1641 -1.3389 -0.0932
16355TIP3   OH270555   2.586   4.626  17.040  0.2260  0.4774 -0.0991
16355TIP3    H170556   2.623   4.548  16.999 -0.0182  1.1631 -1.6520
16355TIP3    H270557   2.563   4.598  17.129  2.3263 -0.5662  0.1295
16356TIP3   OH270558   5.724   5.249   2.617  0.4384 -0.1994 -0.2349
16356TIP3    H170559   5.665   5.234   2.543 -0.3029  1.0655  0.0853
16356TIP3    H270560   5.762   5.336   2.600 -1.5679  1.2066  2.0597
16357TIP3   OH270561   0.935   3.726   0.803  0.0305  0.1603  0.7180
16357TIP3    H170562   1.018   3.768   0.783 -0.9334  0.7663 -2.4168
16357TIP3    H270563   0.943   3.638   0.766 -1.2179  0.7339 -1.0114
16358TIP3   OH270564   0.449   5.860  13.059  0.0796  0.0798 -0.1246
16358TIP3    H170565   0.487   5.854  13.147  2.0716  3.0737 -0.7299
16358TIP3    H270566   0.355   5.871  13.075  0.3465  0.1067  1.6063
16359TIP3   OH270567   4.303   0.121  14.066  0.3152 -0.5882  0.6819
16359TIP3    H170568   4.277   0.070  13.989  0.0767  0.9111 -0.2429
16359TIP3    H270569   4.364   0.186  14.032  0.5797 -0.2132  1.8524
16360TIP3   OH270570   3.338   1.132   2.456 -0.3051  0.3291  0.5644
16360TIP3    H170571   3.313   1.088   2.374 -1.5092 -0.0539  1.1130
16360TIP3    H270572   3.433   1.129   2.457 -0.3012 -0.2966 -0.4908
16361TIP3   OH270573   0.266   5.430   2.054  0.1998 -0.2885  0.0547
16361TIP3    H170574   0.285   5.378   1.976 -1.3472 -0.7833 -0.0106
16361TIP3    H270575   0.288   5.372   2.127  0.1950 -0.3826 -0.0179
16362TIP3   OH270576   2.289   4.821  10.864  0.2633  0.1723 -0.0441
16362TIP3    H170577   2.331   4.736  10.880  0.7201  0.4198  0.1011
16362TIP3    H270578   2.320   4.847  10.778  2.9543  1.8064  1.3322
16363TIP3   OH270579   0.050   6.694  15.373 -0.3596  0.0720 -0.1849
16363TIP3    H170580   0.113   6.678  15.444  1.5037 -1.8431 -2.1782
16363TIP3    H270581   0.102   6.731  15.302 -2.1421  1.6884 -0.6748
16364TIP3   OH270582   2.623   0.542  16.229  0.3025 -0.1661  0.2219
16364TIP3    H170583   2.649   0.541  16.137 -0.5843 -1.4321 -0.0372
16364TIP3    H270584   2.655   0.459  16.264  1.9811  0.9902  1.4623
16365TIP3   OH270585   3.316   0.461  13.105  0.2291 -0.7511 -0.0421
16365TIP3    H170586   3.368   0.509  13.169  0.2928 -0.7188 -0.1168
16365TIP3    H270587   3.288   0.527  13.042 -3.1913 -0.0542  2.0997
16366TIP3   OH270588   5.485   6.655   6.202  0.4558  0.3332  0.1527
16366TIP3    H170589   5.562   6.709   6.224  0.2455  0.9271 -0.5548
16366TIP3    H270590   5.411   6.714   6.211  0.0502 -0.2809  0.9746
16367TIP3   OH270591   1.080   4.053  14.490 -0.0269  0.6631 -0.3633
16367TIP3    H170592   1.158   4.070  14.543  1.3411 -1.5497 -1.6093
16367TIP3    H270593   1.066   4.134  14.441 -0.5807  2.3131  2.3532
16368TIP3   OH270594   6.121   3.162   1.714 -0.5496 -0.4750  0.4025
16368TIP3    H170595   6.160   3.200   1.634  1.1898 -2.6105  0.1952
16368TIP3    H270596   6.154   3.217   1.785 -1.2283  0.7763 -0.2321
16369TIP3   OH270597   2.086   0.859   2.375 -0.3129  0.0682  0.3816
16369TIP3    H170598   2.127   0.940   2.345 -2.0622  1.1964  0.9862
16369TIP3    H270599   2.022   0.887   2.440  0.6310 -2.0141  2.2406
16370TIP3   OH270600   2.694   3.069   6.147  0.5343 -0.4419 -0.0068
16370TIP3    H170601   2.603   3.060   6.178  0.4270 -0.5490 -0.3496
16370TIP3    H270602   2.739   3.113   6.219  0.1553 -0.1720  0.0694
16371TIP3   OH270603   4.316   2.264   1.704 -0.4935 -0.0949 -1.0587
16371TIP3    H170604   4.286   2.220   1.784  0.2074 -0.3820 -0.9507
16371TIP3    H270605   4.401   2.300   1.727 -1.1863  1.5997 -1.0484
16372TIP3   OH270606   4.317   1.578   0.363 -0.3231 -0.0911  0.1998
16372TIP3    H170607   4.400   1.624   0.366 -0.0848 -0.5082 -0.0616
16372TIP3    H270608   4.309   1.546   0.273  0.1545 -1.7426  0.7231
16373TIP3   OH270609   1.304   5.260   3.271  0.2653 -0.2643 -0.4954
16373TIP3    H170610   1.311   5.317   3.348  1.1263  1.5418 -1.8669
16373TIP3    H270611   1.223   5.211   3.285  0.4063  0.0416  1.5566
16374TIP3   OH270612   2.524   0.948  11.839  0.1878 -0.9401 -0.3225
16374TIP3    H170613   2.571   0.946  11.923  0.4025  1.0799 -0.3743
16374TIP3    H270614   2.591   0.973  11.775 -0.0651 -2.0831 -1.0460
16375TIP3   OH270615   6.139   6.144   3.250 -0.2873  0.1681 -0.4968
16375TIP3    H170616   6.101   6.134   3.162  0.6980  1.0564 -1.0366
16375TIP3    H270617   6.191   6.064   3.262 -2.2030 -1.0040  0.2022
16376TIP3   OH270618   1.157   0.765  16.690  0.3049  0.5229 -0.2175
16376TIP3    H170619   1.066   0.786  16.712  0.6101  1.2100  0.4101
16376TIP3    H270620   1.151   0.688  16.634 -0.6222  0.0683  0.4976
16377TIP3   OH270621   3.184   0.679  12.672  0.0458  0.7639 -0.4112
16377TIP3    H170622   3.154   0.589  12.682 -2.3770  1.7474  1.7090
16377TIP3    H270623   3.118   0.720  12.616 -0.2851  1.8608  0.7591
16378TIP3   OH270624   0.216   3.456   0.926  0.0300 -0.0069 -0.3563
16378TIP3    H170625   0.306   3.444   0.955 -0.1831 -0.0894  0.2782
16378TIP3    H270626   0.163   3.436   1.003 -0.5817 -1.1530 -1.0526
16379TIP3   OH270627   6.221   3.097  12.881 -0.2522 -0.1051 -0.3401
16379TIP3    H170628   6.249   3.014  12.920  0.4672  0.5863  0.6438
16379TIP3    H270629   6.126   3.099  12.894 -0.4292 -1.2909 -1.3903
16380TIP3   OH270630   0.123   4.807  15.166  0.8172 -0.4002  0.1343
16380TIP3    H170631   0.148   4.716  15.177  0.5337 -0.8015 -2.2883
16380TIP3    H270632   0.029   4.809  15.183  0.6633 -0.7269 -0.6648
16381TIP3   OH270633   5.596   6.031  17.190 -0.2270 -0.1302  0.1584
16381TIP3    H170634   5.677   6.002  17.148 -1.8767 -2.4880 -1.5186
16381TIP3    H270635   5.578   5.964  17.256 -1.9797 -0.8449 -1.0205
16382TIP3   OH270636   5.408   3.162   6.142  0.3456  1.2663  0.0460
16382TIP3    H170637   5.346   3.155   6.215  1.6010  1.1743  1.1116
16382TIP3    H270638   5.375   3.099   6.077 -0.5073  1.0018  0.7230
16383TIP3   OH270639   0.632   6.819  11.123  0.3797 -0.5090 -0.0025
16383TIP3    H170640   0.654   6.825  11.216  0.8402  1.3983 -0.2224
16383TIP3    H270641   0.643   6.907  11.089 -2.1510 -0.6499 -1.3601
16384TIP3   OH270642   5.727   3.603  11.101  0.4391 -0.1456 -0.2110
16384TIP3    H170643   5.693   3.584  11.013  0.2286 -1.5755  0.1774
16384TIP3    H270644   5.817   3.631  11.086 -0.0532  1.0717 -1.0061
16385TIP3   OH270645   5.834   1.689  13.043 -0.0548 -0.3741  0.4667
16385TIP3    H170646   5.831   1.777  13.007  1.0505 -0.2292  0.7151
16385TIP3    H270647   5.776   1.638  12.987 -0.3191  0.4018  0.0262
16386TIP3   OH270648   6.268   0.936  16.980  0.1379 -0.6941 -0.2638
16386TIP3    H170649   6.248   0.994  17.053  2.4284  0.4008 -0.4654
16386TIP3    H270650   6.344   0.886  17.010  1.8713  0.6454 -2.3657
16387TIP3   OH270651   5.304   6.114   4.640 -0.5005 -0.7182  0.1827
16387TIP3    H170652   5.319   6.020   4.634  1.1020 -0.5039  0.5461
16387TIP3    H270653   5.229   6.131   4.583 -0.0765 -2.0390 -0.7741
16388TIP3   OH270654   3.040   5.778   6.760  0.2125 -0.1796 -0.4129
16388TIP3    H170655   3.102   5.848   6.781 -0.7787  0.4741  0.3981
16388TIP3    H270656   2.956   5.822   6.748 -0.9818 -1.4419  2.6814
16389TIP3   OH270657   5.763   4.180  13.362 -0.1684 -0.7558  0.1738
16389TIP3    H170658   5.743   4.221  13.278  0.7129 -0.8210 -0.0696
16389TIP3    H270659   5.821   4.241  13.407 -0.3601 -0.8757  0.5982
16390TIP3   OH270660   1.480   4.529  11.207 -0.6802  0.0231  0.3829
16390TIP3    H170661   1.571   4.505  11.220 -0.7820 -1.4525 -1.4350
16390TIP3    H270662   1.430   4.460  11.252 -0.9168  1.1683  1.9193
16391TIP3   OH270663   0.973   2.595   1.142  0.2956 -0.3405 -0.1962
16391TIP3    H170664   0.987   2.596   1.237  2.4006 -4.4541 -0.3651
16391TIP3    H270665   1.039   2.655   1.108 -1.8977  2.8735  1.0128
16392TIP3   OH270666   6.345   2.681  17.125 -0.0220  0.3632 -0.0382
16392TIP3    H170667   6.284   2.624  17.079  0.0633  0.4793 -0.2965
16392TIP3    H270668   6.374   2.629  17.200  1.2720 -0.5534 -1.1358
16393TIP3   OH270669   1.070   3.690   3.466 -0.4992 -0.8964  0.6618
16393TIP3    H170670   1.022   3.681   3.548 -0.6964 -1.4211  0.4845
16393TIP3    H270671   1.033   3.625   3.408 -0.5764 -0.3118  0.0435
16394TIP3   OH270672   2.932   5.266   0.841  0.2154  0.0295 -0.2214
16394TIP3    H170673   2.976   5.227   0.917  0.0369  1.4622  0.6175
16394TIP3    H270674   2.903   5.190   0.790  2.3602 -0.9614 -0.0469
16395TIP3   OH270675   5.120   6.385  15.633  0.2271 -0.1191 -0.0405
16395TIP3    H170676   5.117   6.463  15.577  0.8146 -0.2015 -0.1981
16395TIP3    H270677   5.086   6.314  15.577  0.2382 -0.0838 -0.0919
16396TIP3   OH270678   3.510   5.712   6.135 -0.0200 -0.4863  0.2880
16396TIP3    H170679   3.467   5.757   6.208  0.3477  0.6935 -0.2104
16396TIP3    H270680   3.603   5.728   6.149 -0.0484  1.2641 -1.4040
16397TIP3   OH270681   0.640   3.997   4.103  0.2294  1.2281 -0.0160
16397TIP3    H170682   0.717   4.048   4.130  0.3082  0.9442  0.2903
16397TIP3    H270683   0.611   3.953   4.182  1.2136 -0.6117 -0.6424
16398TIP3   OH270684   5.000   1.649  14.750  0.2239 -0.0676  0.7954
16398TIP3    H170685   4.949   1.640  14.830  0.2153 -3.0536  0.4854
16398TIP3    H270686   4.936   1.674  14.683 -0.3515 -1.0541  0.9825
16399TIP3   OH270687   2.267   3.500  14.559  0.4267  0.1015  0.0593
16399TIP3    H170688   2.277   3.409  14.587 -1.9558  0.3661  1.9309
16399TIP3    H270689   2.282   3.552  14.638  0.9198  1.3001 -0.8019
16400TIP3   OH270690   3.092   3.477   1.275 -0.1133  0.3048  0.1793
16400TIP3    H170691   3.065   3.503   1.363  1.4816 -1.0896  1.1127
16400TIP3    H270692   3.171   3.425   1.289 -0.3982 -0.7590 -1.9956
16401TIP3   OH270693   0.022   0.172  13.270  0.1475  0.3882  0.0359
16401TIP3    H170694   0.048   0.093  13.318  1.3466  0.1851 -0.9358
16401TIP3    H270695   0.103   0.204  13.230  0.1376  3.3660  2.2142
16402TIP3   OH270696   5.306   2.052  12.102 -0.3832  0.1164  0.3074
16402TIP3    H170697   5.243   2.047  12.175  0.7330  1.3880  1.3806
16402TIP3    H270698   5.267   2.114  12.041  0.4900  2.0321  1.6578
16403TIP3   OH270699   2.155   1.695  13.618 -0.6794  0.1559 -0.2189
16403TIP3    H170700   2.186   1.668  13.531 -1.4311  0.7204 -0.6626
16403TIP3    H270701   2.236   1.710  13.667 -0.2359 -2.1393 -0.1881
16404TIP3   OH270702   1.324   5.175  16.548 -0.6735  0.3195  0.2645
16404TIP3    H170703   1.291   5.162  16.637  0.2893  1.3572  0.7835
16404TIP3    H270704   1.294   5.263  16.524  3.9242  2.4518  1.8035
16405TIP3   OH270705   6.482   0.345  10.667 -0.1885 -0.4185 -0.2030
16405TIP3    H170706   6.437   0.274  10.621 -1.2550 -0.7532  1.3139
16405TIP3    H270707   6.573   0.316  10.672 -1.0971 -3.2062  3.0702
16406TIP3   OH270708   5.665   3.867   4.622 -0.1986 -0.3729 -0.1582
16406TIP3    H170709   5.675   3.933   4.553 -1.4300  1.4332  1.3179
16406TIP3    H270710   5.731   3.891   4.687  0.0354 -1.2291 -0.0729
16407TIP3   OH270711   1.544   2.077   5.181 -0.4501 -0.2933 -0.4124
16407TIP3    H170712   1.489   2.001   5.161  0.6655 -1.0398 -0.7222
16407TIP3    H270713   1.483   2.145   5.208 -1.6603 -0.5904 -2.3139
16408TIP3   OH270714   1.964   3.095   3.691 -0.5238  0.4626  0.8054
16408TIP3    H170715   1.964   3.190   3.681 -0.7078  0.6550  2.5961
16408TIP3    H270716   1.900   3.064   3.626 -2.1500  1.7199  1.7797
16409TIP3   OH270717   2.557   1.236   1.156 -0.7307  0.0559 -0.2276
16409TIP3    H170718   2.623   1.235   1.086  1.3912 -2.2895  1.6849
16409TIP3    H270719   2.514   1.150   1.149 -1.1970  0.2139  0.7112
16410TIP3   OH270720   0.859   3.042  11.562  0.1082  0.2261 -0.5609
16410TIP3    H170721   0.891   3.085  11.483  0.8677  0.7037 -0.0033
16410TIP3    H270722   0.833   3.114  11.620  0.0225 -0.0980 -0.1912
16411TIP3   OH270723   1.662   0.762   3.425 -0.2645 -0.0554  0.0817
16411TIP3    H170724   1.637   0.731   3.338 -0.3824 -0.6233  0.3107
16411TIP3    H270725   1.657   0.683   3.480  3.1656 -0.4495 -0.1037
16412TIP3   OH270726   0.984   1.254   1.288 -0.2844  0.2289 -0.4025
16412TIP3    H170727   0.939   1.334   1.318 -0.5160 -0.3116  0.7184
16412TIP3    H270728   0.996   1.202   1.367  0.5694 -0.5126 -1.0077
16413TIP3   OH270729   5.145   1.302   6.022 -0.7971 -0.3829  0.7066
16413TIP3    H170730   5.181   1.240   6.086  1.5820  1.1245  0.8746
16413TIP3    H270731   5.065   1.336   6.064 -1.0090 -1.7840  1.4730
16414TIP3   OH270732   3.617   2.835  13.558  0.3043  0.6387  0.2801
16414TIP3    H170733   3.594   2.867  13.471  2.8839 -0.9711 -1.0773
16414TIP3    H270734   3.628   2.914  13.610  2.1253  1.8280 -1.7942
16415TIP3   OH270735   5.420   1.305   5.227  0.3851  0.3041 -0.6676
16415TIP3    H170736   5.400   1.398   5.218  0.4053  0.4399  0.5774
16415TIP3    H270737   5.340   1.260   5.197 -0.3895  0.7672  0.6721
16416TIP3   OH270738   3.656   3.226  11.476  0.7170  0.3068 -0.0039
16416TIP3    H170739   3.665   3.220  11.571 -0.9944 -0.2002  0.1486
16416TIP3    H270740   3.715   3.159  11.441  1.1478  0.3160  0.7002
16417TIP3   OH270741   5.624   4.594   5.517  0.2191  0.0952  0.0530
16417TIP3    H170742   5.684   4.535   5.472 -0.5269 -1.0798  0.5671
16417TIP3    H270743   5.589   4.543   5.590  0.1147  1.4148  0.9622
16418TIP3   OH270744   0.051   4.522  13.519  0.1903 -0.1541 -0.0470
16418TIP3    H170745  -0.021   4.477  13.563 -0.1422  0.1496 -0.2886
16418TIP3    H270746   0.091   4.455  13.464  2.0844 -1.2010  2.4840
16419TIP3   OH270747   2.389   2.736  12.604  0.0670 -0.1534  0.0300
16419TIP3    H170748   2.374   2.829  12.622  2.0161  0.7205 -2.5798
16419TIP3    H270749   2.308   2.706  12.562  0.4595  1.1272 -1.7213
16420TIP3   OH270750   2.837   4.071   3.174  0.3793 -0.2976  0.0510
16420TIP3    H170751   2.866   4.147   3.123 -0.9010  1.8363  2.3915
16420TIP3    H270752   2.917   4.023   3.195  1.1821  0.2866 -1.6015
16421TIP3   OH270753   3.286   0.979  14.308  0.3474  0.4237  0.1492
16421TIP3    H170754   3.308   1.033  14.384  1.1640 -0.9740  0.9246
16421TIP3    H270755   3.231   1.035  14.254 -0.5706  1.3080  1.9633
16422TIP3   OH270756   2.522   0.927  14.012 -0.3744  0.3525 -0.3224
16422TIP3    H170757   2.584   0.868  13.968  1.7544  2.0836  0.2874
16422TIP3    H270758   2.438   0.905  13.973  0.6690 -1.7555 -1.5035
16423TIP3   OH270759   3.928   0.374  15.151  0.3039 -0.6884  0.4090
16423TIP3    H170760   3.954   0.378  15.059 -1.0394 -2.7431 -0.0713
16423TIP3    H270761   3.976   0.447  15.192  1.2284 -0.0035 -1.8118
16424TIP3   OH270762   5.603   2.975  15.428  0.3371 -0.0419  0.2169
16424TIP3    H170763   5.585   3.056  15.475 -1.3132 -0.9136  1.1451
16424TIP3    H270764   5.519   2.951  15.388  0.1263 -2.5701  2.0032
16425TIP3   OH270765   1.108   3.045   4.989  0.3172  0.3800 -0.3893
16425TIP3    H170766   1.144   3.122   5.034  0.1810  0.6412 -0.7294
16425TIP3    H270767   1.131   3.058   4.897 -0.2162  0.2959 -0.5305
16426TIP3   OH270768   2.294   2.518   3.201 -0.7987 -0.2183 -1.0789
16426TIP3    H170769   2.374   2.504   3.252 -1.3478 -0.6303 -0.3254
16426TIP3    H270770   2.260   2.430   3.186 -3.5273  0.1135  2.4808
16427TIP3   OH270771   6.178   1.700   5.946 -0.6931  0.0739  0.0369
16427TIP3    H170772   6.171   1.782   5.994 -0.9407  0.7951 -1.2111
16427TIP3    H270773   6.259   1.660   5.978  0.1426  1.4407 -0.3072
16428TIP3   OH270774   5.422   4.185   5.195  0.0941 -0.1080  0.1792
16428TIP3    H170775   5.352   4.153   5.253  0.6116 -0.6997  0.4855
16428TIP3    H270776   5.443   4.272   5.228 -0.9576  0.3409 -0.3224
16429TIP3   OH270777   1.810   3.406  14.822 -0.0337  0.1172  0.8551
16429TIP3    H170778   1.747   3.412  14.894 -1.0148  1.9128 -0.1016
16429TIP3    H270779   1.895   3.413  14.864 -0.5262 -0.7054  2.0109
16430TIP3   OH270780   1.144   2.483  14.554  0.1180 -0.0080 -0.0209
16430TIP3    H170781   1.159   2.470  14.460 -1.2056 -0.2265 -0.2121
16430TIP3    H270782   1.105   2.570  14.561 -3.1392 -1.3948 -0.0681
16431TIP3   OH270783   5.930   4.537   2.784 -0.7489  0.2026 -0.2549
16431TIP3    H170784   5.868   4.610   2.792 -1.6610 -0.3966 -1.7105
16431TIP3    H270785   5.989   4.564   2.714 -0.0172  0.2834  0.3811
16432TIP3   OH270786   0.966   2.854   0.767 -0.1024 -0.7757  0.0415
16432TIP3    H170787   0.999   2.868   0.678  0.0289 -1.0749  0.0414
16432TIP3    H270788   1.044   2.830   0.818 -0.5303 -3.0266 -0.2919
16433TIP3   OH270789   2.622   3.870  13.431  0.1228  0.5363 -0.3964
16433TIP3    H170790   2.675   3.942  13.465  1.1914 -1.9621  3.5299
16433TIP3    H270791   2.535   3.885  13.469 -0.1765  0.7836 -1.1605
16434TIP3   OH270792   0.634   0.634   5.930 -0.0618  0.4021  0.7331
16434TIP3    H170793   0.592   0.689   5.997  1.1354 -0.7327  2.4520
16434TIP3    H270794   0.696   0.693   5.887 -1.3790  1.3401  0.1002
16435TIP3   OH270795   6.284   1.851   2.262  0.3202 -0.0376 -0.0561
16435TIP3    H170796   6.277   1.761   2.293  0.6224  0.1682  0.5996
16435TIP3    H270797   6.364   1.853   2.209 -0.1808 -0.3784 -0.8460
16436TIP3   OH270798   1.877   6.300   1.386  0.5691 -0.0820 -0.1239
16436TIP3    H170799   1.959   6.320   1.342  0.6403  0.3655  0.2050
16436TIP3    H270800   1.870   6.366   1.455 -0.3790  0.2882 -0.5562
16437TIP3   OH270801   6.416   5.529   4.682 -0.0821  0.0494  0.0050
16437TIP3    H170802   6.337   5.579   4.662 -0.0959  0.0731  0.1205
16437TIP3    H270803   6.475   5.547   4.608 -0.9574 -1.5932 -1.1261
16438TIP3   OH270804   2.201   2.254   4.183  0.6297  0.2953 -0.2489
16438TIP3    H170805   2.250   2.264   4.264 -0.4310 -0.4627  0.4994
16438TIP3    H270806   2.194   2.160   4.170 -2.7093  0.3138  0.9792
16439TIP3   OH270807   6.316   0.458   0.139 -0.0154  0.3319 -0.2596
16439TIP3    H170808   6.409   0.459   0.161 -0.3780  0.4768  1.3668
16439TIP3    H270809   6.300   0.543   0.097  0.7636 -0.0661 -1.3899
16440TIP3   OH270810   0.645   1.840  17.242 -0.1996 -0.0892  0.4179
16440TIP3    H170811   0.583   1.884  17.184  2.3100 -0.4817 -2.7132
16440TIP3    H270812   0.658   1.901  17.314 -1.7528  1.4048 -0.5315
16441TIP3   OH270813   4.774   0.564  11.454  0.0660  0.7892 -0.1965
16441TIP3    H170814   4.765   0.659  11.467  0.2641  0.5628  1.7840
16441TIP3    H270815   4.693   0.528  11.489  0.4916  0.1424  0.1285
16442TIP3   OH270816   0.388   6.042   2.202  0.0292  0.3700  0.4644
16442TIP3    H170817   0.324   6.062   2.134 -0.6522  0.1953  1.0523
16442TIP3    H270818   0.459   6.105   2.188 -0.9609  1.5463  0.7631
16443TIP3   OH270819   0.166   1.735   2.399 -0.5433 -0.3097 -0.4122
16443TIP3    H170820   0.142   1.715   2.309  1.5939 -1.1142 -0.8206
16443TIP3    H270821   0.177   1.650   2.441 -1.2720  0.0578  0.5560
16444TIP3   OH270822   5.357   0.545  10.791 -0.0974 -0.0689  0.0771
16444TIP3    H170823   5.377   0.634  10.760  0.0045 -0.2207 -0.2961
16444TIP3    H270824   5.337   0.556  10.884 -0.8144  0.4548 -0.1278
16445TIP3   OH270825   3.520   5.554   3.968  0.4248  0.6717  0.5871
16445TIP3    H170826   3.490   5.463   3.971  0.9308  0.3638 -1.9822
16445TIP3    H270827   3.488   5.586   3.883 -1.0092  3.3579  2.0943
16446TIP3   OH270828   2.003   3.660   2.174  0.6960  0.4914 -0.0547
16446TIP3    H170829   2.076   3.598   2.176 -0.0558 -0.5172 -1.7557
16446TIP3    H270830   1.945   3.624   2.106 -1.0679  1.5971  0.8561
16447TIP3   OH270831   1.014   3.627   4.238 -0.7124 -0.2001 -0.1182
16447TIP3    H170832   1.108   3.618   4.225 -0.6667  0.8387 -0.5638
16447TIP3    H270833   0.979   3.540   4.221  0.2385 -0.7642  0.7517
16448TIP3   OH270834   0.962   0.341   1.022 -0.0447 -0.1100 -0.5562
16448TIP3    H170835   1.024   0.300   0.962 -0.4949 -2.2735  0.3881
16448TIP3    H270836   1.017   0.394   1.080  0.4681  1.3071 -2.3251
16449TIP3   OH270837   5.315   5.549  13.980 -0.6839 -0.0643 -0.1907
16449TIP3    H170838   5.352   5.559  13.893  2.0824 -0.3781  0.8877
16449TIP3    H270839   5.259   5.471  13.973 -0.4767 -0.0976 -1.6645
16450TIP3   OH270840   1.957   1.069   4.557 -0.3911  0.6391  0.0614
16450TIP3    H170841   1.969   1.031   4.643 -1.7607  1.2616  0.5464
16450TIP3    H270842   1.877   1.122   4.565 -1.9087 -1.1957 -2.2356
16451TIP3   OH270843   3.273   4.996  11.351 -0.0904 -0.2618 -0.4908
16451TIP3    H170844   3.333   5.054  11.304  0.5913  1.1002  1.9649
16451TIP3    H270845   3.315   4.911  11.349  2.1532  0.7567  1.5179
16452TIP3   OH270846   1.493   1.111  14.848  0.3732  0.0530  0.5602
16452TIP3    H170847   1.506   1.139  14.757 -0.3688 -0.5619  0.2598
16452TIP3    H270848   1.540   1.177  14.900  1.5905 -0.1062 -0.3080
16453TIP3   OH270849   3.360   5.905  15.192 -0.2564  0.1975  0.0396
16453TIP3    H170850   3.422   5.836  15.168 -0.2223  0.8470 -1.8398
16453TIP3    H270851   3.276   5.861  15.200  0.1183 -0.3845  0.7593
16454TIP3   OH270852   2.474   3.300   5.927  0.0523 -0.2539  0.0976
16454TIP3    H170853   2.483   3.304   6.022  1.8636 -0.9448 -0.0256
16454TIP3    H270854   2.423   3.378   5.905  0.9929  0.7708  1.4807
16455TIP3   OH270855   2.452   1.632   3.199 -0.2375 -0.2751 -0.0077
16455TIP3    H170856   2.538   1.592   3.209  0.6898  1.7154  0.1467
16455TIP3    H270857   2.454   1.673   3.113 -1.9019 -2.2362 -1.0202
16456TIP3   OH270858   0.697   3.738   4.447 -0.1897  0.2915  0.2446
16456TIP3    H170859   0.612   3.701   4.472  0.1095 -0.3018  0.3867
16456TIP3    H270860   0.741   3.667   4.399  0.3425  0.4964  0.4275
16457TIP3   OH270861   3.427   3.137   5.339  0.4476 -0.0520 -0.2850
16457TIP3    H170862   3.463   3.178   5.260  1.6136 -0.4390  0.0382
16457TIP3    H270863   3.503   3.120   5.394 -0.6496  3.4936  2.5151
16458TIP3   OH270864   1.942   5.584   3.730  0.1393 -1.0155  0.2003
16458TIP3    H170865   1.962   5.600   3.822 -0.8883  0.6709  0.1506
16458TIP3    H270866   1.924   5.671   3.694  2.6208 -1.3625 -2.1067
16459TIP3   OH270867   4.187   0.071   5.188 -0.1930 -0.1917  0.1920
16459TIP3    H170868   4.224   0.159   5.194 -1.1394  0.1936  0.4457
16459TIP3    H270869   4.217   0.038   5.103  1.3057 -0.1613  0.6940
16460TIP3   OH270870   3.024   5.782   4.378 -0.5674  0.5434 -0.1817
16460TIP3    H170871   3.048   5.749   4.292 -0.8388  0.1093 -0.0902
16460TIP3    H270872   2.997   5.873   4.363 -2.4297 -0.1011 -0.8443
16461TIP3   OH270873   6.204   1.871   1.028  0.7289  0.0241  0.5777
16461TIP3    H170874   6.218   1.952   1.077  0.4919  1.0335 -1.0057
16461TIP3    H270875   6.143   1.821   1.082  0.6145  1.0301  1.4004
16462TIP3   OH270876   0.809   2.179  16.022  0.6606 -0.4956 -0.6965
16462TIP3    H170877   0.852   2.100  16.054  0.1486 -0.2184  0.7231
16462TIP3    H270878   0.774   2.221  16.101 -0.5964  0.2314 -1.6202
16463TIP3   OH270879   3.338   3.191  12.758 -0.4222  0.1254 -0.6930
16463TIP3    H170880   3.271   3.143  12.709  1.3010 -2.2846 -0.8027
16463TIP3    H270881   3.421   3.158  12.723  0.8206  0.9006  1.4540
16464TIP3   OH270882   3.816   1.148   2.699  0.3948 -0.3103  0.5373
16464TIP3    H170883   3.801   1.216   2.764 -2.5723  0.4977 -0.8696
16464TIP3    H270884   3.871   1.190   2.632  0.5594 -0.0551  0.8324
16465TIP3   OH270885   1.182   1.982   3.517  0.2170 -0.2271  0.3232
16465TIP3    H170886   1.156   1.896   3.485  0.4856  0.0003 -0.5262
16465TIP3    H270887   1.149   2.043   3.450  1.6167  0.1837 -0.0198
16466TIP3   OH270888   0.951   1.669  16.758  0.3431 -0.3285 -0.5729
16466TIP3    H170889   1.012   1.631  16.821  0.6086 -1.0835 -1.2773
16466TIP3    H270890   0.909   1.741  16.805  1.7777  0.1988 -0.0853
16467TIP3   OH270891   1.304   2.368   0.670  0.1669  0.4250  0.4615
16467TIP3    H170892   1.259   2.409   0.744  1.0376  0.0429  1.2108
16467TIP3    H270893   1.378   2.426   0.653  0.9154 -0.3879  0.9712
16468TIP3   OH270894   4.898   0.277  13.100 -0.3043 -0.1922 -0.4263
16468TIP3    H170895   4.958   0.248  13.032 -0.1927  3.3178 -1.9160
16468TIP3    H270896   4.950   0.334  13.156 -0.7305 -2.0053  1.9197
16469TIP3   OH270897   2.739   0.746  16.355  1.0511 -0.0362 -0.1278
16469TIP3    H170898   2.721   0.682  16.285  3.9328 -1.2029  0.1021
16469TIP3    H270899   2.827   0.779  16.334  0.6178  1.9678  1.1866
16470TIP3   OH270900   4.626   2.029   2.073 -0.4671 -0.0104 -0.4275
16470TIP3    H170901   4.659   2.007   2.161 -0.7399 -0.5222 -0.4479
16470TIP3    H270902   4.536   2.057   2.088  0.0192  1.5608 -0.3505
16471TIP3   OH270903   5.333   4.061   3.679  0.2451  0.3917 -0.4810
16471TIP3    H170904   5.421   4.028   3.698 -1.2182 -3.3607  0.2779
16471TIP3    H270905   5.319   4.039   3.587 -0.2250  0.1976 -0.3611
16472TIP3   OH270906   2.636   5.556  12.064  0.2067  0.0949 -0.8466
16472TIP3    H170907   2.582   5.624  12.106  0.0892  1.0907 -2.5916
16472TIP3    H270908   2.696   5.603  12.008  1.9592 -1.1155 -0.0371
16473TIP3   OH270909   2.559   4.226   3.994  0.1285 -0.0182 -0.2029
16473TIP3    H170910   2.527   4.272   3.916  1.6908  1.9909  0.3054
16473TIP3    H270911   2.489   4.238   4.058  1.4007  3.5119  0.5912
16474TIP3   OH270912   2.634   4.840  16.703 -0.1981  0.2094 -0.3621
16474TIP3    H170913   2.545   4.876  16.695 -0.4945 -0.6644 -1.1022
16474TIP3    H270914   2.675   4.857  16.619  0.1823  0.1883 -0.1806
16475TIP3   OH270915   6.344   2.785   4.965 -0.2639 -0.3631  0.1148
16475TIP3    H170916   6.388   2.708   4.927  1.7550  0.3094  1.0632
16475TIP3    H270917   6.331   2.844   4.891  0.5763 -0.4930 -0.1336
16476TIP3   OH270918   4.360   2.680  16.694  0.5823 -0.6043 -0.8608
16476TIP3    H170919   4.334   2.735  16.767  0.3181  0.0303 -1.4314
16476TIP3    H270920   4.453   2.664  16.708  0.5502 -0.4242 -0.4331
16477TIP3   OH270921   5.381   1.028   3.204  0.5353 -0.5758  0.1011
16477TIP3    H170922   5.476   1.039   3.211  0.4903  0.0248 -0.1499
16477TIP3    H270923   5.366   0.998   3.115  0.4050  0.4541 -0.2349
16478TIP3   OH270924   2.463   0.783  14.942 -0.5959  0.1749 -0.1986
16478TIP3    H170925   2.408   0.792  14.864 -0.8457 -0.8081 -0.1449
16478TIP3    H270926   2.458   0.690  14.964  0.5336  0.2069  0.2205
16479TIP3   OH270927   1.509   0.409  12.499  0.9572 -0.5685  0.3123
16479TIP3    H170928   1.546   0.497  12.503 -0.1060  0.0392 -2.2413
16479TIP3    H270929   1.430   0.413  12.553  1.6523 -0.3554  1.3174
16480TIP3   OH270930   1.253   1.118  13.695  0.0598  0.2127 -0.1620
16480TIP3    H170931   1.306   1.128  13.774 -0.2044 -1.0620  0.1950
16480TIP3    H270932   1.272   1.029  13.665 -1.5885 -0.1279 -0.2444
16481TIP3   OH270933   2.735   1.789  12.432 -0.4505  0.0218  0.4603
16481TIP3    H170934   2.788   1.850  12.484 -1.8931  1.3001  0.4635
16481TIP3    H270935   2.673   1.845  12.385  0.1052 -1.2213 -1.7925
16482TIP3   OH270936   4.732   5.046  11.290 -0.1704 -0.2499 -0.1606
16482TIP3    H170937   4.692   4.976  11.238  0.1591  0.5784 -1.5309
16482TIP3    H270938   4.739   5.008  11.378  0.1733 -2.0196 -0.9169
16483TIP3   OH270939   4.415   0.799   0.834 -0.0424 -0.0794  0.3807
16483TIP3    H170940   4.490   0.748   0.864  0.3463  0.2322 -0.0517
16483TIP3    H270941   4.366   0.739   0.778  0.7933  0.2336 -0.6969
16484TIP3   OH270942   2.627   0.357  12.291  0.1919  0.1510  0.2330
16484TIP3    H170943   2.532   0.359  12.282  0.1805  1.1163  0.4493
16484TIP3    H270944   2.659   0.315  12.211 -0.3475  0.9350 -0.3938
16485TIP3   OH270945   1.185   3.079  12.344 -0.3016 -0.0918  0.2523
16485TIP3    H170946   1.236   3.090  12.424 -1.9136  0.1830  1.2479
16485TIP3    H270947   1.151   3.166  12.325  0.4537 -0.0503 -1.0164
16486TIP3   OH270948   2.556   3.988   1.078  0.1319  0.4048  0.3526
16486TIP3    H170949   2.551   4.012   0.985  0.4501  0.7199  0.4177
16486TIP3    H270950   2.484   4.036   1.119  0.9563  1.4819  0.5335
16487TIP3   OH270951   3.455   0.956   5.806  0.0378  0.3630 -0.1778
16487TIP3    H170952   3.436   0.888   5.871  0.3410 -0.3429 -0.8137
16487TIP3    H270953   3.412   1.034   5.839  1.5864  0.4373  1.7060
16488TIP3   OH270954   6.779   0.350  11.600 -0.1653 -0.6553  0.1969
16488TIP3    H170955   6.785   0.261  11.565 -1.6142 -1.0653  0.9528
16488TIP3    H270956   6.689   0.377  11.581  0.0434  0.3687  0.6454
16489TIP3   OH270957   6.066   2.957  15.050  0.0720 -0.3508 -0.4702
16489TIP3    H170958   6.070   3.046  15.084  1.5872 -0.8866  0.8205
16489TIP3    H270959   6.001   2.961  14.980 -0.1866  1.6660 -0.1468
16490TIP3   OH270960   3.758   2.822   3.832 -0.0672  0.5192 -0.2737
16490TIP3    H170961   3.731   2.842   3.743  2.0196  4.0575 -0.2044
16490TIP3    H270962   3.851   2.799   3.825  0.0119  0.4328  0.9319
16491TIP3   OH270963   3.122   0.414  13.805  0.1787 -0.3385 -0.7038
16491TIP3    H170964   3.177   0.484  13.769  0.1626  0.5070  0.8669
16491TIP3    H270965   3.177   0.336  13.803  0.5559 -0.0610 -1.4919
16492TIP3   OH270966   1.268   5.264  15.586  0.3003  0.1885 -0.1770
16492TIP3    H170967   1.349   5.298  15.550  0.3142  0.3989  0.0459
16492TIP3    H270968   1.204   5.271  15.515  0.9695 -1.8781 -0.9989
16493TIP3   OH270969   1.415   0.836   1.520  0.4041  0.2494  0.1989
16493TIP3    H170970   1.406   0.877   1.606  1.8752 -0.4267  0.6925
16493TIP3    H270971   1.330   0.850   1.478 -0.0113  1.4289  1.3851
16494TIP3   OH270972   6.242   1.352   3.019  0.3392 -0.5444  0.8932
16494TIP3    H170973   6.335   1.339   3.038  1.0996  1.1626 -1.4624
16494TIP3    H270974   6.236   1.344   2.924 -1.8794 -0.3154  0.9993
16495TIP3   OH270975   0.384   4.430  16.379 -0.3453  0.5535  0.3384
16495TIP3    H170976   0.317   4.398  16.440  1.4385 -0.0570  2.0021
16495TIP3    H270977   0.335   4.484  16.317 -2.4689 -0.2862  1.2179
16496TIP3   OH270978   3.809   2.477  16.265 -0.0551  0.0362  0.0327
16496TIP3    H170979   3.888   2.435  16.230 -0.2414  0.5914 -1.0935
16496TIP3    H270980   3.773   2.524  16.190 -2.8612 -2.2805 -0.1670
16497TIP3   OH270981   4.742   0.233   5.847 -0.2312 -0.1466 -0.0001
16497TIP3    H170982   4.823   0.230   5.898  0.3261  1.7253 -0.7123
16497TIP3    H270983   4.693   0.306   5.885 -0.8147 -0.1828 -0.6764
16498TIP3   OH270984   3.235   4.706  17.179 -0.2805  0.1004 -0.0938
16498TIP3    H170985   3.158   4.653  17.158  0.4058 -0.4427 -1.3143
16498TIP3    H270986   3.282   4.654  17.245 -0.1990 -0.2641 -0.4375
16499TIP3   OH270987   3.894   1.055  17.253  1.1462  0.0593 -0.3534
16499TIP3    H170988   3.874   1.013  17.336 -0.4314  2.2578  0.4229
16499TIP3    H270989   3.832   1.017  17.191  0.1133  0.8043  0.2170
16500TIP3   OH270990   1.526   5.077   5.141  0.2506 -0.5001 -0.3266
16500TIP3    H170991   1.580   5.010   5.098  0.7965 -0.0630 -0.3224
16500TIP3    H270992   1.574   5.159   5.129 -0.6065 -0.0356 -0.6736
16501TIP3   OH270993   1.274   1.907   3.761 -0.1714 -0.2707 -0.3610
16501TIP3    H170994   1.368   1.894   3.773  0.0564  1.9980  0.6248
16501TIP3    H270995   1.265   1.929   3.668  0.5697  1.6996  0.0114
16502TIP3   OH270996   4.823   5.969  14.406 -0.6049  0.1452  0.4966
16502TIP3    H170997   4.735   5.949  14.438  0.2054 -1.2018  1.9519
16502TIP3    H270998   4.835   5.910  14.331 -1.5614  1.5469 -0.7980
16503TIP3   OH270999   5.743   1.437  14.223 -0.4618  0.1460 -0.0747
16503TIP3    H171000   5.770   1.524  14.251 -0.2308 -0.4085  1.4897
16503TIP3    H271001   5.655   1.450  14.187 -0.4458  1.0178  0.1787
16504TIP3   OH271002   3.612   3.555  12.353  0.3401 -0.2746  0.2731
16504TIP3    H171003   3.638   3.638  12.315 -0.9603 -0.3012 -0.7252
16504TIP3    H271004   3.518   3.548  12.333  0.2967 -1.6720  0.9005
16505TIP3   OH271005   4.518   4.411  16.896  0.5400  0.1900  0.5163
16505TIP3    H171006   4.570   4.421  16.976 -1.5084  0.7862  1.8204
16505TIP3    H271007   4.579   4.430  16.825  2.3745 -0.2369  1.9451
16506TIP3   OH271008   1.422   0.227  15.494  0.0650 -0.2277 -0.3355
16506TIP3    H171009   1.418   0.149  15.549  0.5720 -0.6471 -0.8767
16506TIP3    H271010   1.500   0.213  15.439  0.4144  0.8621 -0.1300
16507TIP3   OH271011   4.280   4.998  15.461 -0.1132  0.2145  0.5021
16507TIP3    H171012   4.311   4.955  15.540 -1.0072 -1.2262  0.1076
16507TIP3    H271013   4.355   4.996  15.401  0.0708 -0.1546  0.7440
16508TIP3   OH271014   3.686   0.828   3.529 -0.6045  0.4934  0.2624
16508TIP3    H171015   3.677   0.892   3.458 -0.2790  0.1922 -0.0531
16508TIP3    H271016   3.600   0.826   3.571 -0.5222  1.3786  0.4806
16509TIP3   OH271017   1.897   0.043   0.314  0.3631  0.0257  0.3881
16509TIP3    H171018   1.918   0.010   0.401 -0.4755 -1.4357  0.0512
16509TIP3    H271019   1.808   0.078   0.322  1.0017  1.6213  0.5800
16510TIP3   OH271020   4.940   2.673  12.271  0.0361  0.0880  0.7539
16510TIP3    H171021   5.030   2.649  12.295  0.6825  1.8523  0.0902
16510TIP3    H271022   4.894   2.589  12.270  1.5796 -0.8072  1.4424
16511TIP3   OH271023   6.076   1.057  11.507  0.9392 -0.2239 -0.6842
16511TIP3    H171024   6.109   1.057  11.597 -0.3655  0.3005 -0.1985
16511TIP3    H271025   6.034   1.142  11.498  1.3570 -0.1458 -1.9044
16512TIP3   OH271026   2.334   0.449   3.827 -0.2659  0.5537  0.1751
16512TIP3    H171027   2.278   0.452   3.749  1.4545 -0.8358 -1.1517
16512TIP3    H271028   2.402   0.514   3.810 -0.8266  1.4555  1.2954
16513TIP3   OH271029   0.383   1.950   4.616  0.2424 -0.0939  0.2758
16513TIP3    H171030   0.466   1.986   4.586  0.2563 -0.0652  0.3472
16513TIP3    H271031   0.357   1.888   4.548 -0.4252  0.9889 -0.4656
16514TIP3   OH271032   2.360   3.215   5.443  0.1315 -0.1798 -0.4900
16514TIP3    H171033   2.366   3.307   5.416 -1.8804 -0.3937 -1.7465
16514TIP3    H271034   2.429   3.206   5.510  1.5480  1.7695 -1.6048
16515TIP3   OH271035   5.056   2.052  11.315  0.1670  0.5232  0.2180
16515TIP3    H171036   5.041   2.073  11.223 -2.4401  0.2704  0.5294
16515TIP3    H271037   4.969   2.028  11.348  0.9333  1.2905  2.9250
16516TIP3   OH271038   3.249   3.316  12.290 -0.0166  0.5292 -0.0580
16516TIP3    H171039   3.172   3.260  12.299 -0.3179  0.8102 -0.8615
16516TIP3    H271040   3.276   3.307  12.199  1.0735  0.2207  0.2904
16517TIP3   OH271041   1.609   3.173   2.508 -0.1926  0.4660 -0.1336
16517TIP3    H171042   1.695   3.201   2.477  0.1286 -0.8081 -0.4269
16517TIP3    H271043   1.626   3.093   2.559 -1.1874  0.2303 -0.1468
16518TIP3   OH271044   1.506   5.596   5.115 -0.7304 -0.3402 -0.0421
16518TIP3    H171045   1.594   5.634   5.121 -0.8072 -0.3709  1.4027
16518TIP3    H271046   1.458   5.658   5.060  0.2232 -0.4036 -0.9697
16519TIP3   OH271047   2.141   5.917   3.631  0.6417 -0.4690  0.2315
16519TIP3    H171048   2.178   5.917   3.719  0.0324 -4.4394  0.5903
16519TIP3    H271049   2.159   5.830   3.598 -2.5105 -0.3110 -2.1059
16520TIP3   OH271050   2.888   3.936  13.834 -0.5992 -0.2821  0.0093
16520TIP3    H171051   2.919   3.849  13.859 -0.7312 -0.4367 -0.3708
16520TIP3    H271052   2.947   3.996  13.879  1.2898 -0.5768 -2.0395
16521TIP3   OH271053   2.769   1.624  14.294  0.0158  0.1351 -0.0597
16521TIP3    H171054   2.814   1.693  14.343  0.3065  0.2092 -0.4266
16521TIP3    H271055   2.750   1.557  14.360  1.4434 -0.2849 -0.0515
16522TIP3   OH271056   6.794   0.968  15.002 -0.0044 -0.2876  0.0676
16522TIP3    H171057   6.818   0.906  15.070 -0.3478 -0.3802  0.1037
16522TIP3    H271058   6.699   0.966  14.999 -0.0049 -0.0590 -0.2080
16523TIP3   OH271059   4.593   1.454  12.230 -0.1210 -1.0547  0.3007
16523TIP3    H171060   4.562   1.387  12.291  0.7756 -0.9769  0.8431
16523TIP3    H271061   4.667   1.495  12.274 -1.7552  1.5293  0.7875
16524TIP3   OH271062   6.417   1.213   2.815  0.4489  0.2920  0.9185
16524TIP3    H171063   6.454   1.133   2.853 -1.0151 -0.0293  1.6936
16524TIP3    H271064   6.471   1.284   2.850  0.1425 -0.1409  2.2639
16525TIP3   OH271065   1.910   2.775  10.520 -0.2121 -0.6572  0.5728
16525TIP3    H171066   1.820   2.787  10.551 -0.0439 -1.5717  1.4511
16525TIP3    H271067   1.902   2.768  10.425 -0.9855  0.0047  0.5824
16526TIP3   OH271068   6.386   4.428   2.741  0.6668 -0.9143 -0.3113
16526TIP3    H171069   6.373   4.347   2.789 -1.6455 -0.5244 -0.2218
16526TIP3    H271070   6.319   4.488   2.775  3.2584  1.5525  0.7130
16527TIP3   OH271071   4.180   3.573   5.369 -0.0767  0.0498 -0.3844
16527TIP3    H171072   4.240   3.605   5.435 -1.4657  0.7463  0.5535
16527TIP3    H271073   4.114   3.642   5.360 -0.5943 -0.5801 -1.5826
16528TIP3   OH271074   5.543   1.299  15.834 -0.4413 -0.0273 -0.1658
16528TIP3    H171075   5.496   1.238  15.891 -1.6454  0.3889 -0.6915
16528TIP3    H271076   5.607   1.342  15.891 -0.9576 -0.3252  0.6462
16529TIP3   OH271077   1.102   4.041  15.404 -0.2757 -0.3381 -0.0645
16529TIP3    H171078   1.191   4.038  15.441  0.3916 -0.1527 -1.5927
16529TIP3    H271079   1.089   4.133  15.381 -0.7389 -0.4284 -0.1541
16530TIP3   OH271080   6.527   5.528   1.829  0.2799  0.2388 -0.2210
16530TIP3    H171081   6.523   5.472   1.752 -0.5305 -0.6692  0.4671
16530TIP3    H271082   6.531   5.467   1.903 -1.0912  1.0839  0.5670
16531TIP3   OH271083   4.484   4.299  12.860 -0.3948 -0.4533 -0.6047
16531TIP3    H171084   4.547   4.275  12.792  1.5468 -1.9163  1.6069
16531TIP3    H271085   4.409   4.241  12.845  0.2794 -1.2008 -1.1390
16532TIP3   OH271086   0.886   4.058   4.306 -0.0517  0.2167 -0.2138
16532TIP3    H171087   0.950   4.129   4.314 -1.7211  1.8051 -0.6765
16532TIP3    H271088   0.927   3.995   4.247  1.0578  1.2471 -0.5562
16533TIP3   OH271089   5.831   0.461  11.099 -0.7452 -0.2597 -0.1653
16533TIP3    H171090   5.839   0.524  11.170 -0.9301 -1.8138  1.2671
16533TIP3    H271091   5.749   0.484  11.055  0.2565  1.8220 -1.0389
16534TIP3   OH271092   1.770   2.687   3.085 -0.5891  0.2495 -0.3082
16534TIP3    H171093   1.834   2.756   3.066 -2.8299  2.3380 -0.5886
16534TIP3    H271094   1.816   2.627   3.144  1.5253  1.8319 -0.2831
16535TIP3   OH271095   0.378   0.392   2.608  0.3988  0.1554  0.1575
16535TIP3    H171096   0.284   0.383   2.623  0.4821 -1.3886 -0.1999
16535TIP3    H271097   0.408   0.453   2.676 -0.8810  0.8004  0.1521
16536TIP3   OH271098   0.243   0.818  15.237 -0.2082 -0.0334 -0.0894
16536TIP3    H171099   0.239   0.805  15.332 -0.3200 -1.2232 -0.2564
16536TIP3    H271100   0.154   0.799  15.207 -0.8181  2.6656 -0.1663
16537TIP3   OH271101   0.967   1.970   1.868 -0.4691 -0.0558 -0.3319
16537TIP3    H171102   0.891   1.943   1.815 -0.4840 -0.5447 -0.0692
16537TIP3    H271103   0.950   1.932   1.955  1.0767 -1.9502 -0.8216
16538TIP3   OH271104   0.457   5.733   5.868 -0.5029 -0.1555  0.0599
16538TIP3    H171105   0.406   5.814   5.871  0.0992  0.1866  2.7385
16538TIP3    H271106   0.457   5.707   5.776 -1.4055  2.4412 -0.7013
16539TIP3   OH271107   1.086   6.394  15.080 -0.0513 -0.5604 -0.0587
16539TIP3    H171108   1.024   6.377  15.151  1.4190  1.3866  1.7337
16539TIP3    H271109   1.143   6.317  15.080 -0.4334 -0.8485  0.4761
16540TIP3   OH271110   1.297   6.158  11.122  0.7065  0.0365  0.1465
16540TIP3    H171111   1.264   6.086  11.068  1.6935 -0.9452  0.8327
16540TIP3    H271112   1.248   6.234  11.092  0.5388 -0.6736 -1.4798
16541TIP3   OH271113   2.625   2.689  11.859 -0.3621  0.1458 -0.3352
16541TIP3    H171114   2.652   2.677  11.949  0.9990  2.7571 -0.3551
16541TIP3    H271115   2.532   2.666  11.859 -0.3801  0.1207  1.7326
16542TIP3   OH271116   3.163   6.605  14.889 -0.6404  0.4510  0.2048
16542TIP3    H171117   3.097   6.554  14.841 -2.2013  2.0537  0.6123
16542TIP3    H271118   3.143   6.589  14.981  0.4710 -0.2107  0.3471
16543TIP3   OH271119   3.439   1.718  11.137 -0.5839  0.5095  0.1775
16543TIP3    H171120   3.424   1.652  11.204  0.0038 -1.6155 -1.7234
16543TIP3    H271121   3.369   1.703  11.073  0.1683  1.0640 -0.7733
16544TIP3   OH271122   1.863   5.967   1.222  0.0967  0.2330  0.2675
16544TIP3    H171123   1.810   5.899   1.182  0.4263  0.2481 -0.1951
16544TIP3    H271124   1.952   5.931   1.222  0.5616  1.3671 -1.5534
16545TIP3   OH271125   3.605   2.970   4.249  0.2463 -0.6052  0.9332
16545TIP3    H171126   3.646   2.921   4.178  0.4815  0.7727  0.1067
16545TIP3    H271127   3.678   2.993   4.307  0.2977 -0.2408  0.7230
16546TIP3   OH271128   1.285   6.406  11.376 -0.2138 -0.1505 -0.1676
16546TIP3    H171129   1.380   6.397  11.375 -0.2285 -0.2471 -1.0815
16546TIP3    H271130   1.267   6.483  11.322 -0.7291 -0.9562 -1.1620
16547TIP3   OH271131   2.525   6.381  13.463  0.7729  0.3837 -0.0693
16547TIP3    H171132   2.576   6.341  13.392  0.1415  0.8311 -0.7777
16547TIP3    H271133   2.466   6.312  13.492  0.5352  0.4256 -0.4578
16548TIP3   OH271134   2.925   5.458  11.408 -0.3343 -0.4329  0.4445
16548TIP3    H171135   2.836   5.487  11.386 -0.7175 -1.3189  0.7815
16548TIP3    H271136   2.951   5.513  11.481  0.3905  1.5582 -1.2496
16549TIP3   OH271137   3.628   6.495   2.642 -0.4919 -0.2094 -0.4282
16549TIP3    H171138   3.655   6.422   2.698  1.3233  0.8898  0.1649
16549TIP3    H271139   3.598   6.562   2.703  2.6849  1.4832 -0.6538
16550TIP3   OH271140   5.091   5.336  12.728  0.7722  0.3684  0.2933
16550TIP3    H171141   5.048   5.411  12.689  0.9371  1.0837  1.4413
16550TIP3    H271142   5.021   5.272  12.741  0.6989  0.1713 -1.0283
16551TIP3   OH271143   0.647   1.288   3.335 -0.5428  0.0808 -0.5073
16551TIP3    H171144   0.577   1.332   3.287 -1.6367 -2.2710 -1.1856
16551TIP3    H271145   0.699   1.245   3.266  0.2155 -0.0659  0.1543
16552TIP3   OH271146   5.591   1.660  15.557 -0.2413  0.1367  0.6564
16552TIP3    H171147   5.657   1.605  15.599 -0.5340 -0.1231  0.7829
16552TIP3    H271148   5.535   1.598  15.509  0.7416  0.5312 -1.0206
16553TIP3   OH271149   6.212   6.245   1.601 -0.5065  0.0735  0.2154
16553TIP3    H171150   6.194   6.158   1.635 -1.4742 -0.1858 -0.9040
16553TIP3    H271151   6.144   6.301   1.638 -1.0020 -0.0225 -0.5472
16554TIP3   OH271152   3.929   0.334  17.240  0.0600 -0.0812 -0.3154
16554TIP3    H171153   3.897   0.256  17.285  0.9124  0.3826  1.1196
16554TIP3    H271154   3.883   0.334  17.156 -1.2699 -1.1478  0.4042
16555TIP3   OH271155   3.249   3.726  16.726  0.0462  0.5409 -0.0906
16555TIP3    H171156   3.267   3.781  16.649 -1.6314 -0.1401 -0.9932
16555TIP3    H271157   3.154   3.714  16.726  0.0625  0.2184  1.8928
16556TIP3   OH271158   1.883   1.710  12.942  0.2415  0.1091  0.4541
16556TIP3    H171159   1.839   1.691  12.859  0.4566 -0.1963  0.4092
16556TIP3    H271160   1.916   1.800  12.931 -0.5667  0.4208  0.5767
16557TIP3   OH271161   5.783   3.291  15.554  0.5451  0.3035 -0.8396
16557TIP3    H171162   5.800   3.243  15.635  0.0234  0.8728 -0.3837
16557TIP3    H271163   5.687   3.298  15.550  0.5168 -0.7967 -2.1417
16558TIP3   OH271164   5.642   2.643  14.780  0.6519  0.7516  0.0840
16558TIP3    H171165   5.677   2.565  14.822 -0.7537 -0.5968 -1.1987
16558TIP3    H271166   5.580   2.679  14.844 -0.8530 -0.8186 -0.4642
16559TIP3   OH271167   4.820   4.698  12.396  0.2541  0.0482 -0.2692
16559TIP3    H171168   4.732   4.730  12.379  0.2935  1.5395  2.0327
16559TIP3    H271169   4.809   4.604  12.411 -0.7659  0.0260 -1.1373
16560TIP3   OH271170   0.065   0.546  15.735  0.4379  0.3736  0.1645
16560TIP3    H171171   0.123   0.622  15.732  1.4526 -0.3616  0.9404
16560TIP3    H271172   0.099   0.492  15.806 -1.8608  0.4504  1.3840
16561TIP3   OH271173   1.857   5.977  15.881  0.0947  0.0206 -0.0604
16561TIP3    H171174   1.798   6.029  15.827  1.5808 -0.3889 -2.1129
16561TIP3    H271175   1.922   5.942  15.820  1.8872 -0.3649  2.0018
16562TIP3   OH271176   3.708   0.432  16.600 -0.2583 -0.3488  0.0105
16562TIP3    H171177   3.669   0.473  16.677  0.8421  1.0387 -0.1588
16562TIP3    H271178   3.757   0.502  16.557 -0.5184 -1.1893 -1.7382
16563TIP3   OH271179   4.956   0.706   5.035 -0.0632 -0.0032 -0.3546
16563TIP3    H171180   4.950   0.774   5.102 -0.3376  0.3669 -0.7527
16563TIP3    H271181   4.915   0.629   5.075 -1.5978  0.6529 -0.6525
16564TIP3   OH271182   2.549   3.910   5.945 -0.0308  0.3387 -0.5074
16564TIP3    H171183   2.510   3.851   6.010 -1.2906 -0.2339 -1.7677
16564TIP3    H271184   2.632   3.869   5.923  0.6063  0.7587  1.0593
16565TIP3   OH271185   5.806   4.766  15.229 -0.0974 -0.0828 -0.1463
16565TIP3    H171186   5.779   4.795  15.142  2.4582  0.8972 -0.6517
16565TIP3    H271187   5.868   4.695  15.213  1.4804  1.0544  0.8188
16566TIP3   OH271188   6.006   3.452   2.013  0.0439  0.2825  0.0340
16566TIP3    H171189   6.052   3.528   1.979  0.4648  0.0934  0.1700
16566TIP3    H271190   5.966   3.483   2.094  0.2124  0.3640  0.0879
16567TIP3   OH271191   3.577   4.827   0.991 -0.6834 -0.3457  0.1070
16567TIP3    H171192   3.516   4.870   1.051  0.3569  0.0454  0.9088
16567TIP3    H271193   3.563   4.734   1.005 -0.7299 -0.2579  0.6791
16568TIP3   OH271194   1.648   3.754   0.325  0.0395 -0.0326 -0.1970
16568TIP3    H171195   1.623   3.674   0.278  0.3628 -0.0930 -0.2680
16568TIP3    H271196   1.743   3.749   0.331  0.1579  0.9077 -1.2015
16569TIP3   OH271197   2.070   1.079   3.791  0.1690  0.0069 -0.0733
16569TIP3    H171198   2.095   1.169   3.771 -1.8387  0.5796 -0.0904
16569TIP3    H271199   2.094   1.067   3.883  1.0219  0.3459 -0.2501
16570TIP3   OH271200   0.609   5.387  16.578  0.9123 -0.4857 -0.4723
16570TIP3    H171201   0.615   5.297  16.545  0.1763 -0.0011 -2.0019
16570TIP3    H271202   0.608   5.378  16.673 -0.7193 -2.2030 -0.6230
16571TIP3   OH271203   1.075   2.929  15.273  0.1652 -0.0296 -0.1838
16571TIP3    H171204   1.084   2.850  15.327 -2.6197  0.1883  0.6768
16571TIP3    H271205   1.102   2.901  15.185 -1.5409 -2.1962 -0.0712
16572TIP3   OH271206   2.965   0.644  13.470  0.1215  0.0833  0.5099
16572TIP3    H171207   2.960   0.563  13.520  1.2016  0.1040  0.6745
16572TIP3    H271208   3.057   0.670  13.476  0.1086  0.4931 -0.8303
16573TIP3   OH271209   4.636   3.733   0.120 -0.6252  0.2266  0.4172
16573TIP3    H171210   4.599   3.821   0.128 -0.0018  0.3796  1.8386
16573TIP3    H271211   4.730   3.746   0.111 -0.8112 -0.1934 -2.6007
16574TIP3   OH271212   5.348   2.398   5.379 -0.6722  0.0003  0.6134
16574TIP3    H171213   5.292   2.372   5.452  0.7506 -0.8297  1.4321
16574TIP3    H271214   5.437   2.373   5.407  0.0236  0.7091 -0.9193
16575TIP3   OH271215   2.199   3.862  13.294 -0.1349  0.5709  0.3989
16575TIP3    H171216   2.281   3.903  13.323  0.8859 -1.4014  0.4194
16575TIP3    H271217   2.184   3.898  13.207  0.1704  1.7676  0.8247
16576TIP3   OH271218   4.102   1.369  14.817 -0.0407 -0.4556 -0.4035
16576TIP3    H171219   4.063   1.291  14.779  0.4743 -0.3985 -1.0514
16576TIP3    H271220   4.189   1.341  14.846 -0.9962 -0.9097  2.1941
16577TIP3   OH271221   0.691   4.760  13.977  0.0270 -0.0521 -0.2874
16577TIP3    H171222   0.711   4.821  14.048 -0.1640  0.1857 -0.4394
16577TIP3    H271223   0.599   4.776  13.957 -0.3491 -1.2238  0.4830
16578TIP3   OH271224   1.141   0.991   5.641  0.1934 -0.6380 -0.1540
16578TIP3    H171225   1.199   0.938   5.587  1.4187  1.0164 -0.5021
16578TIP3    H271226   1.138   0.945   5.725  0.6324 -1.6400 -0.6710
16579TIP3   OH271227   1.573   6.395  11.767 -0.0702 -0.2885  0.3542
16579TIP3    H171228   1.566   6.409  11.861  0.6885 -2.1246  0.7095
16579TIP3    H271229   1.519   6.464  11.728 -1.3748 -0.2634  2.1656
16580TIP3   OH271230   1.562   6.390   4.505 -0.2411 -0.5455 -0.6059
16580TIP3    H171231   1.474   6.387   4.468 -0.1740  1.4582 -0.9978
16580TIP3    H271232   1.598   6.303   4.490 -0.6802 -0.1724 -4.0574
16581TIP3   OH271233   5.874   5.887   0.129  0.7565 -0.5191 -0.4024
16581TIP3    H171234   5.966   5.912   0.138  0.3658  0.5587  0.7329
16581TIP3    H271235   5.832   5.920   0.208 -1.1808  1.7718 -2.2801
16582TIP3   OH271236   1.837   3.942   3.768 -0.0462 -0.1984 -0.0863
16582TIP3    H171237   1.748   3.910   3.751 -0.1249  0.6613 -1.3005
16582TIP3    H271238   1.890   3.862   3.773 -0.5434 -0.6187 -1.3861
16583TIP3   OH271239   6.406   5.434   4.329  0.5440 -0.7542  0.1086
16583TIP3    H171240   6.360   5.513   4.358 -0.2716 -1.0288 -0.4373
16583TIP3    H271241   6.476   5.468   4.273 -0.2600 -0.4497 -0.7273
16584TIP3   OH271242   3.031   2.242   5.185 -0.2566  0.0067 -0.2218
16584TIP3    H171243   3.042   2.218   5.277 -0.8034 -0.8534 -0.3796
16584TIP3    H271244   2.963   2.310   5.185  0.3475  0.6164  0.0889
16585TIP3   OH271245   1.426   2.811  12.982 -0.3848 -0.4526 -0.7680
16585TIP3    H171246   1.437   2.793  13.076 -1.4044 -0.8331 -0.7121
16585TIP3    H271247   1.427   2.907  12.976 -1.0348 -0.4119 -0.2772
16586TIP3   OH271248   0.654   5.092   3.939 -0.6648  0.4722 -0.0947
16586TIP3    H171249   0.681   5.024   3.876  1.4287 -1.3231  2.6115
16586TIP3    H271250   0.728   5.152   3.942 -0.5014  0.2326  1.0178
16587TIP3   OH271251   6.297   1.312   2.580  0.5882 -0.3583 -0.1479
16587TIP3    H171252   6.304   1.238   2.520 -0.4537  0.0619 -0.8012
16587TIP3    H271253   6.344   1.284   2.659 -0.3349 -1.9468 -0.1510
16588TIP3   OH271254   5.729   5.995   0.351  0.4462 -0.1400  0.4453
16588TIP3    H171255   5.749   6.080   0.391 -0.6769  0.5024 -0.3387
16588TIP3    H271256   5.708   5.939   0.426  1.8206  0.0824  1.0199
16589TIP3   OH271257   0.457   3.734   3.085  0.0893  0.1225 -0.0084
16589TIP3    H171258   0.451   3.670   3.156  2.2303 -0.6541 -0.4811
16589TIP3    H271259   0.381   3.790   3.096 -0.9272 -1.5039  1.4155
16590TIP3   OH271260   6.059   6.641   3.886  0.2334 -0.3214 -0.3762
16590TIP3    H171261   5.968   6.619   3.905  0.6127 -0.7780  1.0121
16590TIP3    H271262   6.066   6.638   3.791 -2.3527  4.2747 -0.8543
16591TIP3   OH271263   5.396   1.013   2.934  0.3089 -0.5852  0.0377
16591TIP3    H171264   5.444   0.955   2.876 -0.7616  0.6455 -2.1517
16591TIP3    H271265   5.458   1.083   2.954  0.4210 -0.5898 -0.2899
16592TIP3   OH271266   2.831   0.823   6.795 -0.2093 -0.5144 -0.5554
16592TIP3    H171267   2.807   0.732   6.809 -0.4457 -0.7079 -2.1224
16592TIP3    H271268   2.923   0.821   6.769  0.2289 -0.1679  0.9521
16593TIP3   OH271269   3.330   3.743  16.118 -0.0318  0.4693 -0.5369
16593TIP3    H171270   3.271   3.672  16.142  0.2749  0.4488  0.1841
16593TIP3    H271271   3.417   3.712  16.143  0.1517  0.9315 -0.5911
16594TIP3   OH271272   2.380   4.431  11.643 -0.2638  0.1099  0.2372
16594TIP3    H171273   2.457   4.487  11.657 -0.6005  0.8110 -0.6663
16594TIP3    H271274   2.313   4.490  11.610 -0.6226 -0.8243 -0.7254
16595TIP3   OH271275   6.595   6.212  15.479 -1.2409  0.2406 -0.0873
16595TIP3    H171276   6.618   6.252  15.563  1.1300 -0.6509 -0.2703
16595TIP3    H271277   6.573   6.121  15.501  0.0461 -0.1775 -0.5111
16596TIP3   OH271278   4.349   3.277   2.443  0.0963  0.8925 -0.0625
16596TIP3    H171279   4.424   3.230   2.406 -0.1220  0.0321  0.5715
16596TIP3    H271280   4.360   3.270   2.538 -2.3001 -1.7853  0.0792
16597TIP3   OH271281   3.795   2.397   2.878  0.2972 -0.4183  0.0853
16597TIP3    H171282   3.826   2.389   2.968  0.7920  0.7215  0.0189
16597TIP3    H271283   3.795   2.491   2.860 -2.2609 -0.4479 -0.2445
16598TIP3   OH271284   1.986   0.333  16.785 -0.1732 -0.1397 -0.0984
16598TIP3    H171285   1.909   0.308  16.733 -0.4360  0.8251 -0.1957
16598TIP3    H271286   1.990   0.428  16.776  1.6627 -0.2785 -0.9650
16599TIP3   OH271287   4.418   4.386  11.139  0.8244  0.3804 -0.4198
16599TIP3    H171288   4.428   4.351  11.228  0.8333  0.4166 -0.4060
16599TIP3    H271289   4.324   4.385  11.123  0.8857 -0.5543 -0.7804
16600TIP3   OH271290   0.954   1.723   5.558 -0.5763 -0.6974  0.0893
16600TIP3    H171291   0.990   1.721   5.647 -1.6908 -1.1614  0.5354
16600TIP3    H271292   0.978   1.638   5.521 -0.6895 -0.7654  0.1729
16601TIP3   OH271293   3.250   2.485   2.313 -0.2673  0.3918  0.0346
16601TIP3    H171294   3.177   2.427   2.293 -0.2785 -0.8932  3.4883
16601TIP3    H271295   3.328   2.437   2.283 -0.3782 -0.9306  1.7891
16602TIP3   OH271296   6.364   2.663  14.455 -0.1280 -0.5102 -0.2744
16602TIP3    H171297   6.383   2.598  14.523 -0.5172  0.9317  1.2302
16602TIP3    H271298   6.309   2.616  14.392  0.1400 -1.8272  0.4552
16603TIP3   OH271299   0.982   5.115  15.459 -0.1188  0.4034  0.0793
16603TIP3    H171300   0.944   5.063  15.530  0.7011  0.3051  0.4564
16603TIP3    H271301   0.933   5.197  15.461 -0.9366 -0.0774 -0.0528
16604TIP3   OH271302   1.285   1.246   4.013  0.3827 -0.1355  0.0604
16604TIP3    H171303   1.215   1.268   4.075  0.1719 -1.3796  0.2766
16604TIP3    H271304   1.274   1.308   3.941 -1.8955 -1.2893 -0.6208
16605TIP3   OH271305   2.363   2.327  14.820  0.5955 -0.2341 -0.3441
16605TIP3    H171306   2.271   2.301  14.810  0.1546  0.2847  2.1173
16605TIP3    H271307   2.405   2.297  14.739 -1.8799  0.1618 -1.8413
16606TIP3   OH271308   3.212   4.994  15.843  0.6670  0.2306 -0.4278
16606TIP3    H171309   3.295   4.948  15.831  0.4211 -0.4448  0.4199
16606TIP3    H271310   3.179   4.963  15.927 -0.1168  1.0141 -0.4347
16607TIP3   OH271311   2.537   1.633   6.589  0.2096  0.3158 -0.5478
16607TIP3    H171312   2.562   1.726   6.585  0.1930  0.4098  0.9511
16607TIP3    H271313   2.443   1.634   6.607 -0.0303 -0.0069 -1.7651
16608TIP3   OH271314   1.893   0.573   5.510  0.7020  0.2122  0.6310
16608TIP3    H171315   1.966   0.632   5.487  1.6934 -1.3707 -0.3309
16608TIP3    H271316   1.930   0.516   5.577  0.2231 -0.3575  0.4028
16609TIP3   OH271317   3.537   3.092   5.787  0.2961  0.1001  0.6515
16609TIP3    H171318   3.466   3.154   5.770 -0.1896 -0.1075  1.8592
16609TIP3    H271319   3.617   3.145   5.779  0.0062  0.3874 -0.4739
16610TIP3   OH271320   1.938   0.813   4.155  0.4534 -0.7308  0.1455
16610TIP3    H171321   1.871   0.880   4.140  0.2502 -0.6825  1.2365
16610TIP3    H271322   1.889   0.732   4.168  0.6679 -0.9530 -0.4094
16611TIP3   OH271323   3.773   5.343  12.136 -0.4399 -0.1383 -0.0615
16611TIP3    H171324   3.711   5.291  12.187 -1.3927  1.3429  0.3071
16611TIP3    H271325   3.859   5.317  12.170 -1.0621  1.2837  2.7987
16612TIP3   OH271326   2.018   3.835   4.337  0.3255 -0.1611  0.1534
16612TIP3    H171327   2.106   3.800   4.355 -0.8832 -2.4985  1.8152
16612TIP3    H271328   1.983   3.777   4.269 -0.0816  0.5075 -0.2086
16613TIP3   OH271329   1.080   6.411  13.602 -0.6846  0.4842  0.4742
16613TIP3    H171330   1.022   6.405  13.678  1.3478 -0.3953  1.9869
16613TIP3    H271331   1.129   6.492  13.615 -2.6436  2.1090 -1.6495
16614TIP3   OH271332   2.030   5.672   0.188  0.1211  0.3543 -0.3548
16614TIP3    H171333   1.986   5.711   0.263  1.1619  1.9752 -0.5641
16614TIP3    H271334   2.084   5.602   0.225 -1.8211 -0.9962  0.0068
16615TIP3   OH271335   1.653   5.048   0.587  0.1108  0.2039  0.4005
16615TIP3    H171336   1.590   4.984   0.553 -0.3049  0.8607 -0.0917
16615TIP3    H271337   1.718   4.996   0.634  0.1741 -0.6349 -0.6075
16616TIP3   OH271338   5.009   0.411   6.112  0.4972  0.0458  0.4520
16616TIP3    H171339   5.040   0.424   6.202  0.7921  1.6726  0.1204
16616TIP3    H271340   5.036   0.321   6.091 -0.5483 -0.7394  2.3568
16617TIP3   OH271341   1.824   4.854   0.165  0.4454  0.3639  0.4918
16617TIP3    H171342   1.786   4.821   0.246 -0.1641  0.3258  0.1963
16617TIP3    H271343   1.883   4.924   0.193  1.1315 -0.4293  1.0530
16618TIP3   OH271344   2.017   1.956   2.585  0.5716 -0.2805 -0.4244
16618TIP3    H171345   2.093   1.909   2.551  0.7490 -0.3844  0.1111
16618TIP3    H271346   2.054   2.032   2.630  0.4027 -0.7027  0.4397
16619TIP3   OH271347   2.204   6.190   4.199  0.1788  0.5204  0.3324
16619TIP3    H171348   2.250   6.198   4.116 -2.1722  1.5366 -0.9300
16619TIP3    H271349   2.255   6.243   4.261 -0.1677  2.9902 -1.4208
16620TIP3   OH271350   2.009   2.939   2.259  0.3864 -0.1663  0.4264
16620TIP3    H171351   1.999   3.033   2.249  1.4896 -0.0746  0.0733
16620TIP3    H271352   2.101   2.922   2.237  0.2545 -1.2921  0.6929
16621TIP3   OH271353   6.670   6.299  16.851  0.0821 -0.4776  0.4247
16621TIP3    H171354   6.625   6.382  16.865 -1.1133 -1.0902  0.2989
16621TIP3    H271355   6.648   6.273  16.762  0.6519 -0.8088  0.3743
16622TIP3   OH271356   5.338   6.446   0.786 -0.2892  0.6543 -0.1587
16622TIP3    H171357   5.284   6.368   0.793  0.8480 -0.3415 -1.9783
16622TIP3    H271358   5.333   6.487   0.872  0.4594 -2.3454  1.3821
16623TIP3   OH271359   4.880   1.158  13.213 -0.2419 -0.0710  0.2754
16623TIP3    H171360   4.864   1.072  13.250  0.4556 -1.0042 -1.5344
16623TIP3    H271361   4.975   1.169  13.218 -0.5265  1.8696  3.1728
16624TIP3   OH271362   5.775   2.013  15.234  0.8552  0.1607 -0.3508
16624TIP3    H171363   5.718   2.057  15.298  2.0851 -1.0722  1.6195
16624TIP3    H271364   5.813   2.085  15.183  1.0848  1.2790  1.3513
16625TIP3   OH271365   3.439   0.549  14.370 -0.3003  0.0227  0.0307
16625TIP3    H171366   3.380   0.614  14.409  0.1741  0.4932 -0.0214
16625TIP3    H271367   3.526   0.575  14.402 -0.0640 -0.3508 -0.3168
16626TIP3   OH271368   0.511   3.068  12.454  0.1778 -0.3602 -1.2662
16626TIP3    H171369   0.578   3.124  12.413  0.0145  1.8138  1.3003
16626TIP3    H271370   0.560   3.006  12.508  0.1833  1.7393  1.2391
16627TIP3   OH271371   3.939   6.291  11.981 -0.1357  0.1816  0.7094
16627TIP3    H171372   3.876   6.362  11.996 -0.7118 -0.0607 -0.4961
16627TIP3    H271373   3.887   6.221  11.942  0.8141 -0.1495  0.0206
16628TIP3   OH271374   1.153   2.442   1.988  0.5439  0.3101  0.0123
16628TIP3    H171375   1.120   2.527   1.959  0.6834  0.2797 -0.2333
16628TIP3    H271376   1.110   2.379   1.930 -1.0804  0.0566  1.4538
16629TIP3   OH271377   3.443   4.532  12.332  0.2249 -0.7160 -0.0538
16629TIP3    H171378   3.434   4.577  12.248  1.7554 -0.1782  0.0631
16629TIP3    H271379   3.510   4.465  12.317 -0.8181 -1.8505  0.2434
16630TIP3   OH271380   5.121   0.063  10.774  0.2760  0.2520  0.2193
16630TIP3    H171381   5.190   0.015  10.727 -0.1390  0.1422 -0.2894
16630TIP3    H271382   5.131   0.154  10.747 -0.8776 -0.0317 -1.2432
16631TIP3   OH271383   6.447   1.049  14.767  0.4610  0.3854  0.3939
16631TIP3    H171384   6.493   1.062  14.850  1.4299 -0.8757  0.0657
16631TIP3    H271385   6.466   1.128  14.717  0.5482  0.7871  1.0495
16632TIP3   OH271386   3.943   1.649   4.986  0.3094  1.3917  0.0063
16632TIP3    H171387   3.858   1.629   5.026  0.6972  0.5336  0.3985
16632TIP3    H271388   3.979   1.564   4.961  1.2591  1.7236  0.2424
16633TIP3   OH271389   1.247   2.824   5.213  0.0687 -0.0525 -0.1811
16633TIP3    H171390   1.286   2.908   5.189  0.7281 -0.6793 -1.3436
16633TIP3    H271391   1.178   2.847   5.275 -0.1138  1.3926 -0.8919
16634TIP3   OH271392   2.588   2.217  12.676  0.0790 -0.0161 -0.0562
16634TIP3    H171393   2.631   2.302  12.684  1.4625 -0.7741  0.8751
16634TIP3    H271394   2.527   2.227  12.602 -1.2107  2.3529  1.2832
16635TIP3   OH271395   5.354   3.482  15.466 -0.4295  0.7985 -0.5745
16635TIP3    H171396   5.359   3.577  15.455 -0.1536  0.9511  0.7375
16635TIP3    H271397   5.319   3.470  15.554  2.9484 -0.2878  0.7194
16636TIP3   OH271398   1.726   3.269  17.268 -0.1520  0.0714 -0.1757
16636TIP3    H171399   1.788   3.334  17.234 -1.5737  0.4585 -2.1071
16636TIP3    H271400   1.776   3.187  17.270  1.4177  1.0334  1.5381
16637TIP3   OH271401   5.563   6.716   1.905  0.0781  0.5388  0.0285
16637TIP3    H171402   5.609   6.744   1.826 -1.0483  0.8405 -0.5384
16637TIP3    H271403   5.627   6.664   1.953  1.1443  1.3148 -0.5231
16638TIP3   OH271404   1.362   1.996   2.088 -0.3825 -0.5667  0.2696
16638TIP3    H171405   1.358   2.090   2.074 -4.1521 -1.1232 -3.3660
16638TIP3    H271406   1.391   1.960   2.004 -1.6919 -2.7818  0.7313
16639TIP3   OH271407   0.428   3.369  15.480  0.0324  0.0115  0.5120
16639TIP3    H171408   0.467   3.390  15.395 -0.1863 -2.2297 -0.1616
16639TIP3    H271409   0.334   3.379  15.466 -0.0246 -0.6991  0.4010
16640TIP3   OH271410   0.205   3.987  12.616 -0.1957 -0.2601  0.1196
16640TIP3    H171411   0.136   4.039  12.573 -1.0679 -0.6182  1.0669
16640TIP3    H271412   0.285   4.037  12.601 -0.5070 -0.2486 -1.7340
16641TIP3   OH271413   1.069   2.189   4.294 -0.1833 -0.8943 -0.2898
16641TIP3    H171414   1.119   2.150   4.365  2.1914 -0.1743 -1.5147
16641TIP3    H271415   1.067   2.121   4.226  2.0895  0.2581 -1.5659
16642TIP3   OH271416   0.702   6.299  14.102 -0.0270  0.1416 -0.0539
16642TIP3    H171417   0.609   6.293  14.121  0.0460  1.3915  0.7562
16642TIP3    H271418   0.740   6.219  14.139 -0.4655  0.6786  1.5748
16643TIP3   OH271419   2.280   6.507  16.856 -0.4834 -0.2718  0.4468
16643TIP3    H171420   2.364   6.553  16.863  0.0337 -1.1101 -0.0648
16643TIP3    H271421   2.257   6.485  16.946 -0.4407  0.4685  0.6429
16644TIP3   OH271422   3.265   6.670   3.817 -0.5089  0.2973  0.2308
16644TIP3    H171423   3.286   6.648   3.726 -1.2042  0.1261  0.1077
16644TIP3    H271424   3.305   6.601   3.869  0.3428  0.6831  0.0916
16645TIP3   OH271425   2.331   4.201   3.671  0.1283 -0.4980 -0.5263
16645TIP3    H171426   2.258   4.181   3.613 -0.3281  1.8545 -0.7953
16645TIP3    H271427   2.339   4.296   3.668  1.6545 -0.5353  1.3876
16646TIP3   OH271428   5.930   2.802  12.762  0.9491  0.3430 -0.1379
16646TIP3    H171429   5.922   2.795  12.857  0.3051 -0.0106 -0.2197
16646TIP3    H271430   5.920   2.712  12.730 -0.4964  0.6880 -0.6641
16647TIP3   OH271431   1.266   2.028  16.234 -0.2951  0.4386 -0.9853
16647TIP3    H171432   1.298   2.021  16.144 -0.1348 -0.3086 -0.8728
16647TIP3    H271433   1.342   2.007  16.289 -0.1114  1.8916 -0.6387
16648TIP3   OH271434   0.508   3.872  12.553 -0.4137  0.1615  0.6395
16648TIP3    H171435   0.540   3.898  12.639  0.8499 -0.1686  0.2824
16648TIP3    H271436   0.534   3.943  12.495  0.9880 -0.7923  0.0797
16649TIP3   OH271437   6.225   0.088  12.373  0.3473 -1.0084 -0.0309
16649TIP3    H171438   6.148   0.047  12.333 -0.3802  0.4816 -0.1833
16649TIP3    H271439   6.299   0.038  12.338 -0.5477 -2.6095  0.3020
16650TIP3   OH271440   4.662   5.255   1.680 -0.3986  0.3192  0.2686
16650TIP3    H171441   4.643   5.349   1.674  1.9440  0.8820  1.1873
16650TIP3    H271442   4.666   5.237   1.773  1.1693 -0.2388  0.1105
16651TIP3   OH271443   4.920   2.106   3.012  0.5507  0.0922 -0.0032
16651TIP3    H171444   5.000   2.053   3.009  0.1505 -0.4664 -1.3177
16651TIP3    H271445   4.951   2.196   3.021  1.2696 -0.2467  1.0627
16652TIP3   OH271446   4.226   2.304   0.699 -0.3543  0.2136  0.0273
16652TIP3    H171447   4.185   2.347   0.624 -1.0249  1.4008  1.0704
16652TIP3    H271448   4.155   2.294   0.762  0.3638 -0.1791  0.7731
16653TIP3   OH271449   3.061   1.115  13.062 -0.6587  0.4933 -0.7118
16653TIP3    H171450   2.969   1.133  13.082 -0.1214  2.3270  0.2751
16653TIP3    H271451   3.066   1.120  12.967 -1.4162  1.2982 -0.7216
16654TIP3   OH271452   3.831   2.353   5.192  0.7082  0.3626  0.4380
16654TIP3    H171453   3.797   2.339   5.104 -1.4498  2.5992  0.8806
16654TIP3    H271454   3.788   2.286   5.246 -0.7969  1.3378  0.4593
16655TIP3   OH271455   3.386   2.060  12.799  0.5086 -0.2902  0.1179
16655TIP3    H171456   3.367   2.037  12.708 -0.8053 -0.7290  0.4894
16655TIP3    H271457   3.437   1.986  12.833 -2.0195 -1.7938  0.7399
16656TIP3   OH271458   2.673   4.733  12.445  0.3551  0.0866 -0.5631
16656TIP3    H171459   2.661   4.816  12.493  0.8760 -0.7604  1.0541
16656TIP3    H271460   2.602   4.677  12.478  0.6312 -0.4495 -0.8893
16657TIP3   OH271461   1.252   2.151  15.928  0.0436 -0.0294  0.2458
16657TIP3    H171462   1.206   2.199  15.997 -0.0347 -0.7355  0.6883
16657TIP3    H271463   1.197   2.074  15.912 -1.0216  1.1234 -2.0190
16658TIP3   OH271464   4.387   3.035  11.835 -0.3618  0.2601  0.2561
16658TIP3    H171465   4.443   3.107  11.864 -2.1278  1.3962  0.9649
16658TIP3    H271466   4.431   3.000  11.758 -0.3318  3.2828 -1.1908
16659TIP3   OH271467   4.065   5.136  16.089 -0.2136 -0.3396  0.8537
16659TIP3    H171468   4.100   5.213  16.135 -2.1271  0.5797  0.8168
16659TIP3    H271469   4.036   5.170  16.005 -2.0903 -0.8829  1.2657
16660TIP3   OH271470   6.585   1.442   0.784 -0.1375  0.3572  0.4984
16660TIP3    H171471   6.547   1.355   0.792 -0.1002  0.4984  2.2541
16660TIP3    H271472   6.517   1.501   0.816  0.1658  0.9137  0.1284
16661TIP3   OH271473   6.154   2.110  13.104  0.4239 -0.0996 -0.0975
16661TIP3    H171474   6.160   2.026  13.058  0.0280 -0.9216  1.2874
16661TIP3    H271475   6.070   2.147  13.076  1.0926  0.3442 -1.5300
16662TIP3   OH271476   1.261   0.460  15.777  0.4013 -0.9055 -0.1178
16662TIP3    H171477   1.262   0.368  15.801 -0.3601 -0.7441  0.5681
16662TIP3    H271478   1.180   0.494  15.816  0.9748  0.1804  0.1514
16663TIP3   OH271479   1.108   0.860  15.527 -0.7050 -0.1609  0.4974
16663TIP3    H171480   1.097   0.924  15.597 -0.3534  1.8228 -1.1983
16663TIP3    H271481   1.106   0.913  15.447  2.2754 -1.9699 -0.8203
16664TIP3   OH271482   3.733   2.029  12.007 -0.6341  0.4298 -0.0399
16664TIP3    H171483   3.657   1.982  12.042 -0.5914  0.5105  0.1590
16664TIP3    H271484   3.741   1.997  11.917 -2.1554  1.9577 -0.7429
16665TIP3   OH271485   1.925   3.378  12.269 -0.5085  0.1400  0.1639
16665TIP3    H171486   2.007   3.397  12.224 -0.5007  1.2095  0.6274
16665TIP3    H271487   1.952   3.358  12.359 -0.5279 -1.9373 -0.2717
16666TIP3   OH271488   1.362   2.639  10.831  0.7758  0.2136 -0.1280
16666TIP3    H171489   1.288   2.654  10.771  0.0982 -1.0917  0.3505
16666TIP3    H271490   1.405   2.561  10.796  3.2994  2.2147 -1.6951
16667TIP3   OH271491   5.714   1.809  15.840 -0.7373  0.5843  0.3807
16667TIP3    H171492   5.779   1.869  15.879  2.4774 -1.2598 -1.8640
16667TIP3    H271493   5.740   1.803  15.748 -1.6629 -3.3673  0.2890
16668TIP3   OH271494   1.365   3.291   3.629  0.2495 -0.4369  0.0176
16668TIP3    H171495   1.322   3.260   3.709 -0.0459  0.0137  0.0385
16668TIP3    H271496   1.458   3.281   3.646  0.1433 -2.1270 -0.3067
16669TIP3   OH271497   0.232   3.110   2.070 -0.3025 -0.2582  0.5597
16669TIP3    H171498   0.288   3.091   2.145 -0.7280 -0.5613  0.8016
16669TIP3    H271499   0.275   3.065   1.997 -0.0186 -0.1648  0.6693
16670TIP3   OH271500   2.847   0.655   2.643 -0.3596 -1.1011  0.0699
16670TIP3    H171501   2.755   0.678   2.650 -0.1867 -0.7023  1.0677
16670TIP3    H271502   2.855   0.572   2.690  0.1563 -0.1423  1.7108
16671TIP3   OH271503   6.375   2.638  15.243  0.4076 -0.1181  0.0320
16671TIP3    H171504   6.378   2.732  15.224  0.9543 -0.1632 -0.1389
16671TIP3    H271505   6.361   2.632  15.337 -0.2093  0.1314 -0.0445
16672TIP3   OH271506   2.775   3.734   0.927 -0.9259 -0.1633  0.4455
16672TIP3    H171507   2.831   3.688   0.990  0.0075 -0.8031 -0.8293
16672TIP3    H271508   2.722   3.793   0.981 -0.2118 -0.7654  1.8381
16673TIP3   OH271509   3.401   3.990   4.521 -0.0063  0.3409  0.3942
16673TIP3    H171510   3.326   3.941   4.489 -0.4934  0.6337  1.0870
16673TIP3    H271511   3.450   3.926   4.573  0.5931 -0.0346 -0.6012
16674TIP3   OH271512   6.587   4.641   2.716  0.4500  0.1356  0.3198
16674TIP3    H171513   6.623   4.598   2.638 -0.8772  0.0097 -0.2218
16674TIP3    H271514   6.539   4.573   2.762  1.5835  0.1030  1.4949
16675TIP3   OH271515   2.901   1.560   5.344  0.0192 -0.5614  0.1983
16675TIP3    H171516   2.973   1.543   5.283  0.2813 -0.5746  0.5112
16675TIP3    H271517   2.939   1.546   5.431 -0.0873  0.4314  0.4118
16676TIP3   OH271518   3.488   2.401  10.778 -0.1060 -0.0551  0.3574
16676TIP3    H171519   3.502   2.483  10.730 -0.0556  0.9153  2.0139
16676TIP3    H271520   3.574   2.380  10.814 -0.4754  0.0419  1.3031
16677TIP3   OH271521   4.366   2.778   0.128  0.5439  0.0966  0.0733
16677TIP3    H171522   4.293   2.744   0.180 -0.3092 -0.1006 -1.2251
16677TIP3    H271523   4.374   2.869   0.154 -0.2707  0.1553  0.1278
16678TIP3   OH271524   4.818   6.741   1.036 -0.6840 -0.3718 -0.1577
16678TIP3    H171525   4.819   6.649   1.008 -0.4193 -0.4817  0.2024
16678TIP3    H271526   4.874   6.786   0.973 -1.5452 -0.2928 -0.8782
16679TIP3   OH271527   0.130   1.792   3.821 -0.0627  0.7440 -0.0752
16679TIP3    H171528   0.197   1.780   3.754 -0.1681  1.2645 -0.2730
16679TIP3    H271529   0.104   1.703   3.845  1.1883  0.5295  0.4936
16680TIP3   OH271530   0.941   5.463  14.936 -0.5234 -0.1256  0.3801
16680TIP3    H171531   0.964   5.370  14.938  1.5630  0.3694  1.2319
16680TIP3    H271532   1.025   5.508  14.923 -1.5862  1.6127 -0.7027
16681TIP3   OH271533   0.957   6.303  12.493 -0.7139  0.1109  0.2436
16681TIP3    H171534   1.028   6.265  12.544 -0.2704  0.6749  0.0575
16681TIP3    H271535   0.958   6.255  12.411  0.1423  0.8254 -0.1693
16682TIP3   OH271536   5.682   1.603  13.527 -0.4296  0.8187  0.0095
16682TIP3    H171537   5.696   1.508  13.526 -1.8862  0.5890 -2.2299
16682TIP3    H271538   5.769   1.640  13.542  0.0008 -0.8601  1.8986
16683TIP3   OH271539   4.997   4.185   3.672 -0.6202  0.1333  0.7145
16683TIP3    H171540   4.986   4.249   3.743  1.7407  0.5256  0.7589
16683TIP3    H271541   5.002   4.239   3.593  1.8922  0.0606  0.8063
16684TIP3   OH271542   5.128   1.153  11.377  0.0278  0.2944  0.4626
16684TIP3    H171543   5.065   1.224  11.392  0.3308 -0.0324  3.7916
16684TIP3    H271544   5.076   1.082  11.341 -1.0082  0.9593  0.6163
16685TIP3   OH271545   2.798   3.055  14.026  0.7794 -0.0954  0.3178
16685TIP3    H171546   2.710   3.039  13.992 -0.2661  4.5092  0.5648
16685TIP3    H271547   2.856   3.037  13.952 -0.5980 -0.6884 -0.6364
16686TIP3   OH271548   3.290   3.467   0.168 -0.3569  0.3524 -0.3411
16686TIP3    H171549   3.213   3.499   0.121  1.2410  2.7337 -1.4068
16686TIP3    H271550   3.333   3.408   0.106 -0.9669 -0.5239  0.0470
16687TIP3   OH271551   5.343   3.363  16.959 -0.5084 -0.1672 -0.7631
16687TIP3    H171552   5.396   3.372  17.038 -2.2230 -0.6347  0.4791
16687TIP3    H271553   5.400   3.392  16.888  1.1045  0.1348  0.6274
16688TIP3   OH271554   1.325   5.950   2.406 -0.2965 -0.0525  0.2076
16688TIP3    H171555   1.276   5.869   2.393 -0.8764  0.6041 -1.9386
16688TIP3    H271556   1.262   6.019   2.391  1.3530  0.8109 -3.3481
16689TIP3   OH271557   6.681   4.278  14.528  0.6343 -0.4766  0.0401
16689TIP3    H171558   6.709   4.300  14.439  0.8715 -0.2327  0.1736
16689TIP3    H271559   6.696   4.184  14.535  0.7900 -0.4653 -0.1177
16690TIP3   OH271560   2.031   4.441  12.998  0.0991  0.2838  0.1482
16690TIP3    H171561   1.938   4.461  13.009  0.4062  0.8432  1.8115
16690TIP3    H271562   2.064   4.432  13.087  1.7240  0.4498 -0.4339
16691TIP3   OH271563   5.353   6.151  13.731  0.0557 -0.1870 -0.6148
16691TIP3    H171564   5.427   6.110  13.686  0.6667  1.2059 -0.8936
16691TIP3    H271565   5.392   6.198  13.804 -0.4435  1.3455 -1.3218
16692TIP3   OH271566   1.498   6.583   2.050 -0.1939 -0.3908  0.4432
16692TIP3    H171567   1.561   6.646   2.083 -1.2402  1.4173 -0.9225
16692TIP3    H271568   1.514   6.581   1.955  2.1608 -4.7880  0.7630
16693TIP3   OH271569   3.108   4.303   3.308 -0.1616 -0.1378 -0.0730
16693TIP3    H171570   3.132   4.385   3.266 -0.6187  1.0147  1.8488
16693TIP3    H271571   3.027   4.276   3.263  0.4772 -0.0219 -1.3168
16694TIP3   OH271572   3.381   4.288  12.560  0.1653  0.3677 -0.3449
16694TIP3    H171573   3.444   4.216  12.554 -0.2554 -0.2493  2.1484
16694TIP3    H271574   3.310   4.263  12.501 -0.8360 -2.1704  1.8600
16695TIP3   OH271575   6.358   5.931  15.905 -0.0110  0.3408 -0.5434
16695TIP3    H171576   6.434   5.873  15.906  0.3423  0.7944  0.5822
16695TIP3    H271577   6.363   5.977  15.821  0.0080 -0.8672 -1.2007
16696TIP3   OH271578   6.466   2.090   6.186 -0.1463 -0.4850  1.0291
16696TIP3    H171579   6.395   2.028   6.198 -0.2760 -0.3929  0.7209
16696TIP3    H271580   6.453   2.127   6.099 -0.7895  0.8891  1.6820
16697TIP3   OH271581   2.099   4.445  17.057  0.2315  0.3639  0.1172
16697TIP3    H171582   2.154   4.369  17.038  0.3832  0.0715  1.6234
16697TIP3    H271583   2.065   4.472  16.972  0.4820 -1.1639 -0.4910
16698TIP3   OH271584   3.875   4.875  12.695  0.3743 -0.5234  0.3531
16698TIP3    H171585   3.879   4.970  12.683 -0.5763 -0.5039  0.1751
16698TIP3    H271586   3.964   4.845  12.680  0.7550  0.3893  0.7685
16699TIP3   OH271587   2.872   4.889   5.763 -0.1742  0.3081  0.3320
16699TIP3    H171588   2.842   4.931   5.844 -1.7365  0.6914 -0.4194
16699TIP3    H271589   2.833   4.942   5.693 -0.7093 -1.3614 -0.6486
16700TIP3   OH271590   1.913   4.791   6.815 -0.0162 -0.7663 -0.0539
16700TIP3    H171591   1.840   4.845   6.847 -0.7639 -1.7903 -0.0106
16700TIP3    H271592   1.958   4.847   6.752 -0.1007  0.3216  0.8434
16701TIP3   OH271593   0.957   6.405  14.376  0.2257 -0.0796 -0.4503
16701TIP3    H171594   1.025   6.340  14.358  0.5092 -0.2362  1.1249
16701TIP3    H271595   0.890   6.358  14.425  0.4339  0.8105  0.7014
16702TIP3   OH271596   5.937   1.792  14.582  0.0496 -0.5910  0.0169
16702TIP3    H171597   5.978   1.860  14.636 -1.7304  0.3423  0.2678
16702TIP3    H271598   5.975   1.803  14.495  0.4861  0.0994  0.2934
16703TIP3   OH271599   1.992   6.292  11.699 -0.5442  0.0250  0.2702
16703TIP3    H171600   2.065   6.297  11.761 -0.8349  1.3050  0.5150
16703TIP3    H271601   1.998   6.203  11.663  1.1565  0.1110  0.2632
16704TIP3   OH271602   2.725   5.935   1.548 -0.2324  0.1972 -0.0619
16704TIP3    H171603   2.673   6.003   1.505 -1.7234 -0.5582  0.5076
16704TIP3    H271604   2.759   5.882   1.475 -0.0653  0.8349 -0.4507
16705TIP3   OH271605   3.633   0.182   4.915 -0.5494  0.3232 -0.0113
16705TIP3    H171606   3.600   0.138   4.837  0.7277 -0.4497 -0.1337
16705TIP3    H271607   3.626   0.276   4.895 -0.4309  0.1350 -0.9642
16706TIP3   OH271608   3.426   5.795   6.394 -0.3716 -0.0506  0.3645
16706TIP3    H171609   3.501   5.763   6.444 -0.4684  0.0402  0.5677
16706TIP3    H271610   3.369   5.837   6.459  0.8047  2.5350 -0.2053
16707TIP3   OH271611   5.944   6.712   4.200 -0.7602 -0.1975 -0.0829
16707TIP3    H171612   5.994   6.768   4.259 -0.1576 -0.4733 -0.3216
16707TIP3    H271613   5.878   6.672   4.255 -0.1648 -0.4987  0.4221
16708TIP3   OH271614   3.511   5.085   3.516 -0.1556 -0.2323  0.2551
16708TIP3    H171615   3.589   5.120   3.557  0.2753 -1.1570  0.2446
16708TIP3    H271616   3.465   5.161   3.482 -0.1557  0.4743  1.8114
16709TIP3   OH271617   4.563   4.750  12.402  0.8318  0.1129 -0.2587
16709TIP3    H171618   4.555   4.841  12.431  1.4598  0.3719 -0.8796
16709TIP3    H271619   4.472   4.719  12.398  0.6081  0.7270 -0.0835
16710TIP3   OH271620   4.234   2.576  14.157  0.1847 -0.0621  0.8262
16710TIP3    H171621   4.308   2.632  14.180 -0.3128  0.3825  1.3685
16710TIP3    H271622   4.172   2.635  14.114  0.6383 -0.6649 -0.6899
16711TIP3   OH271623   4.278   2.086  10.641 -0.2598 -0.1493  0.0598
16711TIP3    H171624   4.289   2.003  10.596 -0.5932 -0.1690  0.0090
16711TIP3    H271625   4.239   2.144  10.576 -0.4600 -0.0903  0.2285
16712TIP3   OH271626   1.893   2.836  11.452 -0.6511  0.1003  0.2972
16712TIP3    H171627   1.873   2.908  11.392  2.3973 -0.0506 -0.9759
16712TIP3    H271628   1.843   2.762  11.417 -1.0193  0.6907 -0.4659
16713TIP3   OH271629   0.038   5.391  16.231  0.4169 -0.2131 -0.0043
16713TIP3    H171630   0.118   5.343  16.253  1.0522  0.6101 -0.5217
16713TIP3    H271631   0.025   5.375  16.138  0.0199 -0.2579  0.0581
16714TIP3   OH271632   5.274   3.905  12.571  0.0938 -0.3595 -0.4187
16714TIP3    H171633   5.194   3.867  12.535  0.0327  0.5999 -1.3291
16714TIP3    H271634   5.244   3.982  12.620  0.2010 -1.5156  1.5037
16715TIP3   OH271635   2.610   0.190   2.631  0.8297 -0.5710 -0.2036
16715TIP3    H171636   2.588   0.224   2.544  0.2840 -0.8450 -0.1739
16715TIP3    H271637   2.540   0.127   2.651  1.2238 -0.8765  0.2201
16716TIP3   OH271638   0.556   6.309   1.887 -0.4236 -0.4908 -0.5661
16716TIP3    H171639   0.634   6.335   1.837  0.5919 -5.1303 -1.6519
16716TIP3    H271640   0.500   6.266   1.823 -2.8041  0.6032  0.7338
16717TIP3   OH271641   4.803   5.791   2.579 -0.2471 -0.8651  0.0858
16717TIP3    H171642   4.847   5.715   2.540 -0.1985 -0.4618 -0.6653
16717TIP3    H271643   4.844   5.801   2.665 -0.4439 -1.8537  0.3031
16718TIP3   OH271644   2.623   0.894   2.536  0.4127  0.3238 -0.0299
16718TIP3    H171645   2.609   0.832   2.607  1.0059  0.1218 -0.0858
16718TIP3    H271646   2.608   0.844   2.456  0.4166  0.3749 -0.0631
16719TIP3   OH271647   2.950   1.536   4.827 -0.4103 -0.1950  0.2598
16719TIP3    H171648   3.000   1.586   4.762  1.7563 -1.2588  1.0509
16719TIP3    H271649   2.989   1.561   4.911 -0.7393 -1.5663  0.8310
16720TIP3   OH271650   6.629   6.486   0.498 -0.3598  0.6897  0.5697
16720TIP3    H171651   6.653   6.494   0.406  0.1120  2.3370  0.8205
16720TIP3    H271652   6.684   6.415   0.531 -2.3876 -1.7454 -1.0022
16721TIP3   OH271653   5.840   2.149   1.576 -0.0746  0.4569  0.5954
16721TIP3    H171654   5.892   2.166   1.497 -0.5991  0.0158  0.1509
16721TIP3    H271655   5.804   2.061   1.562 -0.9846  0.7826  0.8822
16722TIP3   OH271656   0.877   6.734   2.193 -0.2896  0.1973 -0.2899
16722TIP3    H171657   0.892   6.812   2.139  2.0196 -0.5029 -0.7367
16722TIP3    H271658   0.826   6.675   2.138 -0.5520  0.6985 -0.5830
16723TIP3   OH271659   3.473   0.061   3.366 -0.4109  0.2677  0.6875
16723TIP3    H171660   3.467   0.136   3.307  0.3163  0.3958  0.7717
16723TIP3    H271661   3.505   0.097   3.449 -2.0809  0.1994  1.3835
16724TIP3   OH271662   6.761   3.511   2.686 -0.3868 -0.2240 -0.1013
16724TIP3    H171663   6.703   3.485   2.757 -0.7771  0.5908 -0.1306
16724TIP3    H271664   6.712   3.491   2.606 -0.9647  1.2599 -0.1182
16725TIP3   OH271665   6.616   2.693   0.323  0.2585  0.2885  0.1020
16725TIP3    H171666   6.548   2.705   0.389 -2.2759 -0.9019 -2.1864
16725TIP3    H271667   6.690   2.744   0.355 -1.3931  0.9157  3.1050
16726TIP3   OH271668   1.454   0.193   0.171  0.3304 -0.1553 -0.5013
16726TIP3    H171669   1.387   0.151   0.224  0.7375 -0.1269  0.0413
16726TIP3    H271670   1.444   0.154   0.084  0.1648 -0.7696 -0.2100
16727TIP3   OH271671   4.270   3.858   1.819 -0.2149  0.3298  0.0016
16727TIP3    H171672   4.295   3.773   1.784 -1.2598 -0.3531  0.8959
16727TIP3    H271673   4.180   3.847   1.849  0.3172  1.1707  2.0065
16728TIP3   OH271674   2.463   0.139  13.411  0.5359 -0.0303  0.1189
16728TIP3    H171675   2.549   0.113  13.379 -0.8518 -1.2835 -2.7562
16728TIP3    H271676   2.433   0.064  13.462 -0.0204 -0.7780 -1.2801
16729TIP3   OH271677   2.117   0.855  15.695 -0.3016 -0.0564  0.6599
16729TIP3    H171678   2.065   0.811  15.627 -0.0469  1.4824 -0.5835
16729TIP3    H271679   2.059   0.857  15.771 -1.0603 -0.7546  0.1207
16730TIP3   OH271680   1.126   0.632   2.450 -0.1577 -0.0844 -0.5274
16730TIP3    H171681   1.036   0.618   2.419 -0.4422  0.0644  0.2323
16730TIP3    H271682   1.144   0.557   2.506 -0.3725  0.6724  0.5786
16731TIP3   OH271683   3.856   2.699  17.258 -0.5243 -0.0986  0.2126
16731TIP3    H171684   3.926   2.756  17.290 -1.4718  1.0474  0.2672
16731TIP3    H271685   3.801   2.756  17.204 -1.1161 -1.1115 -0.2725
16732TIP3   OH271686   2.968   3.181   2.913 -0.7063 -0.0624  0.0647
16732TIP3    H171687   2.924   3.266   2.910 -0.2265  0.1810 -0.1262
16732TIP3    H271688   3.047   3.196   2.966 -0.7089 -0.4291  0.1765
16733TIP3   OH271689   3.921   6.678   5.727  0.0576  0.1302  0.5548
16733TIP3    H171690   3.909   6.616   5.655  1.5485 -1.3944  1.5578
16733TIP3    H271691   3.941   6.761   5.684  0.9083 -0.7487 -0.7980
16734TIP3   OH271692   1.568   0.358   2.107  0.2913  0.3628 -0.5792
16734TIP3    H171693   1.615   0.313   2.037  1.1843  0.5134 -0.0769
16734TIP3    H271694   1.499   0.408   2.061 -0.6883 -1.4551 -1.1371
16735TIP3   OH271695   0.989   1.874  11.486 -0.4891  0.4872  0.0301
16735TIP3    H171696   1.006   1.952  11.433 -0.6169  0.8804  0.5588
16735TIP3    H271697   1.004   1.801  11.427  3.4373  0.7742  0.5282
16736TIP3   OH271698   2.947   3.001  13.801 -0.6832  0.3914 -0.5975
16736TIP3    H171699   2.981   3.039  13.719 -1.3929  1.1121 -0.5682
16736TIP3    H271700   3.006   2.928  13.819  0.1053  0.8533 -1.2064
16737TIP3   OH271701   3.863   0.149   2.051  0.6483  0.5965 -0.3401
16737TIP3    H171702   3.912   0.231   2.060 -1.1340  1.7877 -1.1381
16737TIP3    H271703   3.867   0.129   1.958  1.9836 -0.8309  0.0041
16738TIP3   OH271704   2.223   1.853  17.055 -0.2360 -0.4683  0.3504
16738TIP3    H171705   2.297   1.858  16.994 -2.7416  4.3569 -2.6026
16738TIP3    H271706   2.170   1.780  17.023  1.2495 -1.4716  0.1220
16739TIP3   OH271707   5.907   1.870   3.181 -0.2657 -0.3118 -0.1369
16739TIP3    H171708   5.842   1.805   3.209 -0.1456 -0.3034  0.1647
16739TIP3    H271709   5.914   1.857   3.086  0.6999 -1.6097  0.0913
16740TIP3   OH271710   3.057   6.377  15.948  1.2454 -0.0774  0.0197
16740TIP3    H171711   3.127   6.419  15.999  0.2395 -0.0489  1.3975
16740TIP3    H271712   3.095   6.367  15.860  3.0006 -0.1125  0.7497
16741TIP3   OH271713   5.898   4.125   3.734 -0.1803 -0.4978 -0.2828
16741TIP3    H171714   5.874   4.075   3.656 -2.1033 -0.9731  0.5857
16741TIP3    H271715   5.952   4.197   3.701  2.9003 -3.2486 -1.5256
16742TIP3   OH271716   4.083   3.955  15.636 -0.4900  0.3693 -0.3496
16742TIP3    H171717   4.009   4.002  15.598 -2.1045  0.4904  2.7885
16742TIP3    H271718   4.160   4.007  15.611 -1.7504  1.8687 -1.1821
16743TIP3   OH271719   6.314   5.024  12.155  0.2947 -0.5584 -0.4711
16743TIP3    H171720   6.380   5.033  12.086  0.8579 -1.3718 -0.0395
16743TIP3    H271721   6.235   5.062  12.116  0.7849 -0.3720 -1.3124
16744TIP3   OH271722   0.571   2.690  15.127  0.5571 -0.5267  0.3473
16744TIP3    H171723   0.631   2.616  15.141  0.5953 -0.6091 -0.2108
16744TIP3    H271724   0.627   2.761  15.096  0.4095 -0.5112  0.1121
16745TIP3   OH271725   2.728   0.595  16.744  0.0629  0.7376 -0.1797
16745TIP3    H171726   2.756   0.662  16.682 -1.2434  0.9234 -0.5766
16745TIP3    H271727   2.807   0.545  16.762  0.6911  1.3670 -1.1536
16746TIP3   OH271728   2.487   3.692  11.181 -0.2628 -0.6218 -0.7177
16746TIP3    H171729   2.527   3.778  11.176 -1.5377 -0.0340 -1.2044
16746TIP3    H271730   2.485   3.671  11.274  0.4777 -0.3299 -0.6396
16747TIP3   OH271731   4.046   3.867  12.177  0.2457  0.3094  0.7801
16747TIP3    H171732   4.061   3.776  12.203  0.1017 -0.0389 -0.3250
16747TIP3    H271733   4.120   3.888  12.120 -0.9367  0.1220 -0.8617
16748TIP3   OH271734   1.773   2.257  13.996  0.2338  0.2798  0.7184
16748TIP3    H171735   1.775   2.302  14.081 -0.0056  0.3839  0.6699
16748TIP3    H271736   1.796   2.324  13.932 -1.4777  0.6921  0.5008
16749TIP3   OH271737   1.637   3.322  13.572 -0.2984 -0.3736 -0.0761
16749TIP3    H171738   1.552   3.365  13.582 -0.1561 -0.4260  1.5086
16749TIP3    H271739   1.625   3.262  13.498 -1.3953  0.2011 -0.3763
16750TIP3   OH271740   0.622   5.459  15.828 -0.0463 -0.3301  0.0138
16750TIP3    H171741   0.622   5.465  15.733 -3.4212  3.4816  0.1088
16750TIP3    H271742   0.557   5.391  15.848 -1.0621  0.5212 -0.3801
16751TIP3   OH271743   0.457   2.230   5.657  0.0374  0.2219 -0.0028
16751TIP3    H171744   0.405   2.149   5.656 -0.4227  0.4957  1.0475
16751TIP3    H271745   0.395   2.297   5.685  1.0290  0.5131  1.5215
16752TIP3   OH271746   6.645   1.648   6.124  0.3054  0.1482  0.4701
16752TIP3    H171747   6.687   1.630   6.208 -1.5376 -0.7596  1.2388
16752TIP3    H271748   6.685   1.586   6.063  0.5710 -0.2569  1.0493
16753TIP3   OH271749   3.458   4.659  12.882  0.1727 -0.7893  0.2070
16753TIP3    H171750   3.449   4.617  12.796  1.8351  1.7946 -1.2821
16753TIP3    H271751   3.551   4.647  12.905 -0.0385 -0.5960  1.1874
16754TIP3   OH271752   0.482   1.341  13.212  0.3655 -1.2841  0.5875
16754TIP3    H171753   0.432   1.276  13.163  2.1168 -0.8489 -1.8688
16754TIP3    H271754   0.571   1.304  13.216  1.4587  1.0908 -1.1384
16755TIP3   OH271755   4.961   6.736   3.243 -0.6159 -0.2610  0.9619
16755TIP3    H171756   5.044   6.696   3.218  0.3867  1.5146  1.3451
16755TIP3    H271757   4.900   6.708   3.175  1.1982  1.4868 -1.4939
16756TIP3   OH271758   5.941   5.990   4.975  0.0162  0.0792 -0.0240
16756TIP3    H171759   6.013   5.992   4.912  0.9410  0.7432  1.0413
16756TIP3    H271760   5.934   5.898   5.000 -0.9639 -0.3374 -1.7781
16757TIP3   OH271761   2.453   6.365   0.737  0.4192  0.0260 -0.0256
16757TIP3    H171762   2.429   6.407   0.654 -0.2808  0.4874  0.3974
16757TIP3    H271763   2.503   6.288   0.712 -2.0447 -1.3150 -0.9898
16758TIP3   OH271764   6.282   4.959   4.053 -0.2055 -0.0472 -0.0870
16758TIP3    H171765   6.219   4.976   3.982  0.3657  0.1895 -0.5430
16758TIP3    H271766   6.322   5.044   4.070 -1.4116  0.2136  1.5731
16759TIP3   OH271767   6.542   5.360   2.062 -0.0478  0.1863 -0.1285
16759TIP3    H171768   6.524   5.270   2.034 -0.0509 -0.0787  0.7064
16759TIP3    H271769   6.480   5.375   2.133 -0.6949  1.1819 -0.8926
16760TIP3   OH271770   1.081   6.526   3.913  0.2295 -0.1791 -0.2146
16760TIP3    H171771   0.995   6.486   3.928 -0.5674  0.9284 -1.6799
16760TIP3    H271772   1.118   6.476   3.840  0.6140 -0.3349  0.0896
16761TIP3   OH271773   3.870   4.018   0.261  0.2727 -0.2687  0.5027
16761TIP3    H171774   3.885   4.030   0.354 -0.9166 -1.4797  0.8664
16761TIP3    H271775   3.957   4.019   0.222  0.7172  1.0952  1.5109
16762TIP3   OH271776   4.766   0.740  13.938  0.2547 -0.2657 -0.3553
16762TIP3    H171777   4.700   0.810  13.942  0.4739 -0.0182 -1.0446
16762TIP3    H271778   4.715   0.661  13.920 -0.0090 -0.3158  0.5629
16763TIP3   OH271779   1.516   0.864   5.088 -0.0917  0.1421  0.5545
16763TIP3    H171780   1.490   0.897   5.175 -0.6598 -2.4374  1.3989
16763TIP3    H271781   1.604   0.899   5.075  0.6193 -0.7129  2.8636
16764TIP3   OH271782   6.466   6.503   3.138  0.1370 -0.7494 -0.0724
16764TIP3    H171783   6.474   6.431   3.200 -0.4463 -0.4031  0.3968
16764TIP3    H271784   6.509   6.577   3.181  0.1014 -0.6226 -0.2540
16765TIP3   OH271785   6.466   2.095  13.599 -0.4360  0.2947  0.2596
16765TIP3    H171786   6.417   2.165  13.556 -0.3999  0.5571  0.6441
16765TIP3    H271787   6.436   2.097  13.690 -0.0341  0.1674  0.3948
16766TIP3   OH271788   3.626   5.349   2.363  0.1504  0.3720 -0.0451
16766TIP3    H171789   3.630   5.437   2.325  0.1004  0.3635 -0.0697
16766TIP3    H271790   3.681   5.296   2.306 -0.6198  0.1759 -0.5995
16767TIP3   OH271791   1.066   1.675   0.160  0.7012 -0.4595 -0.2201
16767TIP3    H171792   1.021   1.654   0.242 -0.0802  2.7125  0.2540
16767TIP3    H271793   0.996   1.692   0.098  1.2901 -0.7347 -0.9654
16768TIP3   OH271794   5.547   1.327  12.751 -0.1145 -0.5313 -0.0673
16768TIP3    H171795   5.590   1.253  12.709 -1.0544 -1.0391 -0.1591
16768TIP3    H271796   5.455   1.301  12.756 -0.3648  0.4180  0.3665
16769TIP3   OH271797   1.376   4.932   3.211 -0.0870  0.3709  0.2426
16769TIP3    H171798   1.425   4.953   3.291 -1.4054 -1.6811  1.6517
16769TIP3    H271799   1.284   4.933   3.238 -0.6026  0.5229 -1.4654
16770TIP3   OH271800   1.736   5.227   6.662 -0.3446 -0.3718 -0.4018
16770TIP3    H171801   1.827   5.210   6.636 -0.7904 -0.5529 -1.8491
16770TIP3    H271802   1.706   5.295   6.602 -0.3248  1.6414  1.8153
16771TIP3   OH271803   0.013   0.320  11.865 -0.7295 -0.2513  0.3127
16771TIP3    H171804   0.099   0.363  11.870 -0.5027 -0.7570  0.7570
16771TIP3    H271805  -0.015   0.334  11.774 -0.0278 -0.3764  0.0691
16772TIP3   OH271806   5.924   0.563  16.777  0.0043  0.1431 -0.2958
16772TIP3    H171807   5.959   0.477  16.801 -0.1672  0.6809  1.9253
16772TIP3    H271808   5.836   0.544  16.743  0.3650 -0.6560 -0.8103
16773TIP3   OH271809   5.637   1.593   3.076  0.0146  0.5748 -0.3806
16773TIP3    H171810   5.656   1.616   2.985  1.8739 -0.9397 -0.4186
16773TIP3    H271811   5.719   1.611   3.122 -0.6174  0.4197  0.8160
16774TIP3   OH271812   0.666   4.670   5.714 -0.6294 -0.0610 -0.0380
16774TIP3    H171813   0.610   4.711   5.648  0.1956 -0.0046 -0.6972
16774TIP3    H271814   0.753   4.669   5.675 -0.2531 -0.5696  0.8094
16775TIP3   OH271815   6.514   6.498  12.874 -0.4606 -0.2834  0.1458
16775TIP3    H171816   6.595   6.544  12.896 -0.3749  0.0722 -0.8979
16775TIP3    H271817   6.459   6.509  12.952  0.1289  0.2932  0.4918
16776TIP3   OH271818   4.623   2.241   0.489  0.8591 -0.1670  0.1266
16776TIP3    H171819   4.688   2.312   0.480 -0.4642  1.0445 -0.0756
16776TIP3    H271820   4.607   2.235   0.583  0.8985 -0.1416  0.1353
16777TIP3   OH271821   4.784   4.119  12.885 -0.3038  0.1449  0.0971
16777TIP3    H171822   4.699   4.105  12.928  0.0359 -1.0223  0.4022
16777TIP3    H271823   4.820   4.196  12.929 -0.4315 -0.4073  1.2048
16778TIP3   OH271824   0.428   0.307  15.615 -0.3875 -0.0543 -0.3001
16778TIP3    H171825   0.431   0.259  15.698 -0.6915 -0.9281 -0.7938
16778TIP3    H271826   0.498   0.268  15.562 -0.8409 -0.1644 -0.8190
16779TIP3   OH271827   1.723   1.455  15.274 -0.2296 -0.6251 -0.7014
16779TIP3    H171828   1.766   1.540  15.274  0.1917 -0.8158  1.0537
16779TIP3    H271829   1.790   1.393  15.246  0.5788 -0.8582  1.5812
16780TIP3   OH271830   6.235   4.529  16.020 -0.0669 -0.0328 -0.4648
16780TIP3    H171831   6.206   4.597  16.080 -2.9621 -0.8582 -0.8518
16780TIP3    H271832   6.263   4.457  16.076 -0.8474 -0.0411 -0.0827
16781TIP3   OH271833   0.352   3.876   3.613 -0.1687  0.0542  0.3113
16781TIP3    H171834   0.378   3.867   3.704  2.2010  1.3945 -0.1941
16781TIP3    H271835   0.300   3.956   3.610 -1.2346 -0.6162  0.6709
16782TIP3   OH271836   6.320   0.815   4.148 -0.4314 -0.2277 -0.6164
16782TIP3    H171837   6.321   0.906   4.116  0.6366 -0.2090 -0.5302
16782TIP3    H271838   6.372   0.816   4.227 -1.9664 -0.5620  0.4266
16783TIP3   OH271839   4.536   1.938   0.475 -0.3310 -0.7389 -0.3457
16783TIP3    H171840   4.466   1.921   0.413 -0.6034 -1.1954  0.0797
16783TIP3    H271841   4.559   2.030   0.461 -2.9980  0.2672  1.4732
16784TIP3   OH271842   2.636   3.516   0.087 -0.0874 -0.8143 -0.9527
16784TIP3    H171843   2.627   3.527  -0.008  0.2868 -0.8318 -0.9892
16784TIP3    H271844   2.603   3.427   0.103  0.0874 -0.9062 -1.0990
16785TIP3   OH271845   6.735   1.749  11.849  0.7116  0.1542  0.2999
16785TIP3    H171846   6.692   1.715  11.927 -1.2978  0.9140 -0.4155
16785TIP3    H271847   6.823   1.712  11.850  0.9317  0.6928  3.2589
16786TIP3   OH271848   6.561   4.612  11.309 -0.3464 -0.6424  0.1920
16786TIP3    H171849   6.489   4.574  11.260  1.0171 -1.8364 -0.9343
16786TIP3    H271850   6.597   4.679  11.251 -0.7469  0.1802  0.8828
16787TIP3   OH271851   5.600   0.328   0.632 -0.6361  0.2223  0.2704
16787TIP3    H171852   5.626   0.243   0.596 -0.3719  0.6949 -0.6578
16787TIP3    H271853   5.570   0.307   0.721  2.6423 -0.3534  1.3058
16788TIP3   OH271854   3.327   4.156   1.647  0.1629  0.6069  0.4281
16788TIP3    H171855   3.368   4.165   1.734  0.8331 -2.1790  0.4421
16788TIP3    H271856   3.390   4.197   1.587  1.4008 -0.6179  0.8594
16789TIP3   OH271857   4.513   2.653  14.828 -0.1496 -0.8144  0.2141
16789TIP3    H171858   4.445   2.720  14.834  0.9587  0.4294 -0.6878
16789TIP3    H271859   4.557   2.655  14.914 -0.0913 -0.3572  0.1723
16790TIP3   OH271860   1.627   1.812  17.202  1.1443 -0.4265 -0.0423
16790TIP3    H171861   1.548   1.768  17.235 -1.3165  3.6922 -0.1108
16790TIP3    H271862   1.627   1.792  17.108 -0.8360  0.9101 -0.3676
16791TIP3   OH271863   1.660   1.900  14.698  0.0564  0.0181  0.4818
16791TIP3    H171864   1.708   1.875  14.619 -0.7462 -1.9384  0.5871
16791TIP3    H271865   1.620   1.984  14.676 -0.2410 -0.5557 -1.2370
16792TIP3   OH271866   1.707   4.747   2.586 -0.4862  0.4162  0.5338
16792TIP3    H171867   1.720   4.692   2.508 -0.4941  0.7624  0.2866
16792TIP3    H271868   1.788   4.797   2.594 -0.3700  0.1680  0.9215
16793TIP3   OH271869   6.105   6.098   1.263 -0.5673 -0.6707 -0.3088
16793TIP3    H171870   6.067   6.079   1.177 -0.1295 -0.7298 -0.4900
16793TIP3    H271871   6.050   6.168   1.298 -0.5167 -0.3784 -0.8022
16794TIP3   OH271872   3.509   2.937   3.805 -0.0209  0.0605 -0.0436
16794TIP3    H171873   3.571   2.869   3.832  0.4786  0.6452  0.3020
16794TIP3    H271874   3.478   2.975   3.888 -1.0126 -0.3780 -0.2069
16795TIP3   OH271875   3.935   2.794   5.098  0.2650 -0.0198  0.1325
16795TIP3    H171876   3.939   2.732   5.171  0.4255  1.3071  1.2683
16795TIP3    H271877   4.000   2.861   5.120  0.8217  0.0329 -1.5789
16796TIP3   OH271878   3.152   3.274  15.054 -0.2813  0.5903 -0.2861
16796TIP3    H171879   3.111   3.284  15.140 -1.4401  2.1396 -0.9782
16796TIP3    H271880   3.210   3.199  15.064  0.6130  1.5311  2.2409
16797TIP3   OH271881   4.889   3.566   2.215 -0.0086 -0.1835 -0.6304
16797TIP3    H171882   4.914   3.637   2.157  0.4985  0.1768  0.0235
16797TIP3    H271883   4.902   3.601   2.304 -1.7666 -0.3685 -0.2771
16798TIP3   OH271884   1.155   6.720   5.012  0.4382  0.2158 -0.4114
16798TIP3    H171885   1.165   6.656   5.083  0.7857  2.3419  1.5240
16798TIP3    H271886   1.235   6.712   4.961  0.3262 -1.1206 -0.4049
16799TIP3   OH271887   4.034   6.120  12.988  0.4682  0.6655  0.0744
16799TIP3    H171888   4.088   6.044  13.007 -0.9933  0.0262  1.7865
16799TIP3    H271889   4.046   6.178  13.063 -1.4751  0.3487  0.6594
16800TIP3   OH271890   6.140   0.087   4.249 -0.6720  0.1328  0.2598
16800TIP3    H171891   6.222   0.077   4.201 -1.5086 -1.2785 -0.9273
16800TIP3    H271892   6.134   0.181   4.267  1.7442  0.1326  1.3803
16801TIP3   OH271893   0.756   5.277   3.123  0.2728 -0.0206  0.4530
16801TIP3    H171894   0.745   5.342   3.053 -0.2719 -0.0873  0.4699
16801TIP3    H271895   0.691   5.302   3.189  0.1101 -0.5370  0.4919
16802TIP3   OH271896   4.316   5.345   2.223  0.1293 -0.1968  0.4482
16802TIP3    H171897   4.264   5.425   2.227 -1.4470 -1.2236  1.4071
16802TIP3    H271898   4.391   5.362   2.280 -0.2378  0.5674  0.7165
16803TIP3   OH271899   4.396   5.329   3.750 -0.2846 -0.1235 -0.4228
16803TIP3    H171900   4.444   5.397   3.797  2.6931 -2.9250  0.8522
16803TIP3    H271901   4.448   5.313   3.671  0.3065 -2.3506  0.3603
16804TIP3   OH271902   6.244   6.036   4.168  0.5426 -1.0117 -0.6135
16804TIP3    H171903   6.206   5.981   4.099 -1.3432  0.2195 -0.5660
16804TIP3    H271904   6.247   6.124   4.131 -1.1307 -0.1972  1.0777
16805TIP3   OH271905   6.564   2.346   3.328  0.1547  0.0463 -0.1991
16805TIP3    H171906   6.477   2.364   3.291 -0.1040  3.2186  1.7358
16805TIP3    H271907   6.550   2.348   3.423  2.2468  0.1013  0.1210
16806TIP3   OH271908   4.372   4.884  11.203  0.3379  0.1414  0.0625
16806TIP3    H171909   4.448   4.827  11.201 -0.3711 -0.9430  2.2463
16806TIP3    H271910   4.302   4.832  11.162  0.0241 -0.0940  0.8698
16807TIP3   OH271911   3.947   4.695   0.976 -0.3030 -0.4018 -0.0050
16807TIP3    H171912   4.016   4.668   1.036  0.7738  0.5196 -0.8068
16807TIP3    H271913   3.911   4.613   0.942  0.6563 -0.8790  0.1168
16808TIP3   OH271914   2.210   3.547  15.733  0.1137  0.1142 -0.3631
16808TIP3    H171915   2.117   3.543  15.713 -0.0558 -0.2296  0.4610
16808TIP3    H271916   2.229   3.641  15.743 -0.3215  0.1409  0.2520
16809TIP3   OH271917   5.429   0.377  11.040  0.3370 -0.2206 -0.2774
16809TIP3    H171918   5.502   0.427  11.077 -0.5077  0.3521  0.6301
16809TIP3    H271919   5.420   0.301  11.098 -1.0180  0.7013  0.7304
16810TIP3   OH271920   2.371   2.218  12.328 -0.4509 -0.0987  0.3538
16810TIP3    H171921   2.414   2.296  12.363 -0.0948 -0.8254  1.5564
16810TIP3    H271922   2.277   2.239  12.332 -0.3354  0.4693  0.1735
16811TIP3   OH271923   5.402   1.328  13.714  0.4134 -1.0623 -0.1138
16811TIP3    H171924   5.398   1.289  13.801  3.8668  1.2707  1.1876
16811TIP3    H271925   5.312   1.353  13.695  0.2622  3.6056  5.3424
16812TIP3   OH271926   5.613   5.550   2.863 -0.6331  0.2357 -0.2151
16812TIP3    H171927   5.670   5.482   2.900  0.7187  0.6182 -1.5765
16812TIP3    H271928   5.525   5.511   2.865  0.0936 -1.4759 -0.7730
16813TIP3   OH271929   4.764   1.779  14.597 -0.3966  0.3329  0.5250
16813TIP3    H171930   4.690   1.827  14.635 -1.8738 -2.5114  1.4022
16813TIP3    H271931   4.741   1.771  14.504 -0.6840  0.3472  0.5925
16814TIP3   OH271932   3.393   3.369   6.697  0.4448 -0.4959 -0.2671
16814TIP3    H171933   3.416   3.313   6.622  0.4229 -1.5369  0.4936
16814TIP3    H271934   3.313   3.330   6.732 -0.2665  0.7648 -0.4852
16815TIP3   OH271935   0.531   2.586  15.726 -0.7511  0.1342  0.4612
16815TIP3    H171936   0.490   2.665  15.760  0.3115  0.5600  0.7899
16815TIP3    H271937   0.463   2.519  15.733 -1.5065  0.9054  0.6259
16816TIP3   OH271938   2.794   1.561   2.069  0.2936 -0.1837  0.1221
16816TIP3    H171939   2.803   1.654   2.086 -0.2712  0.4684 -2.8031
16816TIP3    H271940   2.881   1.524   2.086  0.7612  1.0403  0.4088
16817TIP3   OH271941   6.563   5.164  13.473 -0.2040  0.4067 -0.1619
16817TIP3    H171942   6.609   5.113  13.407 -1.5494  0.8468 -1.4674
16817TIP3    H271943   6.630   5.187  13.537  0.9772 -0.5881 -1.0213
16818TIP3   OH271944   4.939   5.254   5.786  0.5379 -0.6361 -0.0805
16818TIP3    H171945   4.952   5.284   5.876  0.2192 -0.1625 -0.1901
16818TIP3    H271946   5.019   5.207   5.765  1.1763  0.4087 -0.0079
16819TIP3   OH271947   1.090   2.502   1.408  0.3756  0.3904 -0.0501
16819TIP3    H171948   1.051   2.416   1.393 -0.4240  0.9345 -1.1755
16819TIP3    H271949   1.152   2.489   1.480 -1.2700 -0.6688  1.1956
16820TIP3   OH271950   5.546   3.725   1.342  0.0155  0.0211 -0.5926
16820TIP3    H171951   5.475   3.698   1.401  0.4039  1.6693  0.6696
16820TIP3    H271952   5.510   3.801   1.295  0.5406  0.1545 -0.7804
16821TIP3   OH271953   5.918   2.116  17.148 -0.7158 -0.3635 -0.5093
16821TIP3    H171954   5.868   2.035  17.142  0.5643 -1.1435 -0.7598
16821TIP3    H271955   6.009   2.088  17.142 -0.2651  1.0843 -0.4640
16822TIP3   OH271956   0.230   3.174   0.027  0.0024 -0.1658 -0.3271
16822TIP3    H171957   0.229   3.154   0.121  0.3744 -0.1307 -0.3152
16822TIP3    H271958   0.138   3.172   0.001  0.0496 -2.1157 -0.3858
16823TIP3   OH271959   1.843   6.654   6.363  0.2710  0.2593  0.6869
16823TIP3    H171960   1.783   6.727   6.348 -0.2648 -0.4995 -1.0742
16823TIP3    H271961   1.865   6.658   6.456 -1.6194  1.2317  1.1057
16824TIP3   OH271962   0.363   6.218   1.001 -0.2135 -0.1661  0.5967
16824TIP3    H171963   0.362   6.123   0.997  1.7346 -0.2292  0.8879
16824TIP3    H271964   0.426   6.244   0.933 -1.2756  0.9557  0.0130
16825TIP3   OH271965   5.308   5.248  11.973  0.5719 -0.4699  0.1662
16825TIP3    H171966   5.276   5.175  11.921 -1.4562 -0.0599  0.7935
16825TIP3    H271967   5.338   5.209  12.055 -2.1688 -0.4613  1.2286
16826TIP3   OH271968   2.374   0.181  11.954 -0.0619 -0.2901  0.0446
16826TIP3    H171969   2.285   0.197  11.987 -0.0780 -1.1151  0.4090
16826TIP3    H271970   2.361   0.119  11.881 -0.0383  1.5690 -1.5906
16827TIP3   OH271971   5.525   3.900   2.322 -0.3247 -0.1095 -0.0082
16827TIP3    H171972   5.596   3.950   2.361  0.7840 -0.2941 -1.7272
16827TIP3    H271973   5.474   3.868   2.396  1.7530 -0.5254  1.2814
16828TIP3   OH271974   5.573   5.728  12.051 -0.1983  0.1331  0.5430
16828TIP3    H171975   5.526   5.771  12.122  0.6025 -0.7000  1.6004
16828TIP3    H271976   5.519   5.652  12.029 -1.0736  1.0668 -0.5995
16829TIP3   OH271977   2.361   2.872  12.016 -0.3227 -0.2828 -0.0701
16829TIP3    H171978   2.353   2.866  12.111  0.1651  0.8002  0.0429
16829TIP3    H271979   2.441   2.922  12.001  0.0671 -1.1725 -1.0713
16830TIP3   OH271980   1.227   0.439  16.308 -0.0604  0.1742  0.4973
16830TIP3    H171981   1.257   0.409  16.394 -1.0085  0.3964  0.9224
16830TIP3    H271982   1.261   0.374  16.246 -0.3533 -0.6382  1.1754
16831TIP3   OH271983   5.527   4.153  14.560 -0.3225 -0.1561  1.0044
16831TIP3    H171984   5.547   4.195  14.643 -1.6580 -0.7018  1.6097
16831TIP3    H271985   5.499   4.064  14.583 -1.3595 -0.0984  0.0342
16832TIP3   OH271986   1.035   3.670   1.950 -0.0533 -0.5218  0.1703
16832TIP3    H171987   0.997   3.674   2.038  2.6928 -0.0102  1.4013
16832TIP3    H271988   0.963   3.691   1.891 -1.0094  3.1535  2.5298
16833TIP3   OH271989   3.878   3.459  17.071  0.3293  0.2427 -0.0855
16833TIP3    H171990   3.915   3.386  17.022 -0.7407  0.5137 -1.3288
16833TIP3    H271991   3.784   3.455  17.053 -0.1071  0.2861  2.0356
16834TIP3   OH271992   3.020   0.822   0.291  0.1694  0.4430  0.6072
16834TIP3    H171993   2.936   0.793   0.325  0.9338  0.0628  2.2151
16834TIP3    H271994   2.997   0.885   0.223 -1.4266 -0.5815  0.1632
16835TIP3   OH271995   2.103   5.222  12.582  0.6106  0.3195  0.3659
16835TIP3    H171996   2.028   5.168  12.609  0.8142  0.0276  0.3483
16835TIP3    H271997   2.179   5.166  12.595  0.7558  0.3326 -0.3783
16836TIP3   OH271998   1.502   6.592  12.410  0.0892 -0.3335  0.1122
16836TIP3    H171999   1.551   6.521  12.368  0.4861  0.6986 -1.2148
16836TIP3    H272000   1.429   6.610  12.350  0.5407  1.0256 -0.0492
16837TIP3   OH272001   4.435   4.639   2.499 -0.4755 -0.0748  0.3166
16837TIP3    H172002   4.410   4.574   2.565  0.0175 -1.8204 -1.1690
16837TIP3    H272003   4.353   4.659   2.454 -0.2767 -1.3236 -0.6408
16838TIP3   OH272004   4.617   5.445   4.304  0.1061  0.1252  0.0360
16838TIP3    H172005   4.603   5.409   4.216  0.2113 -0.2101  0.1574
16838TIP3    H272006   4.599   5.372   4.363  1.5309 -0.0783  0.2311
16839TIP3   OH272007   1.132   2.734   4.104  0.3492 -0.5718 -0.1570
16839TIP3    H172008   1.203   2.761   4.162  1.5941 -2.0678 -0.9283
16839TIP3    H272009   1.174   2.673   4.042 -0.9986  0.6890 -2.3872
16840TIP3   OH272010   1.301   6.186   3.524 -0.4423  0.3806  0.0037
16840TIP3    H172011   1.219   6.224   3.494 -0.9677 -1.3450 -0.8077
16840TIP3    H272012   1.339   6.145   3.446 -0.0286 -0.9695  0.9044
16841TIP3   OH272013   1.855   0.651   2.544 -0.2583  0.4507  0.1366
16841TIP3    H172014   1.833   0.724   2.486 -0.6916 -0.7850 -1.3055
16841TIP3    H272015   1.776   0.635   2.595  0.5407  2.3788  2.0208
16842TIP3   OH272016   3.179   3.876   0.659 -0.3014  0.0958  0.4783
16842TIP3    H172017   3.119   3.833   0.597 -0.0800  0.0383  0.3066
16842TIP3    H272018   3.193   3.810   0.727  0.3976 -0.2676 -0.0164
16843TIP3   OH272019   5.497   3.544  13.841  0.2759  0.3439  0.0400
16843TIP3    H172020   5.583   3.583  13.827  1.2477 -1.8851 -0.3101
16843TIP3    H272021   5.468   3.519  13.753 -0.4924  0.5821  0.2222
16844TIP3   OH272022   2.763   2.217  14.609 -0.1879  0.4485  0.2039
16844TIP3    H172023   2.736   2.278  14.677 -1.5070  1.8192 -1.4899
16844TIP3    H272024   2.684   2.166  14.590 -0.8370  2.3165 -2.5455
16845TIP3   OH272025   4.618   2.040   1.324  0.2633  0.9675  0.0472
16845TIP3    H172026   4.621   2.135   1.321  2.6638  0.9408  0.4989
16845TIP3    H272027   4.706   2.014   1.354  0.1060 -1.4103 -1.4043
16846TIP3   OH272028   1.424   4.160  15.602 -0.6243 -0.6294  0.3383
16846TIP3    H172029   1.364   4.122  15.666  1.2696 -0.4278  2.2745
16846TIP3    H272030   1.434   4.092  15.536 -2.3232 -0.9782  0.4011
16847TIP3   OH272031   1.153   1.883  13.665  0.7075 -0.5237  0.1062
16847TIP3    H172032   1.125   1.847  13.581  1.7207  1.8765 -1.3093
16847TIP3    H272033   1.084   1.943  13.690  0.7214 -0.7395  0.6765
16848TIP3   OH272034   2.411   1.569  12.437  0.2997 -0.5087 -0.0670
16848TIP3    H172035   2.339   1.513  12.408  0.6360 -0.4700 -1.0071
16848TIP3    H272036   2.460   1.588  12.357 -0.7404  2.4771 -0.0340
16849TIP3   OH272037   1.751   4.756   0.406 -0.0065 -0.5970 -0.3704
16849TIP3    H172038   1.718   4.672   0.440 -2.2625  0.9169  1.2722
16849TIP3    H272039   1.826   4.776   0.462  0.3627 -1.3549 -0.5789
16850TIP3   OH272040   3.614   3.054  15.691 -0.2589  0.3687 -0.1450
16850TIP3    H172041   3.543   3.060  15.627 -0.7791 -1.8875  0.1770
16850TIP3    H272042   3.612   2.963  15.720 -0.6927  1.5686  3.8487
16851TIP3   OH272043   0.965   0.466  13.652 -0.0178 -0.2578 -0.5181
16851TIP3    H172044   0.899   0.401  13.630 -0.5310  0.1780 -0.2849
16851TIP3    H272045   1.039   0.446  13.595 -0.4230 -0.6299 -0.9108
16852TIP3   OH272046   5.092   5.797  12.554  0.7439 -0.3093  0.0797
16852TIP3    H172047   5.062   5.886  12.534 -0.7731 -0.1350  2.9097
16852TIP3    H272048   5.185   5.807  12.573  0.8196  0.4894 -0.6849
16853TIP3   OH272049   2.909   6.377   3.909  0.2961  0.1856 -0.3132
16853TIP3    H172050   2.893   6.444   3.843  0.1758 -1.1565 -1.6852
16853TIP3    H272051   2.998   6.347   3.892 -0.1112 -0.9041 -0.5539
16854TIP3   OH272052   1.376   4.879   5.503 -0.1282  0.6255  0.3323
16854TIP3    H172053   1.361   4.946   5.436 -1.8134 -0.2681 -0.2271
16854TIP3    H272054   1.342   4.918   5.584  2.1891  1.8243  0.7533
16855TIP3   OH272055   2.626   5.867  16.966  0.2425  0.8635 -0.3236
16855TIP3    H172056   2.566   5.905  16.901 -2.5068 -0.5126  1.3210
16855TIP3    H272057   2.616   5.923  17.043  0.9316  0.4849  0.0406
16856TIP3   OH272058   4.959   5.750   1.751  0.0218 -0.3957  0.1478
16856TIP3    H172059   5.009   5.701   1.685 -0.7269 -0.4249 -0.4012
16856TIP3    H272060   5.008   5.737   1.832  1.6605  0.6765 -0.6322
16857TIP3   OH272061   0.800   5.074   6.013 -0.4160 -0.9054  0.3621
16857TIP3    H172062   0.802   5.157   5.966  2.6125 -0.8703  0.5067
16857TIP3    H272063   0.741   5.019   5.961  0.9513 -0.0666 -2.1570
16858TIP3   OH272064   1.201   4.063   0.940 -0.5758 -0.0483 -0.8143
16858TIP3    H172065   1.232   4.123   0.872  0.8080  1.0550  0.7510
16858TIP3    H272066   1.127   4.108   0.980 -0.1674  0.1792 -0.3066
16859TIP3   OH272067   0.596   4.686  15.175 -0.5676 -0.0193 -1.0408
16859TIP3    H172068   0.546   4.614  15.213 -2.4629  1.4048 -0.7655
16859TIP3    H272069   0.684   4.677  15.213 -0.7736 -2.1679 -1.0235
16860TIP3   OH272070   5.694   2.457   1.828 -0.2506 -0.0287 -0.5272
16860TIP3    H172071   5.635   2.412   1.889 -1.5623  0.1051 -1.6826
16860TIP3    H272072   5.696   2.548   1.860  0.2392 -0.2874  0.1888
16861TIP3   OH272073   1.817   3.193   0.512  0.5402  0.2305  0.2272
16861TIP3    H172074   1.889   3.168   0.454 -2.0749 -0.6367 -2.7632
16861TIP3    H272075   1.784   3.110   0.547 -0.7661  0.3921 -0.6033
16862TIP3   OH272076   2.533   0.786  16.507  0.3315 -0.1500 -0.4894
16862TIP3    H172077   2.615   0.772  16.460  0.7555  2.1977 -0.5147
16862TIP3    H272078   2.557   0.784  16.599  0.5721  1.3843 -0.5154
16863TIP3   OH272079   4.608   4.063  12.502 -0.2887 -0.0988 -0.1602
16863TIP3    H172080   4.547   4.034  12.435 -0.6779 -0.2666  0.2628
16863TIP3    H272081   4.628   3.984  12.553 -1.4908  0.3827  1.0981
16864TIP3   OH272082   2.970   0.104   4.824 -0.2090  0.1075 -0.6606
16864TIP3    H172083   2.900   0.070   4.768 -1.0022 -1.5414  1.2639
16864TIP3    H272084   3.005   0.027   4.869  3.9554  0.6706 -2.6994
16865TIP3   OH272085   2.125   2.319  11.141 -0.0835 -0.1172 -0.2274
16865TIP3    H172086   2.105   2.411  11.129  0.1747 -0.0514 -0.1575
16865TIP3    H272087   2.041   2.278  11.160 -0.1528  0.1494  0.0278
16866TIP3   OH272088   2.558   2.667  11.142 -0.2351  0.7693  0.8613
16866TIP3    H172089   2.588   2.577  11.128  0.8784  1.1871  0.4580
16866TIP3    H272090   2.559   2.707  11.055  0.1701  1.4309  1.1575
16867TIP3   OH272091   5.081   1.317   1.673 -0.0164  0.2143 -0.1216
16867TIP3    H172092   5.020   1.322   1.600 -0.0071 -0.6419 -0.2003
16867TIP3    H272093   5.073   1.227   1.704 -0.5805  0.7851  1.4135
16868TIP3   OH272094   1.931   0.122   5.521 -0.2622 -0.2546  0.2137
16868TIP3    H172095   1.878   0.045   5.542  0.2385 -0.7558 -0.3523
16868TIP3    H272096   1.954   0.111   5.429  2.7617 -1.1918  1.0402
16869TIP3   OH272097   4.760   0.875   3.722  0.2827 -0.2757  0.2824
16869TIP3    H172098   4.850   0.867   3.753  0.1178  0.2377  0.9139
16869TIP3    H272099   4.727   0.954   3.764  0.3919  1.0681 -2.1048
16870TIP3   OH272100   5.275   2.341  12.767 -0.1489  0.1616  0.3484
16870TIP3    H172101   5.269   2.326  12.861 -1.9002  1.4984  0.4766
16870TIP3    H272102   5.348   2.402  12.757  0.1573 -0.1254  0.8289
16871TIP3   OH272103   0.069   2.284  15.914 -0.0888  0.3059  0.0278
16871TIP3    H172104   0.130   2.319  15.979 -0.1323 -0.8598  0.7063
16871TIP3    H272105  -0.017   2.292  15.955 -0.2181  0.4256 -0.2665
16872TIP3   OH272106   3.731   1.267  13.561  0.1449  0.7814  0.3747
16872TIP3    H172107   3.649   1.272  13.610 -0.0256  2.4678 -0.0546
16872TIP3    H272108   3.716   1.199  13.496 -0.2622 -0.2097  1.4912
16873TIP3   OH272109   1.264   1.917  12.398 -0.4289  0.3236 -0.2987
16873TIP3    H172110   1.307   1.999  12.424 -0.3745 -0.5336  2.5200
16873TIP3    H272111   1.310   1.849  12.447 -2.5511 -1.0279 -0.0777
16874TIP3   OH272112   0.328   4.299   2.583  0.3212  0.0640  0.1536
16874TIP3    H172113   0.415   4.304   2.543  0.1157 -0.1229 -0.3186
16874TIP3    H272114   0.278   4.242   2.524 -0.4602  1.1071 -0.1973
16875TIP3   OH272115   4.583   6.365   1.266 -0.1326 -0.3678 -0.0011
16875TIP3    H172116   4.544   6.303   1.328  0.5204 -0.1091  0.6868
16875TIP3    H272117   4.563   6.329   1.180  1.3860 -2.2476  0.4074
16876TIP3   OH272118   2.046   4.467   3.169  0.1870  0.5106 -0.2886
16876TIP3    H172119   2.021   4.427   3.086 -0.9601 -0.0427  0.3186
16876TIP3    H272120   2.095   4.399   3.214 -0.3182  0.3643  0.0390
16877TIP3   OH272121   3.219   1.954   5.202  0.6320  0.0321  0.1372
16877TIP3    H172122   3.253   2.043   5.195  0.3151  0.0361 -1.9000
16877TIP3    H272123   3.155   1.958   5.273  0.9773  1.3013  0.3908
16878TIP3   OH272124   6.091   0.525   3.366 -0.3960 -0.0912 -0.1842
16878TIP3    H172125   6.016   0.583   3.384 -0.9452 -0.8519  0.0180
16878TIP3    H272126   6.100   0.527   3.271 -0.9648 -0.3473 -0.2481
16879TIP3   OH272127   2.146   1.290   6.388 -0.1410  0.0754  0.1442
16879TIP3    H172128   2.162   1.200   6.416 -0.2723 -0.1237 -0.4118
16879TIP3    H272129   2.162   1.343   6.466  1.5167 -0.2862  0.0862
16880TIP3   OH272130   3.009   5.780   2.573 -0.1777  0.1937  0.1579
16880TIP3    H172131   3.092   5.738   2.595  0.7029  0.8864 -1.7516
16880TIP3    H272132   2.981   5.735   2.493 -2.0797 -0.6076  1.2406
16881TIP3   OH272133   5.170   3.257  14.050  0.1454 -0.1606  0.3546
16881TIP3    H172134   5.099   3.237  14.112  0.0761 -0.5598  0.1469
16881TIP3    H272135   5.247   3.215  14.089  0.1377 -0.2643  0.2579
16882TIP3   OH272136   1.292   6.444   0.569 -0.1949 -0.1236 -0.5689
16882TIP3    H172137   1.197   6.434   0.565 -0.8090  4.2264  0.1538
16882TIP3    H272138   1.305   6.539   0.575  4.2147 -0.6324 -0.8836
16883TIP3   OH272139   0.083   4.319  12.872 -0.3648  0.3751  0.0745
16883TIP3    H172140   0.109   4.251  12.933 -0.4470 -0.0932 -0.4091
16883TIP3    H272141   0.158   4.326  12.812  0.0604  1.3964  0.7028
16884TIP3   OH272142   3.588   1.827  12.081 -0.2950  0.4039 -0.4001
16884TIP3    H172143   3.636   1.744  12.073  0.0553 -0.3754  6.2726
16884TIP3    H272144   3.515   1.818  12.020  1.0379 -3.8091 -1.6127
16885TIP3   OH272145   6.560   2.008  15.363 -0.5686  0.1201  0.0288
16885TIP3    H172146   6.524   1.948  15.429 -1.2711  1.6632  1.0632
16885TIP3    H272147   6.636   2.047  15.405  0.1880 -0.3857 -0.8357
16886TIP3   OH272148   0.828   6.708   5.442 -0.2443  0.3028  0.1916
16886TIP3    H172149   0.885   6.692   5.367  1.1287 -0.7111  1.4230
16886TIP3    H272150   0.884   6.755   5.505 -0.7169 -0.7741  1.4468
16887TIP3   OH272151   0.450   0.173  14.286 -0.2705 -0.4077  0.4102
16887TIP3    H172152   0.539   0.192  14.257 -0.5898  1.1619  0.4397
16887TIP3    H272153   0.416   0.257  14.316 -1.9979 -0.8546 -0.2474
16888TIP3   OH272154   0.584   5.400  16.862 -0.1081  0.1982  0.5493
16888TIP3    H172155   0.618   5.311  16.851 -3.2494 -1.1087  1.1071
16888TIP3    H272156   0.620   5.429  16.945  3.1969  0.5774 -0.9042
16889TIP3   OH272157   6.770   4.674   1.112 -0.1033  0.5339 -0.5567
16889TIP3    H172158   6.755   4.610   1.042 -1.1759 -0.5673  0.6415
16889TIP3    H272159   6.695   4.734   1.106 -0.3699  0.2470 -0.1666
16890TIP3   OH272160   2.109   2.429  14.325 -0.1331 -0.0569 -0.3116
16890TIP3    H172161   2.069   2.414  14.410 -1.1984  0.6803 -0.6644
16890TIP3    H272162   2.102   2.345  14.280  1.5237 -0.7857  0.7482
16891TIP3   OH272163   6.694   6.039  14.695 -0.2030  0.1742 -0.1095
16891TIP3    H172164   6.660   5.996  14.616  1.8283 -0.0770 -0.8770
16891TIP3    H272165   6.702   5.968  14.759  1.4235 -0.3029 -0.8028
16892TIP3   OH272166   5.019   5.838  12.025 -0.4280 -0.4380 -0.5281
16892TIP3    H172167   4.944   5.827  12.085  0.9225 -0.7680  1.1352
16892TIP3    H272168   5.039   5.749  11.996  2.4710 -1.0964  3.0223
16893TIP3   OH272169   1.486   5.644   4.162 -0.5376  0.2459  0.0817
16893TIP3    H172170   1.466   5.642   4.068  0.6945  0.0931 -0.1801
16893TIP3    H272171   1.415   5.697   4.200 -0.8021  0.6807 -0.9894
16894TIP3   OH272172   4.324   6.092  13.228 -0.5561  0.0918 -0.1837
16894TIP3    H172173   4.291   6.003  13.227 -0.6547  0.0832  1.7375
16894TIP3    H272174   4.419   6.083  13.222 -0.2605 -0.3832  3.9001
16895TIP3   OH272175   4.543   6.120  14.197  0.1604  0.5104  0.3906
16895TIP3    H172176   4.473   6.145  14.136  2.1059 -1.7715 -2.9639
16895TIP3    H272177   4.516   6.033  14.228 -0.5443  1.4339  2.3992
16896TIP3   OH272178   1.411   2.571  14.561  0.0100  0.2912 -0.2070
16896TIP3    H172179   1.389   2.642  14.500 -0.5120  1.5965  1.4472
16896TIP3    H272180   1.326   2.541  14.593  0.2933 -0.1144  0.1592
16897TIP3   OH272181   6.743   2.655   1.507  0.2907 -0.1303  0.0909
16897TIP3    H172182   6.704   2.716   1.570 -1.4785  1.8930 -2.8132
16897TIP3    H272183   6.713   2.568   1.536 -0.2153  0.7232  2.1874
16898TIP3   OH272184   0.219   5.561  11.665 -0.2074  0.3965 -0.2767
16898TIP3    H172185   0.289   5.595  11.721 -0.0185 -0.1080 -0.2022
16898TIP3    H272186   0.213   5.625  11.593 -1.1020  1.5504  0.8187
16899TIP3   OH272187   4.200   6.200  17.085 -0.6533  0.1521  0.2718
16899TIP3    H172188   4.151   6.135  17.036  1.6305 -2.0604  0.8306
16899TIP3    H272189   4.254   6.244  17.019 -3.0510  2.4044 -0.2978
16900TIP3   OH272190   4.235   0.753  10.772  0.0224  0.2949  0.1509
16900TIP3    H172191   4.309   0.792  10.726  0.9862 -1.4472  0.1686
16900TIP3    H272192   4.213   0.815  10.841  0.5622  1.4837 -0.7401
16901TIP3   OH272193   1.040   4.079  12.733 -0.3387  0.1154 -0.0666
16901TIP3    H172194   0.980   4.147  12.764 -0.4300  0.2307 -0.4988
16901TIP3    H272195   1.057   4.026  12.811 -1.6937 -0.4307 -0.1143
16902TIP3   OH272196   4.721   0.426   4.717  0.9137  0.2351  0.3668
16902TIP3    H172197   4.639   0.422   4.766  1.7498  2.2621  1.9773
16902TIP3    H272198   4.754   0.336   4.718 -0.8432 -0.4174  0.4501
16903TIP3   OH272199   5.032   6.426   3.911 -0.3258 -0.0673 -0.3790
16903TIP3    H172200   4.949   6.379   3.897 -0.8594  1.0052 -0.8573
16903TIP3    H272201   5.099   6.358   3.902 -1.2271 -1.3503  1.9743
16904TIP3   OH272202   0.812   1.813   3.852 -0.0744 -0.0316  0.1283
16904TIP3    H172203   0.886   1.782   3.904 -0.0700  0.0310  0.1594
16904TIP3    H272204   0.804   1.749   3.781 -0.1481 -0.1773  0.2668
16905TIP3   OH272205   0.115   2.011   3.987 -0.1877 -0.8188  0.6169
16905TIP3    H172206   0.210   2.023   3.983 -0.2190  0.4597  3.1319
16905TIP3    H272207   0.097   1.943   3.922  2.2493 -0.0399 -0.9588
16906TIP3   OH272208   4.677   3.460  12.761 -0.1161  0.0468  0.8487
16906TIP3    H172209   4.675   3.544  12.807 -2.1472  1.3702 -1.5743
16906TIP3    H272210   4.610   3.408  12.803 -1.0964  0.8095  0.2475
16907TIP3   OH272211   6.388   4.816   0.911 -0.5605 -0.0873 -0.2818
16907TIP3    H172212   6.374   4.868   0.832  0.6618  0.7438  0.0263
16907TIP3    H272213   6.406   4.728   0.879  1.5429  0.5842 -1.0409
16908TIP3   OH272214   3.536   3.469  11.175 -0.2837  0.4430  0.1757
16908TIP3    H172215   3.500   3.547  11.134 -0.8863  1.0719  1.8603
16908TIP3    H272216   3.482   3.455  11.252  1.2654 -0.2794  1.1674
16909TIP3   OH272217   4.300   3.293  16.996 -0.7272 -0.3617  0.1003
16909TIP3    H172218   4.359   3.296  17.071 -0.4098  0.7608 -0.1890
16909TIP3    H272219   4.309   3.379  16.954 -3.0101  0.0415  0.3775
16910TIP3   OH272220   3.386   2.377  17.104 -0.6580 -0.3059  0.3736
16910TIP3    H172221   3.441   2.375  17.182 -0.6369  0.0856  0.3698
16910TIP3    H272222   3.337   2.459  17.111 -0.0618  0.1303 -0.4185
16911TIP3   OH272223   6.368   3.511   2.159  0.2768  0.6103  0.1005
16911TIP3    H172224   6.458   3.516   2.127  0.4189  2.0214  0.6561
16911TIP3    H272225   6.344   3.603   2.174 -1.5103  0.2969 -0.7557
16912TIP3   OH272226   1.473   0.505  15.426 -0.1484 -0.3993 -0.1316
16912TIP3    H172227   1.532   0.552  15.485  2.7854 -1.4622 -2.1072
16912TIP3    H272228   1.448   0.426  15.474 -1.0424  0.6708  1.2122
16913TIP3   OH272229   3.585   6.809  12.060 -0.1283 -0.6895  0.3047
16913TIP3    H172230   3.548   6.727  12.092 -0.0424 -1.4489 -1.5000
16913TIP3    H272231   3.644   6.784  11.989  1.5802  0.7659  1.1716
16914TIP3   OH272232   4.953   3.924  11.838 -0.0655 -0.0447 -0.8257
16914TIP3    H172233   4.999   3.883  11.912  0.0560  1.0354 -0.2926
16914TIP3    H272234   4.873   3.958  11.877 -0.2996 -0.0311 -1.3260
16915TIP3   OH272235   0.676   3.628   6.110 -0.1824 -0.1471  0.0547
16915TIP3    H172236   0.647   3.711   6.148 -0.2704 -0.3571  0.4519
16915TIP3    H272237   0.627   3.561   6.158 -1.5465 -0.3433 -1.6014
16916TIP3   OH272238   3.767   4.528  14.620 -0.9176 -0.0121 -0.4068
16916TIP3    H172239   3.785   4.485  14.536  0.4520 -1.4306  0.5890
16916TIP3    H272240   3.847   4.577  14.639 -1.1294  0.0926  0.2070
16917TIP3   OH272241   5.353   4.962   3.237 -0.3685  0.4492  0.0052
16917TIP3    H172242   5.401   5.033   3.280 -0.1199  0.0207  0.4415
16917TIP3    H272243   5.329   4.997   3.151 -1.6514  1.6476  0.8358
16918TIP3   OH272244   2.015   3.627  17.269  0.5105 -0.4300 -0.6145
16918TIP3    H172245   1.999   3.567  17.197  0.7920 -0.5171 -0.6040
16918TIP3    H272246   2.079   3.689  17.235  0.1516 -0.0821 -0.6523
16919TIP3   OH272247   3.155   1.426  15.046  0.2672  0.2045  0.4817
16919TIP3    H172248   3.109   1.485  15.105 -1.8829  0.0157 -0.9414
16919TIP3    H272249   3.199   1.484  14.983  0.6104  0.3526  0.8600
16920TIP3   OH272250   0.486   1.204   1.192 -0.2475  0.0617  0.0755
16920TIP3    H172251   0.458   1.133   1.135  0.5069  0.0528 -0.2884
16920TIP3    H272252   0.501   1.162   1.277  1.0099 -0.3766 -0.3510
16921TIP3   OH272253   2.673   2.950  15.796  0.3353  0.4416  0.3100
16921TIP3    H172254   2.689   2.886  15.866 -1.0212  0.0668  0.3015
16921TIP3    H272255   2.590   2.992  15.820  0.2732  0.8881 -0.6445
16922TIP3   OH272256   0.871   6.120  15.999 -0.4597  0.3097  0.2379
16922TIP3    H172257   0.903   6.044  15.951  0.2380  0.6612  0.1411
16922TIP3    H272258   0.947   6.177  16.007  0.0005 -0.7046  3.6660
16923TIP3   OH272259   5.365   6.806   4.501  0.1184 -0.0123  0.2457
16923TIP3    H172260   5.446   6.776   4.543 -1.5388 -0.4518  3.2479
16923TIP3    H272261   5.325   6.865   4.565 -4.2203 -3.3848  0.9190
16924TIP3   OH272262   4.610   2.836   2.793  0.0007 -0.1266 -0.8102
16924TIP3    H172263   4.577   2.746   2.781  0.1634 -0.1130 -1.3512
16924TIP3    H272264   4.534   2.884   2.828  0.1439 -0.6576  0.2543
16925TIP3   OH272265   1.655   3.239  14.023 -0.2020  0.0046  0.1090
16925TIP3    H172266   1.625   3.178  13.956  0.9742 -0.9968  0.4680
16925TIP3    H272267   1.584   3.303  14.031 -0.4943 -0.0416 -1.8403
16926TIP3   OH272268   5.125   5.965  11.301  0.0550  0.2622  0.1750
16926TIP3    H172269   5.086   6.033  11.246 -1.5692 -1.5135 -0.9184
16926TIP3    H272270   5.191   5.923  11.244 -0.2764 -0.3109  0.2109
16927TIP3   OH272271   1.822   6.392   6.056  0.0942 -0.0047  0.5780
16927TIP3    H172272   1.872   6.382   6.138 -0.1935  1.2363  0.9125
16927TIP3    H272273   1.857   6.471   6.016 -2.0953  1.3213  1.1949
16928TIP3   OH272274   0.975   2.317  13.202  0.1393  0.2826  0.2155
16928TIP3    H172275   0.987   2.372  13.279 -0.6254 -0.9734  1.2631
16928TIP3    H272276   1.017   2.234  13.225 -0.3027 -0.1870 -0.6240
16929TIP3   OH272277   2.586   0.028  13.693 -0.2666 -0.2946  0.1165
16929TIP3    H172278   2.497   0.021  13.729 -0.9118 -0.4682 -1.4722
16929TIP3    H272279   2.581  -0.016  13.609  1.6859 -1.5394  0.6086
16930TIP3   OH272280   0.540   2.428  16.915 -0.4715 -0.3740  0.2272
16930TIP3    H172281   0.451   2.393  16.924  0.6511 -3.4914 -0.2298
16930TIP3    H272282   0.541   2.469  16.828 -1.5139 -0.1334  0.3222
16931TIP3   OH272283   0.774   4.915  15.245 -0.3140  0.1351 -0.1104
16931TIP3    H172284   0.787   4.978  15.316 -0.4982 -1.5277  1.4414
16931TIP3    H272285   0.809   4.833  15.280  0.7893 -0.4306 -2.4445
16932TIP3   OH272286   2.388   2.430   2.246 -0.2960  0.7326  0.0500
16932TIP3    H172287   2.383   2.521   2.215  2.2842  0.2803 -1.9178
16932TIP3    H272288   2.314   2.421   2.306 -1.0523  3.9068 -0.2909
16933TIP3   OH272289   0.738   4.571   2.104  0.1323  0.3148 -0.3814
16933TIP3    H172290   0.736   4.644   2.166 -1.5851  0.7423 -0.9120
16933TIP3    H272291   0.788   4.503   2.148  0.2256  1.1665  0.8487
16934TIP3   OH272292   4.319   0.061   0.153  0.1618  0.1438 -0.0104
16934TIP3    H172293   4.277   0.050   0.068  1.2377  0.0580 -0.5416
16934TIP3    H272294   4.330   0.156   0.162 -0.6790  0.2027  0.3922
16935TIP3   OH272295   5.180   3.097  11.845  0.2071  0.1408  0.1911
16935TIP3    H172296   5.244   3.063  11.907  1.5586  0.8826 -0.7823
16935TIP3    H272297   5.215   3.181  11.817 -1.9895  1.3282  0.8442
16936TIP3   OH272298   6.164   2.637   2.750 -0.7500  0.0611  0.0903
16936TIP3    H172299   6.220   2.559   2.747  0.2604  0.7951  0.0287
16936TIP3    H272300   6.114   2.627   2.831  0.3881  0.0425  0.8041
16937TIP3   OH272301   4.939   0.408   0.623 -0.2923 -0.4521  0.1460
16937TIP3    H172302   4.913   0.363   0.543 -1.1722  0.4676 -0.0979
16937TIP3    H272303   5.016   0.360   0.654  0.2621 -0.6091 -1.4262
16938TIP3   OH272304   4.250   0.442  16.247  0.9965 -0.1023 -0.0306
16938TIP3    H172305   4.266   0.352  16.218 -0.0444 -0.7934  1.4878
16938TIP3    H272306   4.331   0.468  16.290  0.1274 -1.5927  2.6394
16939TIP3   OH272307   4.067   0.643   0.321  0.2411  0.9307  0.1993
16939TIP3    H172308   4.032   0.611   0.238 -0.5304  2.0320  0.0802
16939TIP3    H272309   4.157   0.668   0.302  0.5134 -0.1463  0.0432
16940TIP3   OH272310   0.572   2.837  16.686 -0.4037  0.1710  0.1389
16940TIP3    H172311   0.557   2.920  16.639 -0.5577 -0.8192 -1.6054
16940TIP3    H272312   0.538   2.853  16.774  0.4353  2.2812  0.1054
16941TIP3   OH272313   5.015   3.129   0.329 -0.1066 -0.2699  0.2041
16941TIP3    H172314   5.072   3.112   0.255 -0.2575 -1.0219  0.2511
16941TIP3    H272315   5.071   3.173   0.393 -0.7624  3.2389 -1.5657
16942TIP3   OH272316   2.555   3.022  16.488 -0.0653  0.2105  0.7562
16942TIP3    H172317   2.472   3.040  16.443 -1.4217 -2.4850  2.0363
16942TIP3    H272318   2.614   2.992  16.418 -1.0925 -0.6554  0.2450
16943TIP3   OH272319   1.284   4.305  12.121  0.3276 -0.3218 -0.1790
16943TIP3    H172320   1.342   4.377  12.097  0.7245 -0.5498  0.0865
16943TIP3    H272321   1.335   4.252  12.182  0.3509 -1.2814 -0.9956
16944TIP3   OH272322   0.788   0.432  16.007  0.0646  0.2910 -0.1396
16944TIP3    H172323   0.742   0.485  16.071 -1.3611  0.5321 -1.3256
16944TIP3    H272324   0.748   0.345  16.014  1.3859 -0.2526  0.7850
16945TIP3   OH272325   6.176   6.099  13.209 -0.1938 -0.1389 -0.1671
16945TIP3    H172326   6.220   6.093  13.124 -3.4740 -0.1523 -1.9509
16945TIP3    H272327   6.136   6.186  13.208  0.6858  0.3184  1.9078
16946TIP3   OH272328   5.289   2.910  12.321  0.4489 -0.2843 -0.1890
16946TIP3    H172329   5.202   2.949  12.316  0.4159 -0.3511 -0.1498
16946TIP3    H272330   5.311   2.912  12.414  1.2717  1.4173 -0.4063
16947TIP3   OH272331   6.572   3.703   0.561  0.3717 -0.1839  0.5637
16947TIP3    H172332   6.667   3.708   0.571  0.3589 -0.3913  0.7900
16947TIP3    H272333   6.544   3.794   0.548  0.7535 -0.2644 -0.8454
16948TIP3   OH272334   3.122   0.649  14.908  0.1687 -0.0209  0.3062
16948TIP3    H172335   3.216   0.664  14.909  0.2423 -0.4616  2.3000
16948TIP3    H272336   3.111   0.570  14.855  0.7930  0.7121 -0.9324
16949TIP3   OH272337   1.904   6.259  15.791  0.2419  0.2064  0.3631
16949TIP3    H172338   1.844   6.329  15.819  0.5039  0.3438  0.5956
16949TIP3    H272339   1.951   6.235  15.871  0.4283  0.0341  0.2032
16950TIP3   OH272340   2.544   4.505   0.202 -0.1169  0.3955 -0.0385
16950TIP3    H172341   2.480   4.518   0.132 -0.4711 -0.8640  0.0527
16950TIP3    H272342   2.621   4.468   0.159 -0.4188 -0.5943  0.2787
16951TIP3   OH272343   2.219   1.962  13.793 -0.0418 -0.1797  0.8197
16951TIP3    H172344   2.192   1.974  13.884 -0.5643 -1.5385  0.8593
16951TIP3    H272345   2.306   1.923  13.799  0.9131  1.8642  0.7042
16952TIP3   OH272346   3.277   2.226   5.081 -0.1635 -0.1857  0.1817
16952TIP3    H172347   3.321   2.290   5.137  1.0833  0.1462 -1.1763
16952TIP3    H272348   3.185   2.229   5.109  0.5979 -0.8072  2.9732
16953TIP3   OH272349   2.114   6.446  13.660 -0.2219  0.5618 -0.1151
16953TIP3    H172350   2.068   6.438  13.576 -0.9096  0.4068  0.2699
16953TIP3    H272351   2.050   6.487  13.718  0.7736  2.1119 -0.0835
16954TIP3   OH272352   4.881   2.398  13.553 -0.4718  0.1682 -0.0889
16954TIP3    H172353   4.839   2.467  13.502  2.7677  0.8050 -2.0174
16954TIP3    H272354   4.911   2.335  13.487 -0.1364 -1.2337  1.3816
16955TIP3   OH272355   5.238   3.017  16.216  0.1449  0.6703 -0.2587
16955TIP3    H172356   5.158   2.967  16.234  0.9701 -0.4041  0.5046
16955TIP3    H272357   5.217   3.106  16.243 -0.3897  0.1458  1.0911
16956TIP3   OH272358   4.015   0.375   5.762  0.2436  0.4873 -0.0249
16956TIP3    H172359   4.086   0.432   5.792  0.9140  1.3374 -3.0766
16956TIP3    H272360   3.970   0.425   5.695 -0.1924 -1.9151 -1.6085
16957TIP3   OH272361   2.838   2.914   1.325 -0.1040  0.4025  0.0207
16957TIP3    H172362   2.799   2.927   1.239  0.9563 -0.5369 -0.6182
16957TIP3    H272363   2.931   2.902   1.308 -0.1866 -2.0672  1.0659
16958TIP3   OH272364   1.049   5.411  16.981 -0.1803  0.6170 -0.0965
16958TIP3    H172365   1.006   5.328  17.003 -0.5208  0.7094 -0.4071
16958TIP3    H272366   0.976   5.469  16.957 -0.1454  1.5973  1.9870
16959TIP3   OH272367   5.702   3.990   3.227 -0.3729 -0.0369  0.2278
16959TIP3    H172368   5.718   3.910   3.276  0.9582 -0.9920 -1.6832
16959TIP3    H272369   5.704   3.962   3.135  0.3202  2.2163 -0.4766
16960TIP3   OH272370   2.668   3.035  16.730 -0.3437  0.0345 -0.0711
16960TIP3    H172371   2.626   2.974  16.790  0.1187 -1.5614 -1.3333
16960TIP3    H272372   2.616   3.030  16.650  1.3643 -0.9005 -1.1642
16961TIP3   OH272373   0.213   0.535  12.024 -0.1064  0.2300 -0.7163
16961TIP3    H172374   0.260   0.467  11.974 -0.7548 -0.1068 -0.8712
16961TIP3    H272375   0.208   0.501  12.113  0.7395  0.6744 -0.4918
16962TIP3   OH272376   1.818   4.057   1.420 -0.2185  0.8520  0.8906
16962TIP3    H172377   1.859   3.973   1.442  1.6047  1.3989 -0.2601
16962TIP3    H272378   1.836   4.068   1.327  0.3613  2.9523  1.2329
16963TIP3   OH272379   5.405   4.800   5.194 -0.1373  0.3758 -0.0989
16963TIP3    H172380   5.405   4.776   5.102 -0.3905  0.0614 -0.0177
16963TIP3    H272381   5.359   4.884   5.198  0.1588  0.5499 -0.2975
16964TIP3   OH272382   0.114   2.934  15.333 -0.0509 -0.4835 -0.1668
16964TIP3    H172383   0.038   2.931  15.273 -1.3917 -0.2506  1.4907
16964TIP3    H272384   0.087   2.882  15.408  1.6359 -0.7689  0.2544
16965TIP3   OH272385   4.007   2.187  12.749 -0.4837  0.1067 -0.1034
16965TIP3    H172386   3.931   2.191  12.690 -0.2642 -1.0941 -0.4923
16965TIP3    H272387   4.051   2.106  12.725 -0.2528 -0.2856  1.5648
16966TIP3   OH272388   1.808   5.673   3.442  0.3457  0.1800 -0.1711
16966TIP3    H172389   1.820   5.585   3.479  1.9886  0.3308 -0.3369
16966TIP3    H272390   1.817   5.732   3.517  1.8382  0.3662 -0.4877
16967TIP3   OH272391   4.348   4.609   5.065 -0.3780 -0.0434  0.5193
16967TIP3    H172392   4.366   4.529   5.017 -1.8216  0.5402 -1.0181
16967TIP3    H272393   4.263   4.594   5.107 -0.3329  0.4221  0.7861
16968TIP3   OH272394   5.161   3.480   2.008 -0.0287 -0.8809 -0.6399
16968TIP3    H172395   5.066   3.466   2.002 -0.1954  0.4590 -1.4202
16968TIP3    H272396   5.199   3.402   1.969 -0.7758 -1.9843  0.7688
16969TIP3   OH272397   4.481   6.729  13.945 -0.4178  0.2113 -0.1508
16969TIP3    H172398   4.511   6.817  13.923  0.6599 -0.7729 -2.9442
16969TIP3    H272399   4.544   6.697  14.009  0.9299  0.4130 -1.3567
16970TIP3   OH272400   3.681   4.226  13.384 -0.5941 -0.4131 -0.2343
16970TIP3    H172401   3.692   4.301  13.442  0.6894 -2.1353  1.8428
16970TIP3    H272402   3.623   4.167  13.433 -1.1743 -1.0156 -1.6166
16971TIP3   OH272403   5.477   0.545   2.736 -0.3252 -0.8012 -0.2141
16971TIP3    H172404   5.516   0.460   2.755 -0.4575 -1.1152 -1.2654
16971TIP3    H272405   5.389   0.540   2.773 -0.1253 -0.8952  0.2540
16972TIP3   OH272406   6.805   0.745  15.155  0.2959  0.0945 -0.0424
16972TIP3    H172407   6.806   0.673  15.219  1.1758  0.4898  0.3934
16972TIP3    H272408   6.727   0.728  15.102  0.4098 -1.1024  0.1475
16973TIP3   OH272409   2.954   1.546  13.432 -0.1905 -0.6806 -0.2609
16973TIP3    H172410   3.041   1.573  13.402 -0.8437 -1.2775 -2.8189
16973TIP3    H272411   2.936   1.604  13.506  1.6691  0.6320 -0.7805
16974TIP3   OH272412   1.228   2.806  13.687 -0.0835  0.0609 -0.2627
16974TIP3    H172413   1.144   2.851  13.689 -0.2897 -0.3046 -0.7571
16974TIP3    H272414   1.276   2.842  13.762 -0.5920  0.4319 -0.1143
16975TIP3   OH272415   5.354   4.252  12.954 -0.4114 -0.7765  0.1460
16975TIP3    H172416   5.430   4.284  12.907 -0.2294 -2.7591 -0.9625
16975TIP3    H272417   5.389   4.224  13.039  0.1553 -1.9242 -0.4577
16976TIP3   OH272418   5.982   5.141  15.674  0.1930 -0.0531  0.2064
16976TIP3    H172419   5.924   5.078  15.631  1.3671 -0.4670 -0.8037
16976TIP3    H272420   6.009   5.201  15.604 -0.9083  1.5889  1.1559
16977TIP3   OH272421   3.799   6.583   4.343 -0.0765  0.7669  0.1058
16977TIP3    H172422   3.855   6.618   4.412  0.0275  0.3632  0.2251
16977TIP3    H272423   3.710   6.595   4.377  0.0462 -1.6198  1.3662
16978TIP3   OH272424   2.530   6.647  16.815  0.6553  0.1357  0.0590
16978TIP3    H172425   2.496   6.723  16.768  1.4380  0.7822  0.5169
16978TIP3    H272426   2.578   6.685  16.889 -0.4190 -0.8557  1.2805
16979TIP3   OH272427   3.148   6.680  15.980 -0.2645  0.2475  0.0001
16979TIP3    H172428   3.151   6.613  16.048  0.0101 -0.4691 -0.7241
16979TIP3    H272429   3.175   6.761  16.025 -1.6460  0.1022  1.1310
16980TIP3   OH272430   6.115   0.295  15.010  0.1316 -0.0928 -0.1563
16980TIP3    H172431   6.154   0.369  15.056 -1.4767 -0.0423  1.1665
16980TIP3    H272432   6.180   0.225  15.016 -0.1148 -0.1524  2.3852
16981TIP3   OH272433   3.810   4.170   0.679  0.2369  0.2160 -0.4998
16981TIP3    H172434   3.755   4.094   0.656 -0.2313  0.3128  0.2688
16981TIP3    H272435   3.835   4.208   0.595 -0.7635  0.0836 -0.8699
16982TIP3   OH272436   0.138   3.397  13.580 -0.2040  0.0269 -0.3525
16982TIP3    H172437   0.103   3.445  13.505  0.4539 -0.1427 -0.7801
16982TIP3    H272438   0.098   3.310  13.575 -0.5480  0.1787 -0.2155
16983TIP3   OH272439   3.013   2.669   4.334  0.2784 -0.0680  0.7192
16983TIP3    H172440   2.960   2.601   4.292  0.3110 -0.2837  1.0224
16983TIP3    H272441   3.103   2.639   4.324  0.2905 -0.0899  0.8883
16984TIP3   OH272442   2.728   3.547   4.169  0.2376 -0.3881 -0.5841
16984TIP3    H172443   2.700   3.633   4.200  1.0059  0.3084 -1.7511
16984TIP3    H272444   2.677   3.533   4.089 -0.2573 -1.2487 -0.1186
16985TIP3   OH272445   6.088   3.051  11.880  0.5969  0.3735 -0.2270
16985TIP3    H172446   6.134   2.981  11.927  2.0108  1.0528 -0.5800
16985TIP3    H272447   6.034   3.005  11.816 -0.5548 -0.5076  1.3492
16986TIP3   OH272448   5.497   3.976  13.856 -0.5370  0.1484  0.5219
16986TIP3    H172449   5.546   4.051  13.821 -0.6229  0.3509  0.8296
16986TIP3    H272450   5.415   4.014  13.888 -1.3832 -0.3564 -1.0356
16987TIP3   OH272451   5.373   1.861   1.118 -0.1235 -0.3712  0.1994
16987TIP3    H172452   5.435   1.849   1.190  0.1500  0.3003  0.0749
16987TIP3    H272453   5.422   1.838   1.040 -0.4290 -1.1252  0.2238
16988TIP3   OH272454   5.903   2.654  13.899  0.1088  0.0852  0.4199
16988TIP3    H172455   5.837   2.656  13.968 -2.0977 -0.6495 -1.5990
16988TIP3    H272456   5.868   2.594  13.833  4.2911 -2.9439  0.7234
16989TIP3   OH272457   3.479   5.383   1.724  0.2886 -0.6379 -0.1013
16989TIP3    H172458   3.414   5.414   1.787 -0.3867 -1.0704 -0.5826
16989TIP3    H272459   3.428   5.341   1.655  1.1019 -1.4526 -0.2220
16990TIP3   OH272460   3.521   3.090  17.003 -0.0739  0.1218 -0.6497
16990TIP3    H172461   3.493   3.015  17.055 -1.1763  0.4582 -0.7291
16990TIP3    H272462   3.439   3.127  16.970  0.5606  0.3713 -1.9774
16991TIP3   OH272463   0.616   6.383   0.529  0.6126 -0.0643 -0.0671
16991TIP3    H172464   0.610   6.387   0.433  2.0801 -0.6923 -0.2054
16991TIP3    H272465   0.649   6.295   0.547  1.9418  0.6065  0.9150
16992TIP3   OH272466   0.650   4.474   4.567 -0.1208  0.2516 -0.6732
16992TIP3    H172467   0.719   4.412   4.591 -0.6424 -0.2070 -0.3235
16992TIP3    H272468   0.571   4.420   4.562 -0.3696  0.6979 -1.5101
16993TIP3   OH272469   2.699   1.497   5.074  0.5931 -0.2075 -0.0447
16993TIP3    H172470   2.779   1.444   5.065  1.9648  1.2837  2.6669
16993TIP3    H272471   2.637   1.440   5.119  1.4487 -0.1244  1.2520
16994TIP3   OH272472   6.379   2.570   4.572  0.2814 -0.1656 -0.0752
16994TIP3    H172473   6.328   2.490   4.556 -0.2077 -0.1113  1.1765
16994TIP3    H272474   6.368   2.587   4.665 -2.0647  3.0390 -0.8444
16995TIP3   OH272475   2.212   6.548  15.580  0.4489 -0.7284  0.2117
16995TIP3    H172476   2.307   6.540  15.594  0.5179  0.1922  0.3144
16995TIP3    H272477   2.199   6.520  15.489  1.2175  1.8607 -0.7454
16996TIP3   OH272478   6.427   1.175   1.701 -0.5567  0.1765  0.2547
16996TIP3    H172479   6.429   1.267   1.677 -1.1922  0.3269  0.7696
16996TIP3    H272480   6.334   1.155   1.712 -0.5971 -1.1432 -2.2427
16997TIP3   OH272481   1.922   1.366  13.814  0.7054  0.1356 -0.0516
16997TIP3    H172482   1.937   1.366  13.719  3.2845 -1.8588  0.3030
16997TIP3    H272483   1.952   1.451  13.843  4.0300 -0.8085 -0.5039
16998TIP3   OH272484   5.756   6.222   5.331  0.1972 -0.5657  0.3677
16998TIP3    H172485   5.783   6.130   5.322 -0.4167 -0.6759 -0.2810
16998TIP3    H272486   5.661   6.220   5.326  0.0674 -0.1128  2.2532
16999TIP3   OH272487   2.351   5.206  11.855  0.6172 -0.3880 -0.0322
16999TIP3    H172488   2.445   5.217  11.867  0.1731  2.4814  1.3172
16999TIP3    H272489   2.329   5.129  11.907  2.3392 -1.6432 -1.1120
17000TIP3   OH272490   6.024   6.652   6.285  0.0796 -0.4562 -0.1104
17000TIP3    H172491   5.967   6.669   6.360  0.7312  0.0095  0.2833
17000TIP3    H272492   6.016   6.558   6.269  0.1903 -0.6188  0.7538
17001TIP3   OH272493   2.464   2.483  13.069 -0.6475  0.3712 -0.2211
17001TIP3    H172494   2.413   2.439  13.000  0.5596  0.4688 -1.1989
17001TIP3    H272495   2.453   2.428  13.146  0.3003 -1.3049 -1.2571
17002TIP3   OH272496   6.176   3.175   3.163 -0.4407  0.4844  0.7610
17002TIP3    H172497   6.114   3.103   3.163  1.9895 -1.6749  3.0173
17002TIP3    H272498   6.138   3.239   3.223 -1.0961 -0.2311  1.1164
17003TIP3   OH272499   4.168   4.742  11.635  0.3530  0.1876 -0.4703
17003TIP3    H172500   4.191   4.719  11.545 -0.7026 -0.9986 -0.4650
17003TIP3    H272501   4.113   4.820  11.627 -0.6562 -0.5677 -0.9485
17004TIP3   OH272502   6.442   3.798   4.958  0.5224  0.1966 -0.4843
17004TIP3    H172503   6.402   3.863   5.015  0.4420 -1.5150  1.4911
17004TIP3    H272504   6.469   3.847   4.880 -0.2943  2.3980  0.5737
17005TIP3   OH272505   5.870   1.724  15.358  0.7829 -0.2108  0.0416
17005TIP3    H172506   5.852   1.633  15.333  0.2579 -0.2514  0.5477
17005TIP3    H272507   5.936   1.753  15.296 -0.6164 -0.2599 -1.5222
17006TIP3   OH272508   5.934   0.470   5.982 -0.5414 -0.1391 -0.2480
17006TIP3    H172509   5.941   0.426   6.067 -1.0958 -1.0790 -0.6687
17006TIP3    H272510   5.944   0.563   6.001 -0.9789 -0.3196  0.8920
17007TIP3   OH272511   2.421   6.221  16.897 -0.1096 -0.4486 -0.1927
17007TIP3    H172512   2.488   6.283  16.867 -0.7017  0.5345  0.4732
17007TIP3    H272513   2.443   6.139  16.854  0.8617  0.1554 -0.8687
17008TIP3   OH272514   3.724   3.994   5.052  0.5056 -0.0894 -0.4936
17008TIP3    H172515   3.644   4.047   5.059  0.0860 -0.6558 -0.9241
17008TIP3    H272516   3.784   4.047   5.000  1.4059  1.5024  2.0864
17009TIP3   OH272517   4.029   2.999   0.987 -0.4820 -0.3162 -0.4609
17009TIP3    H172518   3.941   2.964   0.998 -0.1133 -0.9290  0.5615
17009TIP3    H272519   4.038   3.065   1.056 -0.2631  0.0111 -0.7950
17010TIP3   OH272520   2.024   0.604   1.593 -0.3720  0.4818  0.1054
17010TIP3    H172521   2.104   0.584   1.545  0.0222 -2.0062  1.6726
17010TIP3    H272522   2.045   0.682   1.643  0.8331  0.3107 -0.1058
17011TIP3   OH272523   4.103   2.462   5.688 -0.3481  0.4208  0.3679
17011TIP3    H172524   4.094   2.448   5.782 -1.9976  3.2467  0.7024
17011TIP3    H272525   4.187   2.506   5.678 -0.7585  1.2825  0.6773
17012TIP3   OH272526   0.185   6.415   5.785 -0.3415 -0.2062 -0.1322
17012TIP3    H172527   0.182   6.507   5.811 -2.7436 -0.7290  1.7371
17012TIP3    H272528   0.271   6.402   5.747 -0.1284  2.9089 -0.7843
17013TIP3   OH272529   3.722   6.336  16.314 -0.2990 -0.6904 -0.1639
17013TIP3    H172530   3.732   6.340  16.219  2.8115 -0.7516  0.1244
17013TIP3    H272531   3.717   6.243  16.334  3.6666 -0.9490  0.0768
17014TIP3   OH272532   2.366   4.416   5.473  0.3072 -0.5163  0.1154
17014TIP3    H172533   2.375   4.506   5.443 -1.8204 -0.2943  0.0350
17014TIP3    H272534   2.432   4.407   5.542  0.2585  1.2403  0.4257
17015TIP3   OH272535   3.034   4.178  14.775  0.0284 -0.6628 -0.4923
17015TIP3    H172536   3.117   4.134  14.789  1.1310  1.5244  0.0963
17015TIP3    H272537   3.012   4.215  14.861 -2.0976 -2.0964 -0.3707
17016TIP3   OH272538   4.497   0.348   3.010 -0.0309  0.8553 -0.4463
17016TIP3    H172539   4.564   0.317   3.070 -0.8814 -1.2067 -0.4970
17016TIP3    H272540   4.519   0.307   2.926 -1.5940 -0.2398 -0.3464
17017TIP3   OH272541   3.598   3.071   3.171 -0.0077  0.3024 -0.3134
17017TIP3    H172542   3.520   3.099   3.219  0.0666  0.2578 -0.1654
17017TIP3    H272543   3.572   3.072   3.079 -0.2311  0.1354 -0.2528
17018TIP3   OH272544   3.557   6.807   3.682 -0.4286  0.0924  0.0117
17018TIP3    H172545   3.524   6.735   3.629 -0.2379  0.3469 -0.4648
17018TIP3    H272546   3.520   6.793   3.768 -0.0217 -0.8358  0.0458
17019TIP3   OH272547   5.515   5.537   5.998  0.2140  0.0101 -0.2126
17019TIP3    H172548   5.573   5.483   5.943  2.0314  1.8378 -0.1645
17019TIP3    H272549   5.505   5.618   5.948 -0.0609  0.7645  1.0692
17020TIP3   OH272550   5.453   2.484   2.111 -0.1092 -0.1429  0.3628
17020TIP3    H172551   5.419   2.395   2.126 -1.6957  0.3159 -0.4795
17020TIP3    H272552   5.393   2.541   2.158  1.7270  0.4195  2.1151
17021TIP3   OH272553   6.718   3.258  13.497  0.3356  0.7271 -0.2455
17021TIP3    H172554   6.694   3.195  13.565  1.5927  0.2649 -0.2201
17021TIP3    H272555   6.686   3.342  13.530  0.7155  0.4680  0.8139
17022TIP3   OH272556   0.618   5.093  13.729 -0.7416 -0.3464  0.1322
17022TIP3    H172557   0.618   5.009  13.683  0.5852  0.4853 -1.3984
17022TIP3    H272558   0.687   5.084  13.795 -1.5284 -0.9459  0.8768
17023TIP3   OH272559   1.259   4.774  15.686 -0.6672 -0.5500 -0.7127
17023TIP3    H172560   1.297   4.861  15.679 -2.0893  0.2836  1.3871
17023TIP3    H272561   1.268   4.751  15.778 -1.1545 -2.2380 -1.0682
17024TIP3   OH272562   3.596   4.384   4.779  0.3175  0.5208  0.8949
17024TIP3    H172563   3.608   4.324   4.706  1.4363  1.8127  0.0129
17024TIP3    H272564   3.513   4.428   4.761  2.1686  3.2213 -1.3391
17025TIP3   OH272565   3.676   4.529   1.790  0.2770 -0.0907 -0.3751
17025TIP3    H172566   3.603   4.588   1.808  0.7137  0.8371 -1.5498
17025TIP3    H272567   3.713   4.561   1.708  0.8909 -1.6554 -0.7357
17026TIP3   OH272568   3.055   0.434  14.238  0.0923  0.1907  0.3072
17026TIP3    H172569   3.012   0.389  14.166  1.0658  1.4712 -1.0930
17026TIP3    H272570   3.050   0.526  14.215  2.0230  0.4847  0.9830
17027TIP3   OH272571   4.715   0.742  17.201  0.2849 -0.4426  0.0693
17027TIP3    H172572   4.744   0.689  17.127 -0.2501 -0.6677  0.0192
17027TIP3    H272573   4.646   0.798  17.165  1.1164  0.5560  0.0343
17028TIP3   OH272574   3.854   4.654   0.494 -0.2090 -0.0471 -1.2368
17028TIP3    H172575   3.899   4.730   0.530 -1.4887 -0.2363  0.8848
17028TIP3    H272576   3.907   4.579   0.520 -1.4363 -0.2305  0.8229
17029TIP3   OH272577   4.454   6.609   2.663 -0.0992  1.0560  0.1966
17029TIP3    H172578   4.536   6.602   2.712 -0.7029  1.5885  1.3000
17029TIP3    H272579   4.459   6.695   2.619 -0.1366  1.1557  0.3889
17030TIP3   OH272580   2.451   4.000  12.779 -0.1075  0.5894  0.4441
17030TIP3    H172581   2.440   4.008  12.684  1.6282  1.0462  0.2793
17030TIP3    H272582   2.390   3.930  12.804  0.9679 -1.0295 -1.3220
17031TIP3   OH272583   4.562   2.343  14.359 -0.3570  0.2764  0.0629
17031TIP3    H172584   4.468   2.355  14.365 -0.3208  0.3282  0.5461
17031TIP3    H272585   4.590   2.322  14.448  0.1257  0.5212 -0.0269
17032TIP3   OH272586   2.392   1.540   5.909 -0.6616 -0.3083  0.2939
17032TIP3    H172587   2.423   1.547   5.819 -1.1039 -0.5192  0.1214
17032TIP3    H272588   2.313   1.594   5.912 -1.2182 -1.1036  0.2872
17033TIP3   OH272589   6.162   4.543  13.193  0.1711  0.0030  0.0816
17033TIP3    H172590   6.200   4.498  13.269  0.7870 -0.7229 -0.6402
17033TIP3    H272591   6.200   4.497  13.118 -2.5656 -1.1104 -0.6732
17034TIP3   OH272592   4.871   2.596   2.465  0.0547  0.3247  0.4937
17034TIP3    H172593   4.803   2.551   2.516 -0.4539 -0.7745 -1.0737
17034TIP3    H272594   4.858   2.563   2.376  1.5628  1.4189 -0.1452
17035TIP3   OH272595   0.598   1.109   3.866  0.3097  0.1256  0.1045
17035TIP3    H172596   0.655   1.067   3.802 -0.6206  0.1536 -0.7573
17035TIP3    H272597   0.522   1.051   3.872  0.6689 -0.2104  1.6704
17036TIP3   OH272598   3.953   0.052  14.098 -0.0392 -0.4614  0.2867
17036TIP3    H172599   3.965  -0.002  14.020 -0.7383 -3.0198  1.8796
17036TIP3    H272600   4.010   0.013  14.164 -1.1614  0.2443  1.7162
17037TIP3   OH272601   4.557   4.994  15.962 -0.1450  0.0762 -0.0862
17037TIP3    H172602   4.634   4.997  16.019  0.4831  0.8501 -0.9612
17037TIP3    H272603   4.515   4.911  15.983  0.3477  0.1282  1.1496
17038TIP3   OH272604   0.123   4.052   0.830 -0.6597  0.0992  0.0536
17038TIP3    H172605   0.143   4.032   0.738 -2.4079  0.5234 -0.4473
17038TIP3    H272606   0.032   4.082   0.828 -0.4917  0.7736  1.8400
17039TIP3   OH272607   3.692   1.428  11.598 -0.0772  0.0566 -0.1396
17039TIP3    H172608   3.767   1.438  11.656  0.5015  0.4454 -0.9474
17039TIP3    H272609   3.695   1.337  11.569 -0.2737 -0.0941  0.3161
17040TIP3   OH272610   2.011   5.680  11.931 -0.2345  0.5069 -0.7475
17040TIP3    H172611   2.000   5.772  11.956  0.7731  0.8631 -1.5639
17040TIP3    H272612   2.103   5.673  11.906  0.0013 -1.0235  0.4734
17041TIP3   OH272613   1.965   3.638   2.909 -0.9567  0.0455  0.1550
17041TIP3    H172614   1.926   3.557   2.940  0.0624 -0.9262 -1.0657
17041TIP3    H272615   1.896   3.679   2.856 -0.9314 -0.8226 -0.5651
17042TIP3   OH272616   0.846   5.647  10.555  0.4643 -0.1995  0.1502
17042TIP3    H172617   0.935   5.682  10.556  0.2971  0.2335  0.0043
17042TIP3    H272618   0.822   5.639  10.647  0.3400  0.4912  0.1814
17043TIP3   OH272619   0.952   1.690   6.006  0.0935 -0.0589 -0.0838
17043TIP3    H172620   1.016   1.729   5.947  0.9747 -0.0606  0.8604
17043TIP3    H272621   0.946   1.751   6.079 -1.9256  0.5786 -0.7350
17044TIP3   OH272622   2.978   2.316  14.096 -0.1136  0.3609 -0.0835
17044TIP3    H172623   2.916   2.324  14.169  0.3291 -1.1030  0.4840
17044TIP3    H272624   3.027   2.236  14.116  0.9915  0.7404 -1.2550
17045TIP3   OH272625   0.705   2.651   5.585  0.4027 -0.5058  0.2522
17045TIP3    H172626   0.750   2.634   5.667  0.0757  0.1956  0.5846
17045TIP3    H272627   0.757   2.719   5.542  0.6930 -1.0268 -0.2186
17046TIP3   OH272628   1.139   3.316  12.786 -0.0438  0.4315  0.0233
17046TIP3    H172629   1.126   3.406  12.757  0.0107  0.7350  0.9285
17046TIP3    H272630   1.176   3.271  12.710 -0.6435  1.0217 -0.6308
17047TIP3   OH272631   0.412   2.329   2.258  0.2372 -0.0414 -0.2696
17047TIP3    H172632   0.326   2.368   2.275  0.1890 -0.2235 -0.0953
17047TIP3    H272633   0.473   2.403   2.259 -0.1322  0.3155 -2.0245
17048TIP3   OH272634   0.882   4.008   6.544 -0.0179 -0.0078  0.0400
17048TIP3    H172635   0.974   4.008   6.518  0.0637 -0.6770  0.3357
17048TIP3    H272636   0.879   3.959   6.625 -0.9073 -1.6822 -0.9767
17049TIP3   OH272637   5.297   6.726  12.148  0.1787 -0.2877  0.6285
17049TIP3    H172638   5.373   6.777  12.174  0.7460 -1.1596  0.7018
17049TIP3    H272639   5.236   6.735  12.221  0.1953  0.4439  0.5538
17050TIP3   OH272640   3.144   5.304  13.977 -0.1839  0.0458  0.1955
17050TIP3    H172641   3.152   5.356  13.897  0.8785 -0.1371  0.1799
17050TIP3    H272642   3.073   5.242  13.957 -2.7716  2.6461  0.8962
17051TIP3   OH272643   4.233   2.619  15.292 -0.5681  0.6093 -0.8274
17051TIP3    H172644   4.217   2.712  15.307  2.4875  1.1416 -0.6290
17051TIP3    H272645   4.219   2.579  15.378  0.0509  1.1912 -0.4481
17052TIP3   OH272646   0.016   0.848   5.825 -0.0670 -0.4665 -0.0176
17052TIP3    H172647   0.054   0.781   5.768 -0.0824 -1.2427  0.8818
17052TIP3    H272648  -0.077   0.824   5.830 -0.3248  0.3741 -0.7426
17053TIP3   OH272649   2.187   5.245  12.154  0.1397  0.1706  0.0415
17053TIP3    H172650   2.243   5.315  12.188  0.5797  0.2779 -0.8773
17053TIP3    H272651   2.249   5.176  12.130 -0.0454  0.6001 -1.7248
17054TIP3   OH272652   4.134   6.158   1.529 -0.2605 -0.2192  0.2933
17054TIP3    H172653   4.165   6.226   1.588 -0.7547  0.1820  0.0923
17054TIP3    H272654   4.116   6.204   1.447  1.4187 -0.9406 -0.5088
17055TIP3   OH272655   5.068   4.080  14.196  0.4355  0.4686  0.4624
17055TIP3    H172656   5.095   4.112  14.110  0.0402  0.4627  0.3332
17055TIP3    H272657   5.009   4.148  14.230 -1.1843 -0.5709 -0.2398
17056TIP3   OH272658   6.415   5.245  11.220 -0.1174 -0.5841  0.0322
17056TIP3    H172659   6.419   5.335  11.186  0.8418 -0.4424  0.4957
17056TIP3    H272660   6.327   5.215  11.198 -0.1237  0.1336 -0.9892
17057TIP3   OH272661   3.352   1.231  13.952 -0.0619  0.4695  0.0610
17057TIP3    H172662   3.415   1.161  13.972 -1.0046 -0.3539  0.1504
17057TIP3    H272663   3.390   1.275  13.876  0.2358 -0.5237 -0.3823
17058TIP3   OH272664   1.120   3.406   6.595 -0.0354  0.2808 -0.2531
17058TIP3    H172665   1.032   3.417   6.561  0.4720  1.5523 -1.2103
17058TIP3    H272666   1.110   3.353   6.674 -1.7776  1.5149  0.3598
17059TIP3   OH272667   4.744   1.543   2.724  0.2661  0.2870 -0.1728
17059TIP3    H172668   4.761   1.465   2.777  0.4114  0.4972  0.0891
17059TIP3    H272669   4.744   1.511   2.633 -0.7585 -0.2152 -0.0059
17060TIP3   OH272670   2.060   3.227   2.902 -0.2003 -0.1585  0.4823
17060TIP3    H172671   1.986   3.273   2.864 -0.1669 -1.0568 -0.7039
17060TIP3    H272672   2.097   3.177   2.829  1.1954 -0.1991  1.1986
17061TIP3   OH272673   4.228   3.713   4.821  0.4605 -0.8289 -0.3720
17061TIP3    H172674   4.263   3.763   4.747 -1.0933  0.3664 -0.3302
17061TIP3    H272675   4.302   3.702   4.880  0.5689  2.5009  0.2056
17062TIP3   OH272676   3.979   1.006   5.388 -0.2053 -0.0804 -0.5544
17062TIP3    H172677   3.923   1.052   5.325 -0.2914 -0.8972 -1.0703
17062TIP3    H272678   4.067   1.038   5.369 -0.3425  0.3238 -0.5177
17063TIP3   OH272679   4.750   0.610  14.840  0.7710  0.2199  0.0580
17063TIP3    H172680   4.690   0.571  14.904 -0.3890  0.8261 -0.6493
17063TIP3    H272681   4.739   0.705  14.851  2.7855  0.3860  1.0238
17064TIP3   OH272682   2.873   1.732  16.604 -0.9673  0.2083  0.2707
17064TIP3    H172683   2.916   1.649  16.625 -1.6673 -0.0671  0.6599
17064TIP3    H272684   2.798   1.708  16.549 -1.5090  0.5123  0.8581
17065TIP3   OH272685   5.431   6.724  14.611 -0.4915  0.1453  0.1806
17065TIP3    H172686   5.395   6.748  14.526  0.7325  0.7444 -0.1788
17065TIP3    H272687   5.359   6.738  14.673 -1.6553 -1.1036 -0.8543
17066TIP3   OH272688   2.116   0.139  16.642 -0.1277  0.1103 -0.1463
17066TIP3    H172689   2.175   0.098  16.706  1.4804  1.1023 -0.9591
17066TIP3    H272690   2.069   0.206  16.692 -0.3641 -0.5062  0.4550
17067TIP3   OH272691   6.634   6.668   4.254 -0.8231 -0.3734 -0.3766
17067TIP3    H172692   6.570   6.662   4.325 -2.0076  0.2387 -1.3867
17067TIP3    H272693   6.612   6.596   4.195 -1.5354  0.7466 -1.4943
17068TIP3   OH272694   0.459   1.828  14.436 -0.0233 -0.3183  0.5983
17068TIP3    H172695   0.470   1.796  14.347 -0.1841  0.8120  0.1715
17068TIP3    H272696   0.470   1.750  14.491  0.8623 -0.8753 -0.3542
17069TIP3   OH272697   3.925   1.825   6.293 -0.1763 -0.2080 -0.1094
17069TIP3    H172698   3.931   1.820   6.197 -0.7136  0.9732 -0.2127
17069TIP3    H272699   3.988   1.760   6.324  1.2992  0.6331 -1.2634
17070TIP3   OH272700   3.607   1.433   2.625  0.1227 -0.2990  0.0507
17070TIP3    H172701   3.571   1.521   2.620  1.5698  0.2295 -1.4955
17070TIP3    H272702   3.678   1.439   2.688 -1.4435 -0.9910  1.9358
17071TIP3   OH272703   5.946   0.100  12.102  0.4372  0.3383  0.0189
17071TIP3    H172704   5.973   0.008  12.104  2.2734  0.8825  0.3647
17071TIP3    H272705   5.969   0.130  12.014  0.2393  0.6044  0.0551
17072TIP3   OH272706   5.036   3.375  13.050  0.5475  0.3965  0.6638
17072TIP3    H172707   5.100   3.413  12.989 -1.0376  3.9819  1.1407
17072TIP3    H272708   4.969   3.337  12.993  0.3727  1.4810  0.1252
17073TIP3   OH272709   6.054   3.806  12.934 -0.0364  0.1201  0.1556
17073TIP3    H172710   6.127   3.861  12.961 -0.2638  0.0888  0.8427
17073TIP3    H272711   6.003   3.792  13.014  0.0463 -1.1158  0.0011
17074TIP3   OH272712   5.510   4.009  11.504 -0.0715  0.2150 -0.6062
17074TIP3    H172713   5.505   4.089  11.451  0.5184 -0.9219 -2.4408
17074TIP3    H272714   5.461   3.944  11.454 -0.2402 -0.6695  0.6900
17075TIP3   OH272715   6.477   5.884   3.848 -0.3062  0.5543  0.6354
17075TIP3    H172716   6.396   5.841   3.878  0.5068 -0.0643  1.9966
17075TIP3    H272717   6.493   5.952   3.912 -0.5573  1.6824 -0.4807
17076TIP3   OH272718   6.659   5.318  14.872  0.0655 -0.1877 -0.1896
17076TIP3    H172719   6.744   5.278  14.887  0.6278  1.1192  0.1377
17076TIP3    H272720   6.676   5.390  14.812 -0.4266  1.5106  1.6516
17077TIP3   OH272721   1.514   5.373  13.465 -0.6662 -0.1959 -0.2350
17077TIP3    H172722   1.465   5.291  13.463 -0.9974  0.0124 -0.5014
17077TIP3    H272723   1.460   5.432  13.517 -0.9610  0.2086 -1.0069
17078TIP3   OH272724   3.022   2.463  11.004 -0.0429 -0.1941  0.1264
17078TIP3    H172725   2.994   2.537  10.950 -2.8258 -1.7109 -0.6135
17078TIP3    H272726   3.052   2.397  10.942  1.7008 -0.0280  0.7463
17079TIP3   OH272727   1.282   2.626   4.952 -0.3965 -0.2177 -1.3946
17079TIP3    H172728   1.353   2.613   4.890  0.8346  0.6333 -0.1974
17079TIP3    H272729   1.296   2.714   4.986 -0.1707 -1.2026  1.1591
17080TIP3   OH272730   5.613   6.481   5.615 -0.4248  0.0765 -0.0381
17080TIP3    H172731   5.589   6.573   5.621  0.1322  0.1169  2.0315
17080TIP3    H272732   5.581   6.442   5.696  0.4452 -1.2895 -0.3173
17081TIP3   OH272733   2.360   6.764  15.751  0.5095 -0.1769  0.2998
17081TIP3    H172734   2.283   6.708  15.764  0.3655  0.3674  1.9092
17081TIP3    H272735   2.349   6.834  15.816  0.7798  1.6174 -1.5673
17082TIP3   OH272736   5.704   5.758   4.268 -0.2891  0.2610 -0.2044
17082TIP3    H172737   5.660   5.835   4.306  0.6788  0.6112  0.2245
17082TIP3    H272738   5.691   5.767   4.174  0.0422  1.0880 -0.1720
17083TIP3   OH272739   5.250   0.602  14.929  0.6052  0.1086 -0.5697
17083TIP3    H172740   5.236   0.665  15.000  0.8619  0.8089 -1.1346
17083TIP3    H272741   5.335   0.563  14.948  0.0656 -0.6724  0.2408
17084TIP3   OH272742   0.332   3.834  14.212 -0.0974 -0.7236 -0.0857
17084TIP3    H172743   0.245   3.872  14.221  0.8440  1.2759  0.7262
17084TIP3    H272744   0.340   3.775  14.287  0.8599  2.3710  2.3512
17085TIP3   OH272745   4.328   5.325   0.050 -0.2294 -0.6704  0.4874
17085TIP3    H172746   4.266   5.271   0.100 -0.5097 -0.7471  0.0610
17085TIP3    H272747   4.338   5.404   0.102  0.7378 -1.4236  1.4779
17086TIP3   OH272748   0.850   1.392  11.680 -0.5898 -0.1175 -0.6833
17086TIP3    H172749   0.816   1.388  11.769  1.1776  0.3494  0.0329
17086TIP3    H272750   0.858   1.486  11.661 -1.3159 -0.2093 -1.4727
17087TIP3   OH272751   3.662   1.262  11.312 -0.3290  0.4615  0.3308
17087TIP3    H172752   3.570   1.268  11.338  0.2681  1.6856  2.3287
17087TIP3    H272753   3.708   1.233  11.391  1.2961  2.1037  0.0350
17088TIP3   OH272754   0.362   4.947  13.940 -0.4854 -0.0178 -0.0057
17088TIP3    H172755   0.359   4.854  13.963  0.0307 -0.2643 -0.8910
17088TIP3    H272756   0.344   4.949  13.846  3.4316  0.3907 -0.8368
17089TIP3   OH272757   6.252   3.962  13.073  0.2470  0.5183 -0.1739
17089TIP3    H172758   6.318   3.911  13.026 -0.6805 -2.1839  1.3494
17089TIP3    H272759   6.301   4.008  13.141  0.7655 -0.4153  0.0988
17090TIP3   OH272760   2.693   5.339   5.636 -0.1130 -0.4711  0.0992
17090TIP3    H172761   2.638   5.416   5.644  0.1192  0.0948 -2.9746
17090TIP3    H272762   2.725   5.321   5.725 -2.0729  1.5270  1.2234
17091TIP3   OH272763   2.408   3.061   5.195 -0.2689  0.3322  0.2790
17091TIP3    H172764   2.368   3.055   5.108  1.2254 -0.0790 -0.3962
17091TIP3    H272765   2.339   3.097   5.251 -1.8002 -0.9849 -0.7061
17092TIP3   OH272766   3.641   1.739   4.883 -0.7009 -0.0425 -0.0923
17092TIP3    H172767   3.712   1.769   4.826 -1.1025  0.0655 -0.5407
17092TIP3    H272768   3.563   1.783   4.850 -1.0462 -0.4634  0.1497
17093TIP3   OH272769   0.702   3.109   4.016 -0.0743  0.2169  0.4945
17093TIP3    H172770   0.766   3.045   4.048  1.5649  0.3594 -2.3637
17093TIP3    H272771   0.619   3.082   4.058  0.8288 -2.9944  0.3749
17094TIP3   OH272772   3.428   3.364  11.803 -0.2478  0.7143 -0.2046
17094TIP3    H172773   3.385   3.320  11.731 -0.2900 -0.5444  0.5622
17094TIP3    H272774   3.520   3.338  11.795 -0.3632  0.0505  0.5545
17095TIP3   OH272775   4.344   1.473   4.257 -0.0947  0.2804 -0.4614
17095TIP3    H172776   4.328   1.566   4.274 -0.9383  0.2245 -0.9587
17095TIP3    H272777   4.330   1.462   4.163  0.8608 -0.1768 -0.5552
17096TIP3   OH272778   5.720   5.685  11.467 -0.4082 -0.2301  0.0080
17096TIP3    H172779   5.652   5.634  11.512 -0.8617  0.9673  0.6901
17096TIP3    H272780   5.724   5.767  11.516  1.0679 -0.0326 -0.4362
17097TIP3   OH272781   5.180   1.257   5.599  0.0076  0.0292  0.2477
17097TIP3    H172782   5.090   1.234   5.576 -0.0340 -0.6071  1.0321
17097TIP3    H272783   5.233   1.187   5.559  0.2184  0.7380 -0.7485
17098TIP3   OH272784   3.634   6.528   4.880  0.3738  0.8562 -0.0453
17098TIP3    H172785   3.654   6.616   4.848 -0.8412  1.1843  0.0794
17098TIP3    H272786   3.548   6.536   4.922  0.5626 -0.2402  0.5776
17099TIP3   OH272787   2.556   4.330  16.540  0.1260 -0.6601  0.1554
17099TIP3    H172788   2.463   4.352  16.534  0.7073  1.8691  0.1947
17099TIP3    H272789   2.595   4.367  16.462  1.2440 -1.1299  0.4822
17100TIP3   OH272790   5.530   4.563  17.041 -0.0513  0.0940 -0.7536
17100TIP3    H172791   5.434   4.564  17.048 -0.0756  1.9255 -0.9647
17100TIP3    H272792   5.552   4.652  17.012  1.8121  0.1911  0.8685
17101TIP3   OH272793   2.947   0.280   6.730 -0.0355  0.2915 -0.1134
17101TIP3    H172794   3.036   0.312   6.722  0.7182 -1.5911  0.4533
17101TIP3    H272795   2.913   0.279   6.641  0.4297  1.1941 -0.3085
17102TIP3   OH272796   0.596   2.102   4.504  0.3034  0.3303  0.0691
17102TIP3    H172797   0.595   2.198   4.506  0.4904  0.3529 -0.6547
17102TIP3    H272798   0.612   2.081   4.412 -0.9181 -0.4051  0.0074
17103TIP3   OH272799   2.344   5.291   3.274 -0.2181  0.4409 -0.3510
17103TIP3    H172800   2.337   5.343   3.194 -0.6375  1.2682  0.2161
17103TIP3    H272801   2.337   5.200   3.244  0.3172  0.7048 -1.3257
17104TIP3   OH272802   2.403   6.801  16.041 -0.3117 -0.3991 -0.2330
17104TIP3    H172803   2.425   6.888  16.074 -0.5574 -0.5272  0.2771
17104TIP3    H272804   2.308   6.796  16.050 -0.1635 -1.2534  1.0897
17105TIP3   OH272805   1.983   5.962  13.283 -0.2360  0.1512 -1.1247
17105TIP3    H172806   2.015   5.952  13.373 -0.7614  1.0899 -0.8315
17105TIP3    H272807   1.890   5.941  13.289 -0.6478  1.8877 -1.1138
17106TIP3   OH272808   3.001   3.648   4.080 -0.2601  0.0352  0.2936
17106TIP3    H172809   2.934   3.624   4.144 -0.4645  1.2183  0.5362
17106TIP3    H272810   2.952   3.687   4.007  0.1154  0.3386  0.2020
17107TIP3   OH272811   0.769   0.342   0.739  0.2547 -0.5195 -0.1124
17107TIP3    H172812   0.810   0.299   0.814  0.7853 -0.3743 -0.3136
17107TIP3    H272813   0.678   0.352   0.764 -0.1621 -2.9399 -0.5737
17108TIP3   OH272814   4.304   6.577  11.551  0.1458  0.3519  0.4626
17108TIP3    H172815   4.226   6.593  11.604 -0.8228 -1.8060 -0.2370
17108TIP3    H272816   4.350   6.506  11.597  0.5290  0.1054 -0.2961
17109TIP3   OH272817   3.796   0.760   2.046 -0.1036 -0.5028 -0.0962
17109TIP3    H172818   3.850   0.837   2.061  1.2054 -1.2758 -0.6989
17109TIP3    H272819   3.739   0.783   1.973 -0.4503  0.2570  0.4151
17110TIP3   OH272820   5.265   0.820   0.197  0.1622  0.3613 -0.1038
17110TIP3    H172821   5.302   0.788   0.115  2.0337  0.2929  0.7415
17110TIP3    H272822   5.247   0.740   0.247 -0.6837  0.4175 -0.3007
17111TIP3   OH272823   2.835   1.685  12.202 -0.1850  0.3003  0.1608
17111TIP3    H172824   2.820   1.736  12.282  1.3289  0.7936  0.1485
17111TIP3    H272825   2.859   1.750  12.136 -1.5222 -0.0965 -0.7361
17112TIP3   OH272826   2.209   0.094   5.120  0.6850 -0.6858 -0.0919
17112TIP3    H172827   2.221   0.084   5.025 -0.8560  0.6317 -0.4544
17112TIP3    H272828   2.191   0.187   5.131 -1.3978 -1.2238  1.2320
17113TIP3   OH272829   3.199   6.567   5.553 -0.0849 -0.3439 -0.6183
17113TIP3    H172830   3.219   6.579   5.646  1.8019 -1.1121 -0.8948
17113TIP3    H272831   3.206   6.654   5.516  0.2402 -0.2020 -0.2310
17114TIP3   OH272832   3.445   1.012   3.629  0.3994 -0.1731  0.4406
17114TIP3    H172833   3.425   0.941   3.690  2.5125 -2.7687 -1.7335
17114TIP3    H272834   3.537   1.033   3.646  0.1046  1.2569  0.2990
17115TIP3   OH272835   4.661   4.932   3.277  0.0916  0.3335 -0.4731
17115TIP3    H172836   4.640   4.998   3.343  0.3716  1.5980 -1.6181
17115TIP3    H272837   4.748   4.957   3.245  0.2849 -0.7108 -0.7672
17116TIP3   OH272838   2.839   4.436   4.430 -0.1581 -1.4132  0.2371
17116TIP3    H172839   2.877   4.348   4.421 -0.3734 -1.5329  0.4964
17116TIP3    H272840   2.905   4.486   4.478 -0.9364 -2.0298  2.0097
17117TIP3   OH272841   2.216   3.846  13.790  0.2056  0.7200  0.8003
17117TIP3    H172842   2.127   3.851  13.826 -0.3524 -1.7842 -0.0518
17117TIP3    H272843   2.258   3.776  13.840  1.2216  0.9291  0.2523
17118TIP3   OH272844   2.007   2.035   1.914 -0.3278 -0.2245 -0.3396
17118TIP3    H172845   2.046   2.062   1.997 -1.7910 -1.8085  0.8971
17118TIP3    H272846   2.081   2.021   1.855  0.7655  0.0042  0.9706
17119TIP3   OH272847   2.860   1.151  12.119 -0.5349 -0.2273 -0.0386
17119TIP3    H172848   2.810   1.233  12.118  0.2033  0.2258 -1.1802
17119TIP3    H272849   2.943   1.174  12.161  1.2745  0.6390 -3.8188
17120TIP3   OH272850   4.933   6.146   1.306  0.3346  0.1331 -0.3179
17120TIP3    H172851   4.928   6.236   1.274 -0.0802 -0.0778 -0.8359
17120TIP3    H272852   5.027   6.129   1.315  0.4300  0.3700 -0.9090
17121TIP3   OH272853   4.733   5.605   4.832  0.0297  0.3396 -0.3763
17121TIP3    H172854   4.748   5.605   4.737 -1.8218  0.4626 -0.6812
17121TIP3    H272855   4.803   5.659   4.867 -1.2754  3.2225 -2.0299
17122TIP3   OH272856   1.481   3.062   2.262 -0.2959  0.1296 -0.2381
17122TIP3    H172857   1.502   3.108   2.344 -0.7215 -1.6276  0.8780
17122TIP3    H272858   1.561   3.071   2.210 -0.4515  2.3307 -0.1588
17123TIP3   OH272859   5.164   2.837  10.966 -0.8671 -0.1709 -0.0147
17123TIP3    H172860   5.258   2.837  10.988 -0.3646  3.8799 -1.8364
17123TIP3    H272861   5.158   2.781  10.889 -0.0464 -0.7590  0.3288
17124TIP3   OH272862   6.052   1.778  15.673  0.7393  0.0966 -0.0457
17124TIP3    H172863   6.114   1.705  15.678  0.0191 -0.5553 -0.6184
17124TIP3    H272864   6.106   1.856  15.690  1.4812 -0.5704  0.7508
17125TIP3   OH272865   6.273   6.510  14.603  0.3159 -0.3021 -0.2298
17125TIP3    H172866   6.187   6.532  14.569  0.2078 -1.0646 -0.4550
17125TIP3    H272867   6.304   6.439  14.546  1.1843  0.1161 -0.2934
17126TIP3   OH272868   2.416   4.266  14.542 -0.3706  0.2218 -0.1807
17126TIP3    H172869   2.472   4.291  14.468 -1.4044  0.8185 -0.7927
17126TIP3    H272870   2.469   4.283  14.620  0.5629  0.0436 -0.7720
17127TIP3   OH272871   4.618   1.458   3.096  0.0772  0.0303 -0.1129
17127TIP3    H172872   4.606   1.444   3.190  0.5332  0.5257  0.0260
17127TIP3    H272873   4.700   1.414   3.075 -0.2632 -0.4838 -0.3769
17128TIP3   OH272874   5.920   0.575   4.079 -0.4993 -0.6111 -1.3248
17128TIP3    H172875   6.012   0.551   4.091 -0.5766  0.6988  2.5881
17128TIP3    H272876   5.871   0.496   4.102 -0.4075 -0.3508 -0.1869
17129TIP3   OH272877   3.374   2.543   5.981 -0.3555 -0.0922  0.0670
17129TIP3    H172878   3.388   2.543   5.886 -1.7391  0.4215 -0.1458
17129TIP3    H272879   3.421   2.620   6.012  0.0547 -0.2275 -0.2146
17130TIP3   OH272880   5.015   0.384  17.022  0.3692 -0.3129 -0.2147
17130TIP3    H172881   4.960   0.371  17.099  0.9026 -1.7034 -0.0478
17130TIP3    H272882   5.088   0.438  17.052 -0.0942  0.2275 -0.0631
17131TIP3   OH272883   3.902   5.665   1.480 -0.7960  0.4134  0.1456
17131TIP3    H172884   3.843   5.690   1.551  0.5261  0.4789  1.2371
17131TIP3    H272885   3.877   5.575   1.458 -0.5110  0.0183  1.4317
17132TIP3   OH272886   5.131   0.809   5.558 -0.4936 -0.3984  0.2037
17132TIP3    H172887   5.070   0.869   5.601 -0.1464  0.8279 -0.9976
17132TIP3    H272888   5.137   0.841   5.468  0.6818 -1.4727 -0.1067
17133TIP3   OH272889   3.659   1.728   4.296 -0.4624  0.2991 -0.0307
17133TIP3    H172890   3.637   1.733   4.389  0.0299 -0.9983  0.1638
17133TIP3    H272891   3.695   1.640   4.284 -0.6844  0.3899 -1.4881
17134TIP3   OH272892   6.792   1.343   4.106 -0.1942 -0.0166  0.1726
17134TIP3    H172893   6.857   1.304   4.165 -0.6894 -1.4772 -0.2344
17134TIP3    H272894   6.731   1.387   4.165  0.5243  0.4048  0.6179
17135TIP3   OH272895   3.195   1.517  11.778 -0.6331  0.3627 -0.4050
17135TIP3    H172896   3.265   1.455  11.758  0.4447  0.7429  1.9942
17135TIP3    H272897   3.135   1.469  11.834 -1.5583  0.4773 -1.2852
17136TIP3   OH272898   0.066   1.322   2.784 -0.5584 -0.8309  0.3245
17136TIP3    H172899   0.058   1.272   2.703 -0.0672 -1.4896  0.6784
17136TIP3    H272900   0.161   1.326   2.799 -0.5143  1.2273 -0.3416
17137TIP3   OH272901   3.662   4.718  13.122  0.7620  0.8243 -0.8253
17137TIP3    H172902   3.568   4.713  13.106  0.7812  0.6702 -0.8969
17137TIP3    H272903   3.674   4.796  13.176  0.5770  0.7579 -0.6902
17138TIP3   OH272904   2.848   2.713   0.882  0.3614 -0.6132 -0.2024
17138TIP3    H172905   2.829   2.626   0.847 -0.1267 -0.1166 -1.2170
17138TIP3    H272906   2.785   2.725   0.953  1.2016 -1.5429  0.7086
17139TIP3   OH272907   5.359   0.144  11.192 -0.1355 -0.1036  0.0949
17139TIP3    H172908   5.323   0.064  11.153  1.5478  0.7801 -3.4879
17139TIP3    H272909   5.431   0.113  11.247  1.4532 -1.0442 -2.4027
17140TIP3   OH272910   3.235   3.644   2.837 -0.1098 -0.1920  0.0360
17140TIP3    H172911   3.248   3.735   2.810  0.0486 -0.1000  0.4157
17140TIP3    H272912   3.200   3.600   2.760 -0.7724  0.3368  0.0355
17141TIP3   OH272913   3.201   4.342   0.196 -0.2377 -0.3025  0.3899
17141TIP3    H172914   3.218   4.251   0.218 -1.3220 -0.5067  0.4103
17141TIP3    H272915   3.128   4.368   0.252 -0.7861  0.1881 -0.5234
17142TIP3   OH272916   0.332   6.465  11.946  0.3781 -0.2108  0.0460
17142TIP3    H172917   0.369   6.450  12.033 -1.6398 -0.9938  0.7888
17142TIP3    H272918   0.351   6.557  11.928  1.3958 -0.2189  1.0280
17143TIP3   OH272919   1.127   4.193   3.504 -0.4055  0.1286 -0.1293
17143TIP3    H172920   1.089   4.170   3.589 -1.2453 -0.0616 -0.5471
17143TIP3    H272921   1.109   4.116   3.449  1.6055 -0.4403 -0.0134
17144TIP3   OH272922   4.023   2.208  15.423  0.5631 -0.4970 -0.3989
17144TIP3    H172923   3.992   2.140  15.482  2.7642 -0.6819  0.5593
17144TIP3    H272924   3.970   2.196  15.343 -1.4059 -1.1484  0.9634
17145TIP3   OH272925   5.484   3.664  16.056  0.2107 -0.0927  0.2101
17145TIP3    H172926   5.559   3.616  16.092 -0.2675 -0.6357  0.4756
17145TIP3    H272927   5.408   3.612  16.080 -0.2461  0.3950 -0.1771
17146TIP3   OH272928   0.204   0.608   1.965 -0.0406  0.1383  0.2633
17146TIP3    H172929   0.142   0.554   1.916 -0.5046  0.6407  0.2973
17146TIP3    H272930   0.261   0.545   2.009 -1.1209 -0.3307  1.0050
17147TIP3   OH272931   3.695   6.466   5.442  0.3200 -0.2600 -0.2162
17147TIP3    H172932   3.699   6.556   5.409 -0.5269 -0.5297 -1.0662
17147TIP3    H272933   3.612   6.432   5.410  0.7695 -1.4491 -0.1410
17148TIP3   OH272934   0.592   3.140  12.782 -0.6867 -0.4578 -0.0473
17148TIP3    H172935   0.643   3.219  12.800 -0.2264 -0.9963  1.1162
17148TIP3    H272936   0.523   3.168  12.722 -0.3296  0.7503  0.0954
17149TIP3   OH272937   6.574   3.347  12.402  0.4192 -0.0377  0.4182
17149TIP3    H172938   6.489   3.303  12.391  2.8007 -4.8954  0.2659
17149TIP3    H272939   6.593   3.383  12.315 -0.5176 -0.6842 -0.0649
17150TIP3   OH272940   4.593   5.881  14.522  0.0534 -0.0167 -0.0914
17150TIP3    H172941   4.626   5.849  14.605 -0.4548  0.8992  0.4797
17150TIP3    H272942   4.510   5.925  14.544  0.7704  1.7713 -0.7955
17151TIP3   OH272943   2.282   2.700   2.233 -0.4567 -0.3857 -0.0730
17151TIP3    H172944   2.217   2.704   2.163 -0.2084 -0.1634 -0.2931
17151TIP3    H272945   2.363   2.734   2.193 -0.4918  0.4080  0.5167
17152TIP3   OH272946   0.130   4.303  14.773  0.4067  0.0589 -0.4646
17152TIP3    H172947   0.095   4.216  14.792  0.4981  0.0862 -0.1645
17152TIP3    H272948   0.060   4.363  14.797  0.3912  0.0745 -0.5500
17153TIP3   OH272949   3.849   4.674  12.314 -0.2940  0.0525 -0.0859
17153TIP3    H172950   3.918   4.692  12.251 -0.7183 -0.0235 -0.5811
17153TIP3    H272951   3.818   4.586  12.291  0.1217 -0.3238  0.7675
17154TIP3   OH272952   1.386   5.795  17.268  0.1851 -0.0708  0.1278
17154TIP3    H172953   1.395   5.842  17.185 -0.5444  1.4454  0.8829
17154TIP3    H272954   1.322   5.726  17.249 -0.1597  0.4093 -0.5079
17155TIP3   OH272955   0.768   3.231  15.798 -0.5992 -0.2767 -0.3754
17155TIP3    H172956   0.761   3.137  15.784 -0.8668 -0.3382  0.1639
17155TIP3    H272957   0.700   3.268  15.743 -0.3543 -0.3836 -0.7508
17156TIP3   OH272958   5.202   3.941   3.470 -0.6458 -0.0453 -0.1008
17156TIP3    H172959   5.159   3.988   3.399 -2.1728  0.9299  1.4254
17156TIP3    H272960   5.147   3.958   3.546  3.2905  2.6030  2.3414
17157TIP3   OH272961   0.587   3.691   0.008 -0.0948 -0.4767  0.3088
17157TIP3    H172962   0.641   3.668  -0.068  0.6708 -0.6271  0.9014
17157TIP3    H272963   0.503   3.646  -0.009 -0.5801  1.0088 -1.3539
17158TIP3   OH272964   6.566   4.823  16.026 -0.5551 -0.0556  0.5200
17158TIP3    H172965   6.498   4.758  16.041  0.6551 -0.8839  2.5165
17158TIP3    H272966   6.607   4.797  15.943 -1.0180 -0.9720  0.5826
17159TIP3   OH272967   6.423   6.377  11.018  0.1482  0.7150  0.4941
17159TIP3    H172968   6.453   6.290  10.991  0.2755  0.8418  0.2277
17159TIP3    H272969   6.376   6.411  10.942  3.3462  2.4385 -0.8133
17160TIP3   OH272970   1.954   5.669  12.737  0.0302 -0.7938  0.5342
17160TIP3    H172971   1.960   5.590  12.683 -0.0574  0.2389 -1.0372
17160TIP3    H272972   2.044   5.685  12.766 -0.0545 -1.8090  1.3757
17161TIP3   OH272973   0.098   6.344   3.464 -0.3434 -0.0291 -0.6156
17161TIP3    H172974   0.141   6.278   3.518  0.8949  2.0063  0.9732
17161TIP3    H272975   0.008   6.346   3.495  0.1984  0.6658  0.9506
17162TIP3   OH272976   1.920   1.641  15.299  0.0818  0.2571  0.0680
17162TIP3    H172977   1.904   1.725  15.342  3.9246  0.9903  0.3081
17162TIP3    H272978   1.960   1.665  15.215  0.4071 -1.2916 -0.2370
17163TIP3   OH272979   3.274   6.058  13.058 -0.3331  0.2350  0.0300
17163TIP3    H172980   3.331   6.011  12.997 -1.3611 -0.8849 -0.0829
17163TIP3    H272981   3.322   6.057  13.141 -1.0145 -2.4139  0.4345
17164TIP3   OH272982   4.205   3.324  14.732 -0.0505 -0.2675 -0.4971
17164TIP3    H172983   4.279   3.381  14.751 -0.7878  1.1970 -1.8883
17164TIP3    H272984   4.139   3.346  14.797 -0.3297  0.4780 -1.0249
17165TIP3   OH272985   4.320   5.653  15.134  0.5957  0.5327 -0.1482
17165TIP3    H172986   4.274   5.588  15.188  0.2716 -0.3767 -1.4707
17165TIP3    H272987   4.394   5.682  15.187  0.4127 -0.5123  0.6865
17166TIP3   OH272988   5.682   3.769  16.359 -0.0340  0.3043  0.4004
17166TIP3    H172989   5.659   3.763  16.451 -0.2911 -1.9366  0.2152
17166TIP3    H272990   5.676   3.862  16.339  1.7541  1.0241  3.0601
17167TIP3   OH272991   5.401   5.667   5.374  0.5790  0.0818 -0.5719
17167TIP3    H172992   5.467   5.730   5.402  0.4675 -0.0112 -0.0976
17167TIP3    H272993   5.339   5.662   5.447 -0.6404  1.1035 -1.5206
17168TIP3   OH272994   4.062   6.267  12.267 -0.2852 -0.1115  0.2441
17168TIP3    H172995   4.063   6.173  12.284 -1.7357 -0.2032 -0.1402
17168TIP3    H272996   3.975   6.284  12.231  0.2462  1.2504 -0.4247
17169TIP3   OH272997   5.748   4.981   1.167 -0.4218 -0.6237  0.7395
17169TIP3    H172998   5.709   4.904   1.209  0.3423 -0.0852  2.4734
17169TIP3    H272999   5.684   5.051   1.183 -0.1036 -0.4046  1.0433
17170TIP3   OH273000   2.738   5.217  12.189  0.5401 -0.1059  0.2303
17170TIP3    H173001   2.679   5.186  12.121 -0.8282  2.4423  0.2099
17170TIP3    H273002   2.718   5.163  12.265 -0.9227 -0.1001 -0.1487
17171TIP3   OH273003   4.562   4.381  13.123 -0.1529 -0.4690 -0.2109
17171TIP3    H173004   4.620   4.455  13.104 -1.6954  0.8618  0.1331
17171TIP3    H273005   4.524   4.359  13.038 -1.4304  0.6554  0.0476
17172TIP3   OH273006   5.550   4.155   3.002 -0.5048  0.5809  0.5464
17172TIP3    H173007   5.640   4.125   3.013 -0.7331 -0.2208  0.2402
17172TIP3    H273008   5.497   4.090   3.047 -1.0616  0.0522 -0.8270
17173TIP3   OH273009   5.958   4.658   5.605  0.3966 -0.1152  0.0483
17173TIP3    H173010   6.016   4.687   5.676 -1.0368 -1.1730  1.7126
17173TIP3    H273011   5.964   4.563   5.607 -0.8418 -0.2108 -0.2054
17174TIP3   OH273012   0.683   1.396  12.360  0.1287  0.2445 -0.0580
17174TIP3    H173013   0.750   1.334  12.330  0.9561  0.4635  1.3199
17174TIP3    H273014   0.726   1.481  12.354  0.3172  0.2874  1.7791
17175TIP3   OH273015   5.824   6.237   0.450 -0.1575 -0.5633 -0.0082
17175TIP3    H173016   5.765   6.256   0.523  0.8121 -1.8778  1.1458
17175TIP3    H273017   5.900   6.195   0.490  1.0650  0.0523 -1.6088
17176TIP3   OH273018   0.134   5.939  12.257  0.7827 -0.5379  0.6770
17176TIP3    H173019   0.190   5.890  12.317 -0.4316 -0.1758  2.1553
17176TIP3    H273020   0.047   5.902  12.270  0.2493  0.5143  0.1900
17177TIP3   OH273021   1.629   1.701   5.008  0.3604  0.6987  0.0759
17177TIP3    H173022   1.594   1.770   4.951 -1.2457 -0.1286  0.0562
17177TIP3    H273023   1.637   1.743   5.094  0.9601  1.3808 -0.3016
17178TIP3   OH273024   0.320   4.239   4.009 -0.0373  0.8200  0.1469
17178TIP3    H173025   0.402   4.191   4.019  0.9532  2.3925 -0.3425
17178TIP3    H273026   0.272   4.221   4.089  1.5260  1.3158  1.2149
17179TIP3   OH273027   5.382   6.720  14.081  0.0182 -1.2436 -0.2540
17179TIP3    H173028   5.309   6.730  14.021 -1.2669  0.5049  1.5371
17179TIP3    H273029   5.445   6.787  14.055  0.7525 -2.3364 -1.3922
17180TIP3   OH273030   4.993   0.963   1.346  0.2532  0.8684 -0.8414
17180TIP3    H173031   5.019   0.998   1.261 -1.7219 -2.4685 -2.9342
17180TIP3    H273032   5.075   0.950   1.393  1.3836  2.5234 -2.2998
17181TIP3   OH273033   1.110   5.446   2.220 -0.1896  0.3869  0.8771
17181TIP3    H173034   1.109   5.399   2.136 -2.8531  0.2570  0.9539
17181TIP3    H273035   1.066   5.529   2.202 -0.2954  0.5862  2.0336
17182TIP3   OH273036   1.533   0.252   3.967  0.0082  0.1432 -0.1180
17182TIP3    H173037   1.514   0.197   4.042  1.8529 -0.7426 -0.2677
17182TIP3    H273038   1.543   0.191   3.894  0.2877  0.8162 -0.6534
17183TIP3   OH273039   0.677   0.593  16.296  0.2978 -0.2453 -0.2683
17183TIP3    H173040   0.708   0.626  16.380 -0.3070  0.2389 -0.2266
17183TIP3    H273041   0.743   0.529  16.269  1.0535  0.3858  0.0600
17184TIP3   OH273042   6.108   0.835   0.964  0.0749 -0.4553 -0.1265
17184TIP3    H173043   6.110   0.824   0.869  2.4410  0.1835 -0.1995
17184TIP3    H273044   6.103   0.746   0.999 -1.2065 -0.6742 -0.8388
17185TIP3   OH273045   3.268   4.808  10.639 -0.2535  0.0679  0.2056
17185TIP3    H173046   3.290   4.771  10.724  1.3507  0.3675 -0.0789
17185TIP3    H273047   3.326   4.883  10.629 -0.4064  0.0165 -1.1671
17186TIP3   OH273048   3.597   0.222   1.219 -0.5850 -0.1609  0.4307
17186TIP3    H173049   3.630   0.296   1.168 -1.9487 -0.1861 -0.5452
17186TIP3    H273050   3.514   0.253   1.255 -0.9750 -1.0726  0.3459
17187TIP3   OH273051   4.535   1.052   5.951 -0.1450 -0.1818  0.4417
17187TIP3    H173052   4.605   1.019   6.008  0.4873 -1.3105 -0.9530
17187TIP3    H273053   4.454   1.032   5.999  0.4499  0.5502  1.7747
17188TIP3   OH273054   3.608   0.387   1.734  0.1635  0.0844 -0.3771
17188TIP3    H173055   3.684   0.331   1.716  0.8727  1.0635 -0.5030
17188TIP3    H273056   3.636   0.439   1.810 -0.7807 -0.2709  0.2249
17189TIP3   OH273057   1.226   6.060   5.084 -0.1622  0.3238 -0.5260
17189TIP3    H173058   1.132   6.044   5.091 -0.0532 -1.0507 -1.9731
17189TIP3    H273059   1.253   6.085   5.173 -1.7391 -0.0489  0.0662
17190TIP3   OH273060   2.383   4.980   5.362  0.0528 -0.3443  0.1437
17190TIP3    H173061   2.474   5.008   5.374  0.6339 -2.3000  0.4923
17190TIP3    H273062   2.347   4.979   5.451 -1.0204  2.5889 -0.1893
17191TIP3   OH273063   3.419   5.276   2.513 -0.2867 -0.3047 -0.3660
17191TIP3    H173064   3.387   5.355   2.557  0.3699 -0.0149 -0.4013
17191TIP3    H273065   3.504   5.301   2.479 -1.3644 -0.1016 -3.0195
17192TIP3   OH273066   6.116   5.850   4.438  0.1818  0.2963  0.0434
17192TIP3    H173067   6.071   5.865   4.355  1.5984  1.8181 -0.4593
17192TIP3    H273068   6.091   5.926   4.492  1.2188  0.5750  0.1448
17193TIP3   OH273069   6.664   1.871   2.944  0.1508 -0.3377 -0.4786
17193TIP3    H173070   6.750   1.832   2.931  1.1117  1.4504  0.3152
17193TIP3    H273071   6.614   1.804   2.990  1.0519 -1.4572 -1.1068
17194TIP3   OH273072   5.437   0.071   2.789  0.2393  0.0823 -0.5627
17194TIP3    H173073   5.419   0.070   2.883 -1.3234  1.0049 -0.8455
17194TIP3    H273074   5.481   0.154   2.773 -1.1575  0.7690 -0.9325
17195TIP3   OH273075   4.375   4.110  13.577  0.4209 -0.2175 -0.1715
17195TIP3    H173076   4.403   4.025  13.543 -1.7811 -0.5720 -1.2031
17195TIP3    H273077   4.280   4.111  13.563  0.4703  2.6090 -0.5938
17196TIP3   OH273078   4.709   5.748   0.797 -0.1066  0.3967  0.0364
17196TIP3    H173079   4.697   5.657   0.769  2.3681  0.2429 -0.6805
17196TIP3    H273080   4.624   5.790   0.781 -0.6071 -1.2389 -1.8179
17197TIP3   OH273081   2.166   1.127   1.125  0.3304 -0.8742  0.5750
17197TIP3    H173082   2.191   1.093   1.039  0.5455 -0.3272  0.4214
17197TIP3    H273083   2.075   1.154   1.114  0.8442  0.6732  0.0737
17198TIP3   OH273084   6.273   3.309  15.003  0.1071 -0.4004 -0.0555
17198TIP3    H173085   6.258   3.245  14.933  0.2017 -4.4787  3.4229
17198TIP3    H273086   6.185   3.329  15.035  0.2249 -0.8311  0.5448
17199TIP3   OH273087   1.946   3.263   6.466 -0.2319  0.9331 -0.4532
17199TIP3    H173088   1.944   3.213   6.548 -1.7280  1.9175  0.1277
17199TIP3    H273089   2.020   3.323   6.477  0.1064  0.4796 -0.1902
17200TIP3   OH273090   6.543   1.691  12.561  0.7604  0.1146  0.0178
17200TIP3    H173091   6.466   1.709  12.616  0.3426 -0.8838 -0.2231
17200TIP3    H273092   6.515   1.713  12.472  0.9710  0.3942  0.0228
17201TIP3   OH273093   0.207   4.127  15.695 -1.0966  0.0988  0.2027
17201TIP3    H173094   0.143   4.092  15.756 -0.5558 -1.1787  0.0479
17201TIP3    H273095   0.214   4.220  15.718 -1.3285 -0.2466  1.6865
17202TIP3   OH273096   5.879   0.644   2.983  0.3924  0.7417 -0.6162
17202TIP3    H173097   5.956   0.591   3.004 -0.6406  0.0508  1.5696
17202TIP3    H273098   5.908   0.734   2.996  0.9982  0.5167 -0.3828
17203TIP3   OH273099   4.404   3.797  16.217  0.7073 -0.4946 -0.2214
17203TIP3    H173100   4.313   3.824  16.222  0.9589  0.2150  0.6793
17203TIP3    H273101   4.408   3.715  16.267  0.8794  0.3699  1.2391
17204TIP3   OH273102   5.307   3.134  17.123  0.0433 -0.1201  0.5637
17204TIP3    H173103   5.241   3.079  17.081 -0.7056  0.6188  0.7653
17204TIP3    H273104   5.316   3.210  17.066  2.0676 -1.0683 -0.4234
17205TIP3   OH273105   1.432   1.579  12.762 -0.6267  0.3861  0.7139
17205TIP3    H173106   1.443   1.601  12.670  0.3236 -0.9361  0.4980
17205TIP3    H273107   1.353   1.526  12.765  0.8450 -1.9230  0.2263
17206TIP3   OH273108   3.420   4.738  13.374 -0.5106  0.0052 -0.7288
17206TIP3    H173109   3.377   4.652  13.382 -0.5198  0.1016  0.2952
17206TIP3    H273110   3.438   4.746  13.280 -1.8939 -0.4478 -1.0505
17207TIP3   OH273111   0.359   1.698   2.633  0.2630 -0.2227  0.2888
17207TIP3    H173112   0.371   1.607   2.659 -0.4386 -0.1647  0.8469
17207TIP3    H273113   0.446   1.736   2.637  0.2450 -0.3015  2.3021
17208TIP3   OH273114   2.920   3.748   2.460 -0.0708  0.7475 -0.1493
17208TIP3    H173115   2.969   3.731   2.379  0.2245  2.2100 -0.2816
17208TIP3    H273116   2.928   3.666   2.509 -0.3191 -0.1900 -1.6252
17209TIP3   OH273117   4.091   2.406  16.150  0.4218 -0.4945  0.2798
17209TIP3    H173118   4.050   2.463  16.086 -1.0887 -2.1718 -0.2914
17209TIP3    H273119   4.159   2.360  16.101 -0.4010 -1.4095 -0.0236
17210TIP3   OH273120   0.380   3.680   6.100  0.3590  0.0711 -0.7219
17210TIP3    H173121   0.438   3.738   6.148  1.8001 -2.2053  0.3425
17210TIP3    H273122   0.330   3.635   6.168 -0.2843 -0.4090 -1.5098
17211TIP3   OH273123   1.555   3.841   5.670 -0.2082 -0.0283  0.2441
17211TIP3    H173124   1.564   3.753   5.635 -0.4780  0.3202 -0.7180
17211TIP3    H273125   1.460   3.854   5.678 -0.2656  1.1073 -2.0440
17212TIP3   OH273126   0.552   2.081  12.712  0.4416 -0.2019  0.0978
17212TIP3    H173127   0.576   2.167  12.746 -0.3069  0.2130 -0.4013
17212TIP3    H273128   0.620   2.022  12.745  0.8329  0.5389  0.6284
17213TIP3   OH273129   4.298   1.011   6.062 -0.0365 -0.3149 -0.1681
17213TIP3    H173130   4.274   1.096   6.025  1.6205  0.9394  1.5295
17213TIP3    H273131   4.267   0.947   5.998  0.6135  1.6688 -2.5550
17214TIP3   OH273132   0.303   4.767   1.641  0.0039  0.7012  0.4103
17214TIP3    H173133   0.292   4.760   1.736 -0.0995  0.7578  0.4025
17214TIP3    H273134   0.215   4.753   1.606  0.2122 -0.2811  0.2740
17215TIP3   OH273135   5.020   0.973   2.113  0.0221  0.4026  0.6851
17215TIP3    H173136   4.940   0.929   2.086  0.5511 -1.2711  1.7478
17215TIP3    H273137   5.089   0.936   2.057  0.2883  0.8044  0.7360
17216TIP3   OH273138   6.358   3.815   0.294 -0.0453  0.3543  0.3896
17216TIP3    H173139   6.445   3.780   0.314 -0.5362 -0.5703  0.9132
17216TIP3    H273140   6.373   3.909   0.283  1.3547 -0.0373 -1.4039
17217TIP3   OH273141   2.030   2.060   1.122 -0.1750 -0.5759 -0.2049
17217TIP3    H173142   1.982   2.142   1.110  0.6737  0.1162  0.9676
17217TIP3    H273143   2.069   2.068   1.209  0.9214 -1.7103 -0.5795
17218TIP3   OH273144   2.612   6.536  11.409  0.4056  0.1359 -0.6077
17218TIP3    H173145   2.523   6.502  11.418  0.9385 -0.9453  0.7577
17218TIP3    H273146   2.614   6.614  11.463 -0.4748  1.7211 -2.7975
17219TIP3   OH273147   3.775   3.931   2.012 -0.0681  0.4103 -0.3982
17219TIP3    H173148   3.820   3.946   2.095 -0.6185 -0.1991  0.0100
17219TIP3    H273149   3.843   3.900   1.953  0.1277 -0.1060  0.1004
17220TIP3   OH273150   0.612   4.638   2.821  0.7293 -0.7111  0.4377
17220TIP3    H173151   0.626   4.729   2.796  1.3086 -0.9607 -0.1691
17220TIP3    H273152   0.611   4.639   2.916  1.1387 -0.1264  0.4388
17221TIP3   OH273153   0.384   3.517  13.590  0.1566  0.0487  0.1215
17221TIP3    H173154   0.304   3.467  13.573 -0.8206  1.4850  0.4078
17221TIP3    H273155   0.374   3.597  13.538  1.4565  0.1833  0.0794
17222TIP3   OH273156   2.778   1.533  13.067 -0.3976 -0.0323 -0.3810
17222TIP3    H173157   2.843   1.603  13.057 -0.9746  0.4795 -0.6096
17222TIP3    H273158   2.828   1.458  13.098  0.8174 -0.4915 -3.2452
17223TIP3   OH273159   3.818   0.543   2.220 -0.1611  0.1242 -0.7452
17223TIP3    H173160   3.752   0.548   2.289 -2.4280  0.2069 -2.8208
17223TIP3    H273161   3.823   0.633   2.186  1.8534  0.3557  0.1095
17224TIP3   OH273162   4.067   5.021   4.882 -0.2619  0.0415  0.1757
17224TIP3    H173163   4.154   5.060   4.897 -0.3938  0.2473  0.4109
17224TIP3    H273164   4.019   5.037   4.963 -0.8585  0.8308 -0.3290
17225TIP3   OH273165   2.168   3.069   1.911  1.1064  0.0383 -0.2380
17225TIP3    H173166   2.231   3.137   1.889 -0.6373  1.4245 -1.0633
17225TIP3    H273167   2.174   3.061   2.006  1.5049  1.2073 -0.1530
17226TIP3   OH273168   4.097   0.156   5.923  0.1182 -0.4007 -0.3956
17226TIP3    H173169   4.091   0.246   5.890  0.3706 -0.4579 -0.5978
17226TIP3    H273170   4.184   0.127   5.897  1.0258  0.1607  1.8528
17227TIP3   OH273171   1.744   5.403   6.197 -0.4246 -0.0359  0.1016
17227TIP3    H173172   1.683   5.337   6.161 -0.3468  0.2840 -0.6290
17227TIP3    H273173   1.771   5.454   6.121 -0.6544  0.9898  0.7008
17228TIP3   OH273174   3.933   2.119  14.127 -0.0285  0.0345 -0.1438
17228TIP3    H173175   3.886   2.114  14.211 -0.0225 -0.5880 -0.1742
17228TIP3    H273176   4.019   2.154  14.150  0.1161 -0.5261  0.1680
17229TIP3   OH273177   4.880   1.744   5.736 -0.0580  0.4200  0.0278
17229TIP3    H173178   4.935   1.797   5.794  0.1449 -0.1053  0.3169
17229TIP3    H273179   4.811   1.804   5.708  0.0265  0.7716  0.5534
17230TIP3   OH273180   3.187   4.608  12.708  0.1692 -0.7682 -0.1309
17230TIP3    H173181   3.282   4.594  12.705  0.2636  0.3082 -2.6191
17230TIP3    H273182   3.150   4.540  12.652 -0.3070  0.7018 -1.6206
17231TIP3   OH273183   4.725   3.721  14.537  0.0972  0.0967  0.4415
17231TIP3    H173184   4.669   3.643  14.543 -0.6978  0.6752  0.6076
17231TIP3    H273185   4.682   3.785  14.593 -0.0304  1.1314 -0.8397
17232TIP3   OH273186   4.341   0.350   3.236  0.1192 -0.1363 -0.2016
17232TIP3    H173187   4.351   0.262   3.272 -0.4586 -0.0722  0.1083
17232TIP3    H273188   4.385   0.346   3.151 -1.5145 -1.2480 -1.0078
17233TIP3   OH273189   2.341   5.410   2.078 -0.0691 -0.0876  0.3444
17233TIP3    H173190   2.429   5.390   2.046 -0.3797  0.2722 -0.7712
17233TIP3    H273191   2.283   5.370   2.013 -0.7380 -0.6109  1.2447
17234TIP3   OH273192   3.777   2.154   5.476 -0.2464  0.4903  0.4391
17234TIP3    H173193   3.870   2.180   5.475 -0.0552 -0.1732  0.6159
17234TIP3    H273194   3.778   2.063   5.506 -1.0528  0.8727  1.6856
17235TIP3   OH273195   6.052   1.036  10.792  0.4821  0.2221  0.1151
17235TIP3    H173196   5.960   1.052  10.813  0.5045  1.0404 -0.4354
17235TIP3    H273197   6.095   1.032  10.878 -0.1544 -0.7546  0.4031
17236TIP3   OH273198   0.175   1.604  12.631  0.0830 -0.4686  0.3963
17236TIP3    H173199   0.127   1.609  12.714  0.4327 -1.3579  0.6523
17236TIP3    H273200   0.112   1.569  12.569 -0.3668  0.7721  0.1326
17237TIP3   OH273201   1.307   1.511   1.213  0.5361 -0.4380 -0.5389
17237TIP3    H173202   1.259   1.516   1.296  1.4523  0.1264 -0.0218
17237TIP3    H273203   1.376   1.577   1.222 -0.1485  0.5504 -2.2801
17238TIP3   OH273204   4.308   4.870  13.341 -0.3392  0.1629 -0.5971
17238TIP3    H173205   4.287   4.908  13.256 -0.0660  2.0227  0.1460
17238TIP3    H273206   4.241   4.803  13.354  0.5980 -1.3093 -2.9974
17239TIP3   OH273207   1.333   1.334  14.672  0.2533 -0.1154 -0.1312
17239TIP3    H173208   1.358   1.353  14.762 -0.0178  2.0568 -0.4719
17239TIP3    H273209   1.410   1.359  14.620  0.5061 -1.5998 -0.4972
17240TIP3   OH273210   0.294   0.192  16.141  0.0350  0.2631 -0.2191
17240TIP3    H173211   0.202   0.200  16.115 -0.2762 -1.0514  0.4102
17240TIP3    H273212   0.302   0.101  16.171  0.8380  1.1133  2.3281
17241TIP3   OH273213   5.000   3.575  13.876 -0.3236  0.6261 -0.3975
17241TIP3    H173214   4.994   3.536  13.788 -0.6998  2.0463 -1.0051
17241TIP3    H273215   5.072   3.527  13.918  0.0878  0.1687 -1.5923
17242TIP3   OH273216   0.052   6.525  14.045 -0.4783  0.1675 -0.0969
17242TIP3    H173217   0.090   6.577  14.116 -1.2383  0.8640 -0.1933
17242TIP3    H273218   0.122   6.516  13.981  0.1508 -0.2935  0.6516
17243TIP3   OH273219   3.961   3.589  16.201  0.0995 -0.4914  0.0412
17243TIP3    H173220   3.932   3.579  16.110 -2.0035  0.8411  0.5233
17243TIP3    H273221   3.880   3.584  16.252  0.6625  3.4316  1.4652
17244TIP3   OH273222   1.726   6.230   0.834  0.9877  0.0762  0.1570
17244TIP3    H173223   1.677   6.310   0.818  3.5340  1.7163  0.2787
17244TIP3    H273224   1.662   6.169   0.870 -1.1954  1.7293 -0.8258
17245TIP3   OH273225   1.297   5.513  16.126  0.2071 -0.2461 -0.0797
17245TIP3    H173226   1.325   5.470  16.045 -0.7686  1.8223 -1.5476
17245TIP3    H273227   1.374   5.509  16.182  1.5928  0.1460 -1.8877
17246TIP3   OH273228   6.287   0.924   5.521  0.8167  0.5239 -0.1121
17246TIP3    H173229   6.198   0.909   5.553  0.3585 -0.1362 -1.6737
17246TIP3    H273230   6.285   1.015   5.489 -0.0387 -0.2832 -2.4707
17247TIP3   OH273231   5.130   5.264  10.861 -0.0847  0.1959  0.1465
17247TIP3    H173232   5.059   5.203  10.840  1.2517 -1.8106  1.2974
17247TIP3    H273233   5.091   5.327  10.922 -1.5326  0.6378 -1.2152
17248TIP3   OH273234   4.639   5.624   6.395 -0.4032  0.1414 -0.1456
17248TIP3    H173235   4.600   5.543   6.363  0.2250 -0.9694  1.7919
17248TIP3    H273236   4.718   5.635   6.342 -0.4548 -0.5616 -0.3762
17249TIP3   OH273237   4.202   0.747  11.194 -0.3851 -0.6180 -0.1432
17249TIP3    H173238   4.205   0.820  11.133 -1.6306  0.9002  1.5739
17249TIP3    H273239   4.278   0.693  11.171  0.0114  0.7253 -2.0257
17250TIP3   OH273240   4.494   4.942   2.070 -0.1406 -0.1051 -0.4241
17250TIP3    H173241   4.506   4.974   1.981 -3.2913  1.2613 -0.4371
17250TIP3    H273242   4.563   4.984   2.121 -0.0652  1.3257 -1.6967
17251TIP3   OH273243   4.197   5.388   1.861  0.4638  0.0554  0.1429
17251TIP3    H173244   4.121   5.364   1.913  0.2330 -1.8211 -1.0026
17251TIP3    H273245   4.266   5.328   1.891  2.0840  2.9942  2.5246
17252TIP3   OH273246   1.548   3.760  14.947  0.4211  0.9195 -0.3964
17252TIP3    H173247   1.635   3.732  14.918 -0.0092  1.1539 -1.9725
17252TIP3    H273248   1.503   3.785  14.866 -0.7863  1.7052  0.5065
17253TIP3   OH273249   3.278   4.772   1.862 -0.5117  0.0563  0.0078
17253TIP3    H173250   3.188   4.794   1.838 -0.7167 -1.4101 -0.6667
17253TIP3    H273251   3.324   4.856   1.867 -1.8675  0.7894  0.1321
17254TIP3   OH273252   1.714   6.238  13.337  0.9206 -0.3025  0.4275
17254TIP3    H173253   1.719   6.175  13.265 -0.7621 -0.2167  0.2287
17254TIP3    H273254   1.642   6.208  13.391  0.8148  0.8401  0.9315
17255TIP3   OH273255   0.021   6.208  14.521 -0.4287 -0.2518 -0.6519
17255TIP3    H173256  -0.044   6.199  14.591  0.2384 -0.7785 -0.0863
17255TIP3    H273257  -0.017   6.272  14.461 -0.3077  1.4466  1.0188
17256TIP3   OH273258   1.802   2.301   0.589 -0.3740  0.1225 -0.2487
17256TIP3    H173259   1.849   2.275   0.510 -0.0337  1.1635 -0.4027
17256TIP3    H273260   1.714   2.322   0.558 -0.0595  1.1587 -0.4714
17257TIP3   OH273261   1.238   0.036   2.701  0.4602  0.7003  0.3126
17257TIP3    H173262   1.166   0.093   2.728 -0.9483  0.0907 -2.0281
17257TIP3    H273263   1.312   0.094   2.688 -0.1804  1.6134  0.7194
17258TIP3   OH273264   1.786   3.737   3.479 -0.1428 -0.1547 -0.2388
17258TIP3    H173265   1.778   3.701   3.568  0.9392  0.3192  0.0605
17258TIP3    H273266   1.838   3.672   3.432  0.4120  0.2276 -0.1554
17259TIP3   OH273267   5.204   1.793  15.014 -0.1250  0.1158 -0.6350
17259TIP3    H173268   5.225   1.804  15.107 -1.0986 -0.1319 -0.3819
17259TIP3    H273269   5.111   1.768  15.013  0.1385 -0.8664 -1.6128
17260TIP3   OH273270   1.375   1.845   2.372  0.3752  0.0826  0.5536
17260TIP3    H173271   1.291   1.842   2.417  0.2004 -1.5019  0.1554
17260TIP3    H273272   1.357   1.810   2.285  1.1571  1.0798 -0.0219
17261TIP3   OH273273   4.570   3.099   3.805  0.0195  0.3709  0.1873
17261TIP3    H173274   4.496   3.081   3.747  0.1757  0.4572 -0.0389
17261TIP3    H273275   4.570   3.194   3.817  0.7512  0.4893 -0.6933
17262TIP3   OH273276   6.800   2.922  16.990 -0.1908 -0.4502  0.4575
17262TIP3    H173277   6.887   2.961  16.991  0.3143 -1.4940 -0.9706
17262TIP3    H273278   6.768   2.932  17.080  1.1675  0.4290  0.8643
17263TIP3   OH273279   6.760   5.868   5.431 -0.1825 -0.1617  0.0786
17263TIP3    H173280   6.698   5.796   5.439  0.2611 -0.6033 -0.4752
17263TIP3    H273281   6.746   5.920   5.510 -1.3600 -0.1721 -0.1079
17264TIP3   OH273282   4.250   2.193   1.421 -0.0339  0.0940  0.0416
17264TIP3    H173283   4.219   2.273   1.378  0.4827  0.3034  0.0566
17264TIP3    H273284   4.295   2.224   1.500  1.1427 -0.1429 -0.5314
17265TIP3   OH273285   4.481   4.532  15.035  0.0352 -0.0503  0.7505
17265TIP3    H173286   4.531   4.456  15.005 -0.6212  0.3824 -1.5534
17265TIP3    H273287   4.547   4.596  15.061  0.7095  0.2393 -1.5688
17266TIP3   OH273288   1.919   6.690   3.532  0.4089  0.1413  0.0182
17266TIP3    H173289   1.968   6.675   3.451  1.5945  0.4351  0.6629
17266TIP3    H273290   1.920   6.785   3.544 -0.2998  0.1463  0.0505
17267TIP3   OH273291   3.008   0.685   2.047 -0.0211  0.1259  0.0491
17267TIP3    H173292   3.075   0.647   1.991  1.4663  0.8612  1.2758
17267TIP3    H273293   2.946   0.725   1.987  0.6034 -0.6317 -1.1119
17268TIP3   OH273294   1.795   6.500  15.392  0.2254 -0.0472  0.3897
17268TIP3    H173295   1.819   6.493  15.300 -0.9924 -0.9740  0.1293
17268TIP3    H273296   1.841   6.577  15.423  0.1659  0.6218 -1.1479
17269TIP3   OH273297   1.365   6.119   4.632 -0.0770 -0.3018  0.5820
17269TIP3    H173298   1.452   6.126   4.670 -0.4122  0.1620  1.2577
17269TIP3    H273299   1.305   6.131   4.705 -0.7141 -0.3992  0.0820
17270TIP3   OH273300   6.490   4.379  16.660 -0.3539 -0.3497 -0.2674
17270TIP3    H173301   6.412   4.433  16.666  0.3177  0.5864  0.1383
17270TIP3    H273302   6.559   4.439  16.631  0.0296 -1.3487 -1.5004
17271TIP3   OH273303   0.340   0.931  12.694 -0.2064 -0.0556  0.6652
17271TIP3    H173304   0.426   0.971  12.683  0.3421 -1.4511 -0.1711
17271TIP3    H273305   0.286   1.001  12.731  0.9602  1.1984  0.0451
17272TIP3   OH273306   3.445   4.399   3.130 -0.2830 -0.2399  0.0448
17272TIP3    H173307   3.361   4.360   3.106 -1.3153  2.5292 -1.1039
17272TIP3    H273308   3.450   4.391   3.225 -0.5909 -2.7817 -0.1146
17273TIP3   OH273309   1.444   2.136   5.495 -0.9941 -0.0364 -0.1691
17273TIP3    H173310   1.400   2.215   5.465  1.3005  0.9593 -1.0904
17273TIP3    H273311   1.398   2.064   5.451 -0.2672  1.1333 -2.9756
17274TIP3   OH273312   0.288   2.612   3.576 -0.1631 -0.1503 -0.5355
17274TIP3    H173313   0.195   2.589   3.566 -0.2446  0.2470 -0.7331
17274TIP3    H273314   0.286   2.698   3.619  0.1053  0.0893 -1.0004
17275TIP3   OH273315   3.250   3.475  12.665 -0.0119 -0.2686 -0.2039
17275TIP3    H173316   3.265   3.391  12.709 -1.1594 -0.1062  0.5412
17275TIP3    H273317   3.155   3.489  12.673  0.1254  0.9441 -0.5997
17276TIP3   OH273318   3.943   5.352   1.961 -0.6720 -0.0722 -0.5030
17276TIP3    H173319   3.914   5.301   2.036  0.8409 -0.3100 -0.0605
17276TIP3    H273320   3.920   5.298   1.885 -1.1489 -0.3648 -0.1532
17277TIP3   OH273321   4.363   5.188   1.993 -1.2761  0.1395  0.1581
17277TIP3    H173322   4.354   5.225   2.081 -1.4711  1.3781 -0.3739
17277TIP3    H273323   4.457   5.178   1.981 -1.2880 -1.1099  0.9297
17278TIP3   OH273324   1.183   0.987   2.009  0.2145 -0.3247 -0.2132
17278TIP3    H173325   1.121   1.048   1.970 -1.3195 -2.1505 -0.7429
17278TIP3    H273326   1.239   1.041   2.065 -1.1455  1.5311 -0.6041
17279TIP3   OH273327   6.134   0.999  16.601  0.1783 -0.2943  0.1034
17279TIP3    H173328   6.218   0.968  16.565  0.4875  1.4877 -0.8084
17279TIP3    H273329   6.159   1.050  16.678 -0.0639  0.2745 -0.1955
17280TIP3   OH273330   4.847   5.891  16.074 -0.4938  0.3310  0.0955
17280TIP3    H173331   4.869   5.955  16.142  1.5969 -0.4083  0.1448
17280TIP3    H273332   4.812   5.944  16.002 -1.5168  1.2391  1.2245
17281TIP3   OH273333   2.853   6.206   4.687 -0.5585  0.4836 -0.6359
17281TIP3    H173334   2.805   6.259   4.750 -0.6179  0.5759 -0.7613
17281TIP3    H273335   2.937   6.252   4.676 -0.7240  0.7040 -0.9643
17282TIP3   OH273336   0.088   1.895  12.207  0.4738 -0.2645 -0.2142
17282TIP3    H173337   0.102   1.945  12.127  0.6093  0.4647  0.2522
17282TIP3    H273338   0.174   1.859  12.228  0.1767 -1.4530 -1.0492
17283TIP3   OH273339   4.645   6.524   2.019  0.1621 -1.0162  0.1100
17283TIP3    H173340   4.717   6.487   1.969  1.9692  1.7314  0.5427
17283TIP3    H273341   4.569   6.473   1.994  1.9342 -2.8406 -1.7073
17284TIP3   OH273342   5.379   3.963  12.194 -0.3469 -0.9317 -0.5489
17284TIP3    H173343   5.291   4.000  12.208  0.3817  0.0903  1.4706
17284TIP3    H273344   5.374   3.876  12.232 -0.2071 -0.5093  0.4444
17285TIP3   OH273345   3.098   2.975  17.043 -0.1482  0.1636  0.6177
17285TIP3    H173346   3.006   2.969  17.068 -0.2059  1.4440  0.7868
17285TIP3    H273347   3.102   2.936  16.956 -0.7883 -0.2060  0.7522
17286TIP3   OH273348   3.810   1.884   5.537 -0.0573 -0.1058  0.2749
17286TIP3    H173349   3.815   1.820   5.608 -2.2718  1.3878  1.8263
17286TIP3    H273350   3.750   1.844   5.473  2.0195 -1.4956 -0.8728
17287TIP3   OH273351   2.631   2.840  10.208  0.1070 -0.2217  0.1881
17287TIP3    H173352   2.645   2.746  10.201  0.5841 -0.0477 -1.2750
17287TIP3    H273353   2.536   2.849  10.223 -0.0243 -0.9013 -0.2305
17288TIP3   OH273354   5.697   3.254  16.281 -0.3618  0.1898  0.0169
17288TIP3    H173355   5.602   3.255  16.294 -0.6705 -1.7870 -1.8422
17288TIP3    H273356   5.727   3.178  16.331  0.1169  0.2348 -0.2009
17289TIP3   OH273357   4.560   3.566  10.755  0.0000  0.0327 -0.1218
17289TIP3    H173358   4.503   3.496  10.788  0.1146  0.7125  1.5529
17289TIP3    H273359   4.504   3.617  10.697 -0.6994 -0.1743  0.3591
17290TIP3   OH273360   4.102   5.316   0.511  0.1911  0.0107 -0.1580
17290TIP3    H173361   4.138   5.338   0.597 -0.2828  0.4377 -0.0606
17290TIP3    H273362   4.042   5.388   0.492  0.2848 -0.0930 -0.8411
17291TIP3   OH273363   2.794   2.859   0.369 -0.1808  0.0857 -0.1278
17291TIP3    H173364   2.775   2.857   0.463  0.0345  1.2055 -0.0530
17291TIP3    H273365   2.848   2.781   0.354 -0.3159 -0.1655  0.6533
17292TIP3   OH273366   6.793   5.518  15.676  0.6695 -0.5246  0.5765
17292TIP3    H173367   6.743   5.527  15.595 -2.4059  0.9406  2.5479
17292TIP3    H273368   6.767   5.432  15.711  1.6094 -0.9354  0.2863
17293TIP3   OH273369   4.602   4.102   5.538  0.1384 -0.5542  0.0972
17293TIP3    H173370   4.678   4.045   5.526 -0.7426 -1.5193 -0.9133
17293TIP3    H273371   4.578   4.129   5.449 -1.2176 -0.9428  0.3351
17294TIP3   OH273372   0.605   2.952  13.481 -0.5355  0.1565  0.3551
17294TIP3    H173373   0.526   2.936  13.430 -0.2991 -2.8520  0.8233
17294TIP3    H273374   0.584   2.916  13.568  0.4777  1.5500  1.1817
17295TIP3   OH273375   3.005   2.780   9.938  0.1954 -0.2718  0.1823
17295TIP3    H173376   2.932   2.837   9.911  0.0499 -0.4963  0.1016
17295TIP3    H273377   2.962   2.709   9.986  0.4412  0.1048  0.9786
17296TIP3   OH273378   5.526   0.294  13.663 -0.0498 -0.0918  0.0476
17296TIP3    H173379   5.464   0.285  13.592 -0.7985 -1.1486  0.8250
17296TIP3    H273380   5.490   0.365  13.717  1.3772  1.8748 -1.4668
17297TIP3   OH273381   6.442   5.924  12.084 -0.2042  0.5609 -0.5808
17297TIP3    H173382   6.410   5.996  12.030 -0.0255  0.9874 -0.1332
17297TIP3    H273383   6.370   5.862  12.088 -0.3640  0.7197 -0.9629
17298TIP3   OH273384   0.985   3.486  14.788 -0.3231 -0.5314 -0.3703
17298TIP3    H173385   1.037   3.566  14.788  0.4971 -1.0611 -0.3528
17298TIP3    H273386   1.002   3.446  14.873 -1.4200 -0.2850 -0.0270
17299TIP3   OH273387   5.071   0.914   5.246  0.1771 -0.3857 -0.0577
17299TIP3    H173388   5.038   0.942   5.161  1.1442 -0.0792 -0.3390
17299TIP3    H273389   5.028   0.972   5.309  1.0407  0.7894 -0.5180
17300TIP3   OH273390   0.356   5.148   6.908 -0.0009  0.2824 -0.4973
17300TIP3    H173391   0.366   5.232   6.863 -0.9089  0.5269 -0.2644
17300TIP3    H273392   0.445   5.120   6.927  0.3903  0.3449 -2.1281
17301TIP3   OH273393   4.656   2.656  14.453 -0.2399 -0.2232 -0.1184
17301TIP3    H173394   4.663   2.670  14.359 -1.9412 -0.2482 -0.2586
17301TIP3    H273395   4.562   2.657  14.471 -0.1038 -3.4340  1.1176
17302TIP3   OH273396   1.690   2.517   2.264 -0.1087  0.6540 -0.2512
17302TIP3    H173397   1.715   2.579   2.195 -0.7615  0.0868 -1.0105
17302TIP3    H273398   1.602   2.543   2.288  0.6861  1.8263  1.4913
17303TIP3   OH273399   5.281   5.811  12.085  0.8873 -0.0682  0.2819
17303TIP3    H173400   5.202   5.831  12.036  1.0368 -1.1332 -0.4256
17303TIP3    H273401   5.251   5.768  12.165  0.6738  1.0679  0.8156
17304TIP3   OH273402   1.704   2.504  10.876 -0.4202  0.1534 -0.8086
17304TIP3    H173403   1.712   2.527  10.968  0.1763  1.6090 -1.2071
17304TIP3    H273404   1.612   2.480  10.865 -0.3891 -0.5165  0.2574
17305TIP3   OH273405   1.303   1.054  12.207  0.1845  0.3114  0.3628
17305TIP3    H173406   1.286   0.987  12.273  1.3247  0.1402  0.4865
17305TIP3    H273407   1.355   1.010  12.140 -0.1381  0.7395 -0.1759
17306TIP3   OH273408   5.524   2.981   4.368 -0.1073  0.2609 -0.9326
17306TIP3    H173409   5.550   2.903   4.319  1.2641  0.0494  0.0879
17306TIP3    H273410   5.448   2.953   4.418  0.8193 -0.6757 -0.0033
17307TIP3   OH273411   6.281   0.934   1.809 -0.5664  0.3451 -0.3933
17307TIP3    H173412   6.287   0.946   1.903 -1.3768  0.5229 -0.3589
17307TIP3    H273413   6.372   0.921   1.780 -0.5106 -1.9756  0.7076
17308TIP3   OH273414   2.277   3.522  17.042  0.0056  0.3562 -0.7629
17308TIP3    H173415   2.205   3.583  17.060 -0.1266  0.1417 -0.5529
17308TIP3    H273416   2.351   3.578  17.020  0.5208  0.6715  1.6837
17309TIP3   OH273417   0.173   0.745  12.528 -0.2296  0.0056  0.2000
17309TIP3    H173418   0.240   0.733  12.461  0.0870  0.7553  0.3709
17309TIP3    H273419   0.199   0.826  12.573 -1.0338  0.0922  0.5186
17310TIP3   OH273420   2.561   4.612   5.796  0.0068 -0.0005  0.0954
17310TIP3    H173421   2.641   4.664   5.790 -0.3936  0.5418 -0.6505
17310TIP3    H273422   2.570   4.544   5.729 -0.7187  0.8639 -0.9114
17311TIP3   OH273423   4.665   5.038  12.193 -0.3017  0.3576 -0.3214
17311TIP3    H173424   4.608   4.974  12.149 -2.7096  1.7183  0.7240
17311TIP3    H273425   4.736   5.054  12.130 -0.1802 -2.5694 -1.0111
17312TIP3   OH273426   3.563   4.639  10.512  0.5682  0.0614  0.6775
17312TIP3    H173427   3.632   4.667  10.451  0.8593  1.1443  1.4764
17312TIP3    H273428   3.483   4.674  10.475  0.8288  1.2810  1.2467
17313TIP3   OH273429   3.510   3.916  16.302 -0.1471 -0.0284  0.6706
17313TIP3    H173430   3.490   4.004  16.269  1.3534  0.3794  0.8347
17313TIP3    H273431   3.597   3.896  16.269 -0.6368 -1.6434  0.2924
17314TIP3   OH273432   4.414   4.078  10.775  0.4995  0.0308  0.2665
17314TIP3    H173433   4.347   4.109  10.714 -0.6790  0.9990  2.0073
17314TIP3    H273434   4.496   4.115  10.741 -0.1684  0.6930 -0.6417
17315TIP3   OH273435   5.119   0.410  13.279 -0.1716  0.4167 -0.7722
17315TIP3    H173436   5.203   0.371  13.256 -0.8691 -1.1029 -0.7987
17315TIP3    H273437   5.140   0.478  13.343  0.8476 -1.4694  0.9290
17316TIP3   OH273438   1.190   3.684   5.734 -0.2910  0.7105  0.0440
17316TIP3    H173439   1.148   3.606   5.698 -0.3661  0.0958  1.4316
17316TIP3    H273440   1.244   3.717   5.663 -0.3655 -0.5278 -0.6058
17317TIP3   OH273441   0.343   2.456   1.062  0.4998  0.5813  0.6204
17317TIP3    H173442   0.305   2.413   0.985  0.2298  0.6141  0.7384
17317TIP3    H273443   0.351   2.548   1.036 -0.9397  0.8561  1.1660
17318TIP3   OH273444   4.066   4.841  14.160 -0.3768 -0.2772  0.0004
17318TIP3    H173445   4.047   4.757  14.201 -2.5845  0.4711  0.5579
17318TIP3    H273446   4.084   4.900  14.233  0.8987 -0.1746 -0.3790
17319TIP3   OH273447   3.190   1.157  15.634  0.1543  0.0846 -0.0323
17319TIP3    H173448   3.223   1.211  15.563  1.2986  0.8038  1.0291
17319TIP3    H273449   3.097   1.144  15.613  0.8538 -1.1552 -2.5187
17320TIP3   OH273450   0.003   3.176  11.727 -0.0628 -0.3183 -0.1557
17320TIP3    H173451   0.023   3.270  11.731 -0.0953 -0.2609 -1.3551
17320TIP3    H273452   0.031   3.143  11.813  2.0855  0.3709 -0.5461
17321TIP3   OH273453   1.910   0.918  12.875 -0.2340 -0.4222  0.5574
17321TIP3    H173454   1.952   0.990  12.922  0.0809 -0.4642  0.3338
17321TIP3    H273455   1.966   0.842  12.892 -1.5624 -1.0448  2.3539
17322TIP3   OH273456   1.448   2.137   3.285  0.1786  0.2683 -0.3025
17322TIP3    H173457   1.370   2.084   3.271 -0.2104  0.8427 -0.3426
17322TIP3    H273458   1.502   2.086   3.345 -0.6548  0.2866  0.4775
17323TIP3   OH273459   0.370   3.716  15.168  0.1062  0.0171 -0.4555
17323TIP3    H173460   0.433   3.783  15.145 -1.5652  1.5278 -0.7135
17323TIP3    H273461   0.423   3.641  15.194  1.9940  1.4600 -0.0698
17324TIP3   OH273462   6.170   4.354  17.133 -0.3534  0.2224 -0.2111
17324TIP3    H173463   6.090   4.320  17.094 -0.5262  0.3603  0.0246
17324TIP3    H273464   6.161   4.449  17.130 -0.5375  0.2309  0.5121
17325TIP3   OH273465   0.169   5.832   2.623 -0.1483  0.2228  0.1776
17325TIP3    H173466   0.206   5.791   2.701  0.3654 -1.5155 -0.9386
17325TIP3    H273467   0.245   5.860   2.572 -0.4559  0.2435 -0.2763
17326TIP3   OH273468   5.857   1.968   6.056  0.2258  0.1621 -0.5421
17326TIP3    H173469   5.898   1.981   6.141 -0.3629  1.4193 -0.4498
17326TIP3    H273470   5.772   1.930   6.076 -0.4680  1.7385 -0.4957
17327TIP3   OH273471   1.766   2.320   2.814 -0.2253 -0.3759 -0.2854
17327TIP3    H173472   1.808   2.375   2.748  1.0995  0.4507  1.2188
17327TIP3    H273473   1.695   2.375   2.849  0.2122 -0.1325  0.2304
17328TIP3   OH273474   3.523   4.128  13.793 -0.6046  0.2785 -0.0074
17328TIP3    H173475   3.583   4.197  13.820 -1.1703  1.1244 -0.8919
17328TIP3    H273476   3.459   4.124  13.865 -0.6582  0.7854 -0.0232
17329TIP3   OH273477   4.010   6.649  14.263 -1.0157 -0.5248  0.4724
17329TIP3    H173478   4.028   6.578  14.201 -0.4965 -0.1931  0.2400
17329TIP3    H273479   4.032   6.612  14.349 -1.5128 -0.9086  0.4358
17330TIP3   OH273480   0.394   0.975   0.715 -0.3222 -0.3573 -0.0636
17330TIP3    H173481   0.354   0.965   0.629 -0.8852 -0.6137  0.2248
17330TIP3    H273482   0.488   0.970   0.698 -0.3724  1.1127 -0.8494
17331TIP3   OH273483   6.379   4.894   5.898 -0.2382 -0.4470 -0.1324
17331TIP3    H173484   6.344   4.827   5.956  2.9295 -2.0145  0.0750
17331TIP3    H273485   6.410   4.962   5.958  0.7034 -0.8950 -0.1078
17332TIP3   OH273486   3.629   3.569  17.099 -0.0150 -0.7239 -0.4021
17332TIP3    H173487   3.583   3.569  17.183  2.1355  2.1468  0.8511
17332TIP3    H273488   3.562   3.593  17.035 -1.3401 -1.4436  0.6719
17333TIP3   OH273489   5.385   2.461   1.138  0.6462 -0.2370 -0.0079
17333TIP3    H173490   5.313   2.418   1.092  1.1549 -1.9794  0.7503
17333TIP3    H273491   5.347   2.489   1.221  0.4973  0.0981 -0.1893
17334TIP3   OH273492   2.802   4.452  16.912 -0.2635  0.4766  0.5168
17334TIP3    H173493   2.883   4.409  16.938 -0.0869  1.3869  1.4837
17334TIP3    H273494   2.831   4.526  16.859 -0.5689 -0.6105 -1.2283
17335TIP3   OH273495   0.148   4.079  14.548 -0.6558  0.4330 -0.1238
17335TIP3    H173496   0.124   4.046  14.634 -1.2201 -1.9989 -1.1543
17335TIP3    H273497   0.243   4.074  14.545 -0.5813  1.3857  0.6813
17336TIP3   OH273498   3.840   2.324  11.710 -0.2613  0.3195 -0.2724
17336TIP3    H173499   3.897   2.329  11.787  0.2544  0.5534 -0.6671
17336TIP3    H273500   3.856   2.407  11.664  1.3035 -0.8705 -1.9463
17337TIP3   OH273501   4.456   6.579  13.132 -1.1584  0.3967 -0.7553
17337TIP3    H173502   4.479   6.516  13.200  0.2350  1.0158 -0.6384
17337TIP3    H273503   4.362   6.592  13.141 -0.8176  1.2698  1.7300
17338TIP3   OH273504   6.521   4.265   4.148 -0.1836 -0.3009  0.6696
17338TIP3    H173505   6.448   4.223   4.102  0.8605 -2.8230  1.1988
17338TIP3    H273506   6.493   4.267   4.239 -0.5338  0.8576  0.5394
17339TIP3   OH273507   1.459   1.081  13.344  0.3857 -0.2933 -0.3398
17339TIP3    H173508   1.527   1.047  13.402  0.3047  0.0083 -0.0615
17339TIP3    H273509   1.461   1.024  13.267  0.5129 -0.6829 -0.0489
17340TIP3   OH273510   5.719   1.993   2.513  0.7198  0.2231  0.6241
17340TIP3    H173511   5.730   1.920   2.452  0.8455 -0.0733  1.0044
17340TIP3    H273512   5.800   1.994   2.564  0.4943  0.2968  0.9796
17341TIP3   OH273513   2.511   2.120   5.880 -0.4745  0.2090  0.6653
17341TIP3    H173514   2.592   2.077   5.907 -1.3375 -1.5668  0.5147
17341TIP3    H273515   2.442   2.069   5.923 -1.5262  1.4368  0.4532
17342TIP3   OH273516   1.845   0.659  11.010  0.1378  0.1246 -0.0334
17342TIP3    H173517   1.827   0.580  10.958 -0.1440  0.5983 -0.6627
17342TIP3    H273518   1.766   0.712  11.001 -0.3822 -0.2857  1.8307
17343TIP3   OH273519   4.819   1.282   1.869  0.1258  0.3449 -0.0912
17343TIP3    H173520   4.754   1.352   1.868  0.3541  0.6262  1.6762
17343TIP3    H273521   4.777   1.209   1.824 -1.3398  0.5900  0.8299
17344TIP3   OH273522   1.796   2.843  15.369 -0.2395  0.3989 -0.4044
17344TIP3    H173523   1.786   2.756  15.331  0.0592 -0.0146  0.4369
17344TIP3    H273524   1.719   2.892  15.340 -2.3149 -1.2600  2.1165
17345TIP3   OH273525   5.071   0.552   1.207 -0.1022 -0.1495 -0.2969
17345TIP3    H173526   5.033   0.627   1.162 -1.2330 -0.5146  0.0298
17345TIP3    H273527   5.109   0.499   1.137  1.5477  1.1769 -0.4428
17346TIP3   OH273528   0.561   1.033  13.836  0.9461 -0.1183  0.0138
17346TIP3    H173529   0.497   1.101  13.856  1.3465  0.3930 -0.4321
17346TIP3    H273530   0.549   1.016  13.742  1.6969  0.2169 -0.1442
17347TIP3   OH273531   2.650   1.912  16.724  0.4529  0.1402 -0.2536
17347TIP3    H173532   2.591   1.965  16.670  1.2766  1.5369  0.1867
17347TIP3    H273533   2.702   1.862  16.661 -0.1077  0.0941 -0.6861
17348TIP3   OH273534   1.850   6.601   0.059  0.3126 -0.0618 -0.1396
17348TIP3    H173535   1.793   6.639   0.126 -0.1184 -1.3006  0.2241
17348TIP3    H273536   1.938   6.627   0.085  0.0289  0.6472  0.1174
17349TIP3   OH273537   2.179   4.495  14.178 -0.1032 -0.0453 -0.4701
17349TIP3    H173538   2.128   4.512  14.098 -1.0614  0.4103  0.2302
17349TIP3    H273539   2.267   4.474  14.146 -1.5848 -4.7340 -1.9589
17350TIP3   OH273540   5.111   6.405  13.127  0.0119  0.1525  0.3935
17350TIP3    H173541   5.057   6.328  13.149 -1.4265  0.6184 -1.3861
17350TIP3    H273542   5.060   6.479  13.160  0.9181  0.4336  1.1882
17351TIP3   OH273543   6.630   2.117  13.155  0.8998  0.3528 -0.2324
17351TIP3    H173544   6.543   2.142  13.125  0.5693 -0.2259  0.2292
17351TIP3    H273545   6.651   2.039  13.103  0.2308 -0.7871  1.1877
17352TIP3   OH273546   0.897   3.881   3.438 -0.7094 -0.1709 -0.0862
17352TIP3    H173547   0.975   3.830   3.459  0.3884  1.8443  0.8503
17352TIP3    H273548   0.834   3.816   3.406  0.7032 -2.0773  0.9035
17353TIP3   OH273549   4.237   5.599  11.281 -0.5711 -0.1046  0.3445
17353TIP3    H173550   4.162   5.638  11.237  0.3133 -0.8509 -1.9017
17353TIP3    H273551   4.225   5.504  11.269  0.8885 -0.2185 -0.3256
17354TIP3   OH273552   5.834   0.034  16.591 -0.2073  0.0890 -0.3532
17354TIP3    H173553   5.813  -0.045  16.542 -1.4262  0.5561 -0.5997
17354TIP3    H273554   5.912   0.068  16.549  0.0211 -0.6971 -0.5793
17355TIP3   OH273555   3.952   1.529  13.356  0.0831  0.0071 -0.4814
17355TIP3    H173556   3.932   1.602  13.416  0.9217 -1.7698  2.0524
17355TIP3    H273557   4.000   1.571  13.284  2.4755  1.7491  1.9711
17356TIP3   OH273558   2.346   0.659  12.956  0.2521  0.6568  0.4242
17356TIP3    H173559   2.261   0.620  12.936 -0.3327  1.5961  1.0504
17356TIP3    H273560   2.332   0.753  12.947  1.6906  0.7407 -1.2165
17357TIP3   OH273561   4.102   1.836  13.682  0.1241 -0.0191  0.3628
17357TIP3    H173562   4.128   1.867  13.769  0.8694  0.4230 -0.0076
17357TIP3    H273563   4.131   1.905  13.622  2.4024 -1.6930 -0.5546
17358TIP3   OH273564   5.039   4.825   5.208  0.1513 -0.7126  0.2598
17358TIP3    H173565   5.107   4.850   5.270 -0.7815 -2.8442  2.1966
17358TIP3    H273566   5.066   4.739   5.175  0.4203  0.2038 -2.0125
17359TIP3   OH273567   6.386   3.125  14.387  0.1007  0.4498  0.2327
17359TIP3    H173568   6.410   3.153  14.299  1.1625 -0.3648  0.2471
17359TIP3    H273569   6.467   3.134  14.438  0.7425 -3.3108  0.0524
17360TIP3   OH273570   5.579   5.138   4.390  0.3290  0.5848 -0.6741
17360TIP3    H173571   5.602   5.092   4.470  1.1960  2.5336  0.2160
17360TIP3    H273572   5.556   5.068   4.328 -0.5967 -0.9104  1.3282
17361TIP3   OH273573   0.420   6.514  17.135  0.2340  0.0283  0.2239
17361TIP3    H173574   0.500   6.529  17.084  0.5193  0.6856  0.8562
17361TIP3    H273575   0.353   6.562  17.088 -0.1404 -1.8478 -1.2203
17362TIP3   OH273576   4.853   0.747   2.058 -0.0810 -0.3995  0.1544
17362TIP3    H173577   4.899   0.705   1.984 -2.2693 -1.3368 -0.6987
17362TIP3    H273578   4.767   0.706   2.059 -0.7266  0.9643  2.0869
17363TIP3   OH273579   2.971   1.218   4.176 -0.0458  0.5732 -0.1598
17363TIP3    H173580   2.996   1.217   4.269  1.2442 -0.9833 -0.5150
17363TIP3    H273581   3.054   1.227   4.129 -0.5144 -0.5222 -1.2283
17364TIP3   OH273582   5.120   3.181   4.525 -0.0199 -0.4499  0.1045
17364TIP3    H173583   5.202   3.148   4.562 -0.4439 -1.2662  0.3141
17364TIP3    H273584   5.105   3.264   4.572  0.4646 -0.5092  0.3640
17365TIP3   OH273585   5.654   0.997   3.171  0.0250 -0.1791  0.0371
17365TIP3    H173586   5.710   1.052   3.116 -0.6394  0.3019 -0.1676
17365TIP3    H273587   5.627   0.926   3.113 -1.2271  0.6944 -0.4770
17366TIP3   OH273588   2.160   6.038  16.112  0.0346 -0.4263  0.2846
17366TIP3    H173589   2.158   6.055  16.206  1.1679 -1.6104  0.5372
17366TIP3    H273590   2.090   6.093  16.076  2.3460  3.3479  1.2774
17367TIP3   OH273591   5.920   1.663   4.287 -0.2289 -0.7108 -0.1924
17367TIP3    H173592   5.835   1.645   4.247 -0.9656  0.5428  0.7917
17367TIP3    H273593   5.909   1.640   4.379  0.8432 -1.6257 -0.2817
17368TIP3   OH273594   0.202   0.849  10.671 -0.0947 -0.5173 -0.9289
17368TIP3    H173595   0.233   0.875  10.757 -1.2856 -2.4053  0.0992
17368TIP3    H273596   0.107   0.855  10.676 -0.2758 -2.4274 -1.4937
17369TIP3   OH273597   5.768   5.468  13.539 -0.0699 -0.5009  0.6416
17369TIP3    H173598   5.810   5.532  13.481 -0.4759 -0.8895 -0.0710
17369TIP3    H273599   5.835   5.401  13.553 -0.1164 -0.6283  0.2718
17370TIP3   OH273600   4.847   1.697   3.872  0.7252 -0.2452 -1.0265
17370TIP3    H173601   4.878   1.668   3.958  4.3669 -0.3493 -2.2877
17370TIP3    H273602   4.873   1.627   3.812 -1.6356 -0.1077 -2.3041
17371TIP3   OH273603   0.186   5.662   3.740  0.2593  0.5218  0.2221
17371TIP3    H173604   0.184   5.719   3.663  0.3871  1.5925  0.9973
17371TIP3    H273605   0.275   5.670   3.774  0.5425 -0.8544 -0.1803
17372TIP3   OH273606   1.204   2.417   5.102  0.1624 -0.0566  0.6079
17372TIP3    H173607   1.172   2.368   5.027 -1.2970  0.6968  0.7177
17372TIP3    H273608   1.245   2.495   5.065  0.4594 -0.2389  0.5483
17373TIP3   OH273609   4.183   2.750  12.144  0.4242 -0.4403 -0.2202
17373TIP3    H173610   4.170   2.826  12.086  0.9720  0.9633  1.4637
17373TIP3    H273611   4.277   2.735  12.141  0.5226 -0.0085  0.7488
17374TIP3   OH273612   1.976   2.131   0.425  0.2065  0.8089 -0.1116
17374TIP3    H173613   1.990   2.053   0.477 -0.5335 -0.5369 -1.8560
17374TIP3    H273614   2.062   2.172   0.418  0.5424  0.2966  1.0487
17375TIP3   OH273615   3.930   0.559   0.588  0.0866  0.5214 -0.3733
17375TIP3    H173616   3.895   0.496   0.651 -2.3390  0.1027 -2.0584
17375TIP3    H273617   3.986   0.507   0.531  0.1788  0.3965 -0.1698
17376TIP3   OH273618   1.903   3.803   1.560  0.5897  0.8317 -0.5865
17376TIP3    H173619   1.830   3.741   1.552  0.7205  0.4866  0.7643
17376TIP3    H273620   1.902   3.830   1.652  2.7140  0.1135 -0.3089
17377TIP3   OH273621   3.873   0.540   5.275 -0.0895 -0.0253 -0.5331
17377TIP3    H173622   3.912   0.456   5.252  0.1498  0.3009 -1.3233
17377TIP3    H273623   3.933   0.579   5.338  0.3586  0.0297 -0.9896
17378TIP3   OH273624   6.354   1.937  12.572  0.2701 -0.1592 -0.6068
17378TIP3    H173625   6.335   1.888  12.491  1.6115  0.7712 -1.5062
17378TIP3    H273626   6.329   1.877  12.642  0.6524 -1.6288 -1.6920
17379TIP3   OH273627   0.838   0.551  11.652  0.2548 -0.2122 -0.2306
17379TIP3    H173628   0.908   0.522  11.711  0.9565  0.1322 -0.8929
17379TIP3    H273629   0.763   0.567  11.710  1.1092  0.6952  0.6479
17380TIP3   OH273630   0.587   1.304  14.863 -0.5637 -0.2083  0.1094
17380TIP3    H173631   0.638   1.333  14.939 -0.2925  1.6398 -0.7522
17380TIP3    H273632   0.528   1.377  14.844 -0.8232 -0.7634 -1.2660
17381TIP3   OH273633   0.684   4.348   5.483 -0.8927  0.4705  0.0564
17381TIP3    H173634   0.618   4.322   5.547  1.1203 -2.2546  1.1042
17381TIP3    H273635   0.684   4.277   5.418  0.8413  0.5377 -0.0434
17382TIP3   OH273636   6.324   4.879   3.326  0.1410 -0.8037 -0.2008
17382TIP3    H173637   6.290   4.806   3.379  0.1755 -0.0256  0.9075
17382TIP3    H273638   6.257   4.892   3.258 -0.8761 -0.5291  0.8297
17383TIP3   OH273639   0.117   4.967   3.656 -0.4926  0.3394 -0.0540
17383TIP3    H173640   0.042   4.997   3.605 -0.2505  0.8025 -0.1436
17383TIP3    H273641   0.194   4.993   3.604 -0.2883 -1.1303 -0.5107
17384TIP3   OH273642   2.289   2.738  16.002 -0.7908  0.0940  0.4210
17384TIP3    H173643   2.292   2.751  15.907  0.4403 -1.1619  0.2578
17384TIP3    H273644   2.364   2.681  16.020 -1.7661 -0.7263  1.9835
17385TIP3   OH273645   1.232   4.463  13.772 -0.8013 -0.1972  0.2335
17385TIP3    H173646   1.322   4.483  13.744 -1.6758  1.1280 -1.7359
17385TIP3    H273647   1.228   4.368  13.773  0.4268 -0.2700 -0.3380
17386TIP3   OH273648   3.252   3.598   0.436  0.1734  0.0983  0.1187
17386TIP3    H173649   3.178   3.566   0.487  1.6528  0.9368  2.8970
17386TIP3    H273650   3.274   3.525   0.377 -2.5699 -0.2942 -0.4542
17387TIP3   OH273651   3.240   0.144   4.144  0.5831  0.4752 -0.1883
17387TIP3    H173652   3.199   0.165   4.227  1.8998 -1.3592  0.9758
17387TIP3    H273653   3.167   0.138   4.082 -0.2602  3.4318  0.4299
17388TIP3   OH273654   6.592   6.054  13.309  0.5176 -0.2416 -0.2654
17388TIP3    H173655   6.635   6.010  13.383 -0.2444 -2.5207 -1.1361
17388TIP3    H273656   6.509   6.086  13.344  1.3523  1.1121  0.5315
17389TIP3   OH273657   0.260   0.031   0.507 -0.7467 -0.0581 -0.0231
17389TIP3    H173658   0.327  -0.037   0.498 -1.0743 -0.5917  1.4845
17389TIP3    H273659   0.177  -0.015   0.491 -0.9877 -0.0761  1.2354
17390TIP3   OH273660   6.644   3.852   3.349 -0.0343 -0.1532 -0.5958
17390TIP3    H173661   6.701   3.875   3.423  2.1045 -1.0369 -1.9195
17390TIP3    H273662   6.627   3.935   3.305  2.9030 -0.2582 -2.0250
17391TIP3   OH273663   1.982   3.682   4.087 -0.1439  0.2725  0.0685
17391TIP3    H173664   1.914   3.679   4.019 -2.5123  0.3667  2.3528
17391TIP3    H273665   2.059   3.718   4.043 -1.1226 -1.2156 -2.9647
17392TIP3   OH273666   2.473   5.066   0.566 -0.1787 -0.0036 -0.1998
17392TIP3    H173667   2.513   5.069   0.480 -0.8679  2.0612 -0.4776
17392TIP3    H273668   2.473   4.973   0.590  0.1422 -0.5690 -2.3461
17393TIP3   OH273669   1.505   6.137   1.020  0.0001  0.2304 -0.2179
17393TIP3    H173670   1.486   6.213   0.965  0.0700  0.5967  0.2664
17393TIP3    H273671   1.545   6.173   1.099 -0.7755 -0.2249  0.3973
17394TIP3   OH273672   1.272   5.808   4.108 -0.0805 -0.3446  0.3628
17394TIP3    H173673   1.236   5.893   4.085  0.4750 -0.1620  0.1417
17394TIP3    H273674   1.197   5.756   4.136 -0.6820 -0.3339 -1.1816
17395TIP3   OH273675   6.334   5.992  16.765 -0.1693 -0.0424  0.0855
17395TIP3    H173676   6.287   5.909  16.770  0.5888 -0.6416 -2.1107
17395TIP3    H273677   6.377   5.990  16.679  1.0900  1.9608  0.6374
17396TIP3   OH273678   1.389   5.817  14.118  0.0071  0.0732  0.0621
17396TIP3    H173679   1.412   5.750  14.182  1.4528  0.5828  0.0938
17396TIP3    H273680   1.462   5.817  14.056 -1.1245 -0.0525 -1.3104
17397TIP3   OH273681   3.967   1.677  12.202 -0.3351 -0.9791 -0.5769
17397TIP3    H173682   3.899   1.667  12.136 -0.1249 -0.9201 -0.8073
17397TIP3    H273683   3.920   1.693  12.284 -0.5718  1.4697 -1.1516
17398TIP3   OH273684   0.656   0.331   2.929 -0.0614 -0.1444 -0.6076
17398TIP3    H173685   0.726   0.267   2.943 -1.5672 -2.1432 -1.9326
17398TIP3    H273686   0.592   0.311   2.997  0.3497  1.2661  0.2081
17399TIP3   OH273687   2.790   5.605   0.059  0.1511  0.8825 -0.0867
17399TIP3    H173688   2.697   5.583   0.066  0.2674  0.6398  0.6877
17399TIP3    H273689   2.820   5.613   0.149  0.8403  1.1532 -0.3370
17400TIP3   OH273690   0.876   5.437   0.598 -0.2837  0.3633  0.1091
17400TIP3    H173691   0.795   5.459   0.643 -1.1104  0.3581 -1.3594
17400TIP3    H273692   0.921   5.521   0.586 -0.8047  0.5548 -0.4815
17401TIP3   OH273693   3.379   5.082   1.398 -0.2329 -0.2245 -0.0768
17401TIP3    H173694   3.330   5.020   1.451  1.6612 -1.2104  0.5781
17401TIP3    H273695   3.364   5.167   1.442 -0.3187 -0.7097  0.8511
17402TIP3   OH273696   6.086   6.658   0.745 -0.0928 -0.3201 -0.2241
17402TIP3    H173697   5.998   6.657   0.783 -0.8072  2.2327 -1.6500
17402TIP3    H273698   6.144   6.645   0.819 -1.6450 -0.6065  0.9679
17403TIP3   OH273699   0.700   0.630  17.267 -0.1424  0.2592 -0.3868
17403TIP3    H173700   0.735   0.544  17.290  0.5609  0.6215 -0.1084
17403TIP3    H273701   0.608   0.626  17.295 -0.5916 -0.9998 -1.9431
17404TIP3   OH273702   4.835   5.666   5.234  0.1201  0.0113  0.2837
17404TIP3    H173703   4.894   5.722   5.285 -0.8263  0.7207  0.6215
17404TIP3    H273704   4.749   5.680   5.274 -0.2293 -1.2257 -0.0215
17405TIP3   OH273705   5.420   3.593  14.505  0.3080 -0.1840 -0.8604
17405TIP3    H173706   5.512   3.579  14.529 -0.0335 -0.1326  0.5248
17405TIP3    H273707   5.417   3.579  14.410  1.7201 -0.3049 -0.8921
17406TIP3   OH273708   2.151   5.015   2.247  0.4991 -0.5410  0.2596
17406TIP3    H173709   2.185   5.103   2.263  1.4317 -0.2153 -3.0072
17406TIP3    H273710   2.057   5.027   2.239  0.5305  0.0204  0.7205
17407TIP3   OH273711   0.259   2.325  16.860 -0.1553  0.4560 -0.9258
17407TIP3    H173712   0.190   2.327  16.795 -0.7132 -0.0047 -0.3540
17407TIP3    H273713   0.309   2.246  16.839 -0.1942  0.4348 -0.9402
17408TIP3   OH273714   6.503   1.310   3.057  0.8303 -0.6830  0.1664
17408TIP3    H173715   6.489   1.352   3.142  2.6877  2.2116 -0.9121
17408TIP3    H273716   6.598   1.308   3.046  0.5764  2.2319 -3.3691
17409TIP3   OH273717   2.182   3.913   5.414 -0.6059  0.1378  0.3748
17409TIP3    H173718   2.254   3.863   5.375 -0.7431  0.8412 -0.7932
17409TIP3    H273719   2.221   3.999   5.432 -1.0228  0.3681  0.1740
17410TIP3   OH273720   2.988   0.724   3.417  0.6379  0.1067 -0.0972
17410TIP3    H173721   2.974   0.707   3.511 -0.0955  0.3416 -0.1615
17410TIP3    H273722   2.912   0.775   3.390 -0.3892 -2.0197 -1.3663
17411TIP3   OH273723   0.291   4.403   0.944 -0.1240 -0.2307 -0.3128
17411TIP3    H173724   0.301   4.317   0.984 -0.3856 -0.7539 -1.3448
17411TIP3    H273725   0.258   4.459   1.014 -1.5938 -1.3742 -0.0753
17412TIP3   OH273726   4.404   4.863   3.441 -0.5074  0.2939 -0.1635
17412TIP3    H173727   4.386   4.895   3.352  0.2238 -1.0426 -0.8072
17412TIP3    H273728   4.349   4.785   3.450  1.6245 -1.2901 -0.5514
17413TIP3   OH273729   1.512   5.683  15.587 -0.1993 -0.2145 -0.5456
17413TIP3    H173730   1.565   5.727  15.653  0.6996 -1.0246 -0.7165
17413TIP3    H273731   1.424   5.717  15.601  0.5006  1.8215 -0.8133
17414TIP3   OH273732   6.780   3.445   1.460  0.0371  0.2436 -0.2577
17414TIP3    H173733   6.689   3.468   1.442  0.3836  1.4931 -0.4183
17414TIP3    H273734   6.832   3.515   1.420  1.2378 -2.1448 -3.1391
17415TIP3   OH273735   2.433   2.029   5.629 -0.6403  0.8375 -0.7183
17415TIP3    H173736   2.417   2.101   5.567 -2.2621  1.3145  0.2196
17415TIP3    H273737   2.451   2.072   5.712  0.5571  0.1776 -0.6210
17416TIP3   OH273738   0.681   2.023   1.159 -0.5021 -0.5431 -0.0078
17416TIP3    H173739   0.603   2.048   1.109 -0.3145  0.5119  0.2118
17416TIP3    H273740   0.657   2.039   1.250 -0.1230 -0.4482  0.0771
17417TIP3   OH273741   6.349   0.204  11.196  0.2624 -0.1259 -0.2591
17417TIP3    H173742   6.349   0.253  11.113 -1.0327 -1.8810 -1.3290
17417TIP3    H273743   6.261   0.167  11.202  1.1077 -2.0425  0.7005
17418TIP3   OH273744   4.866   5.755  14.213  0.3171  0.3815  0.4320
17418TIP3    H173745   4.951   5.726  14.180 -0.0424  0.5356 -0.6412
17418TIP3    H273746   4.828   5.677  14.253 -0.6814 -0.6767 -2.5105
17419TIP3   OH273747   0.478   0.406   1.889 -0.1525  0.2805 -0.1202
17419TIP3    H173748   0.463   0.500   1.893 -3.0624 -0.1058 -0.4980
17419TIP3    H273749   0.459   0.375   1.978  2.6124  0.2504  0.4937
17420TIP3   OH273750   1.746   0.518   0.527 -0.4961 -0.5741  0.1317
17420TIP3    H173751   1.703   0.497   0.444 -0.9584  1.2985 -0.1335
17420TIP3    H273752   1.839   0.526   0.504 -0.0818 -3.8454  0.5537
17421TIP3   OH273753   6.365   0.184  12.070  0.0504  0.2599  0.2230
17421TIP3    H173754   6.429   0.196  12.000 -0.6612  0.1640 -0.4556
17421TIP3    H273755   6.282   0.172  12.024 -0.6074  1.3273  1.1177
17422TIP3   OH273756   1.839   0.709   4.826 -0.1086  1.0046  0.0088
17422TIP3    H173757   1.847   0.741   4.737 -0.4778  1.3682  0.1061
17422TIP3    H273758   1.751   0.673   4.832  0.2289  0.1360 -0.0412
17423TIP3   OH273759   0.510   1.276   3.102  0.2136 -0.0887  0.4899
17423TIP3    H173760   0.521   1.195   3.052  0.3540  0.9157 -1.1509
17423TIP3    H273761   0.417   1.296   3.095  0.3934  0.5481 -0.1819
17424TIP3   OH273762   4.200   1.226   1.046  0.1701 -0.0910  0.0277
17424TIP3    H173763   4.285   1.238   1.089  0.0711 -2.1878  0.8753
17424TIP3    H273764   4.213   1.154   0.985  0.1973  2.6412 -3.2836
17425TIP3   OH273765   5.761   5.446  11.235  0.4181 -0.5156 -0.2290
17425TIP3    H173766   5.788   5.535  11.213 -0.9260  0.3945  1.6453
17425TIP3    H273767   5.749   5.448  11.330 -1.2889 -2.2282 -0.3946
17426TIP3   OH273768   2.008   3.381   4.757 -0.0554 -0.4806  0.3079
17426TIP3    H173769   2.053   3.349   4.679  1.2350  2.1676 -0.0776
17426TIP3    H273770   1.917   3.354   4.745  0.4384 -1.5263 -1.2927
17427TIP3   OH273771   4.721   2.429   5.766  0.5425  0.1309  0.0627
17427TIP3    H173772   4.681   2.513   5.741 -1.0916 -0.7058 -0.1892
17427TIP3    H273773   4.699   2.418   5.858 -1.5649 -1.3020 -0.6019
17428TIP3   OH273774   0.546   1.812  13.269 -0.0107  0.3564  0.4436
17428TIP3    H173775   0.507   1.804  13.356 -1.1837 -1.0255 -0.1777
17428TIP3    H273776   0.472   1.800  13.209  0.9409  0.3612 -0.7535
17429TIP3   OH273777   2.102   4.289   1.602 -0.3448 -0.0888 -0.3717
17429TIP3    H173778   2.155   4.343   1.661 -1.3754 -0.9598  1.3734
17429TIP3    H273779   2.066   4.220   1.657 -1.1693 -1.0587 -2.0627
17430TIP3   OH273780   5.576   5.702  17.134  0.4345 -0.4694  0.3331
17430TIP3    H173781   5.585   5.753  17.215 -2.2394  1.1206 -0.3195
17430TIP3    H273782   5.595   5.612  17.161  3.6646  0.5813  1.8447
17431TIP3   OH273783   2.058   2.424  14.899  0.4957  0.3650 -0.3955
17431TIP3    H173784   1.969   2.402  14.926  0.4226  1.2299  0.0798
17431TIP3    H273785   2.096   2.468  14.975  0.8174  1.3804 -1.1392
17432TIP3   OH273786   1.866   3.973   0.349 -0.1279 -0.3110  0.1872
17432TIP3    H173787   1.887   3.963   0.256 -0.6374  0.9867 -0.0796
17432TIP3    H273788   1.887   3.888   0.388 -1.0556 -1.2614 -1.3310
17433TIP3   OH273789   4.900   5.948  15.005  0.0919  0.1340  0.3069
17433TIP3    H173790   4.941   5.893  15.072  0.6778  0.6890  0.4089
17433TIP3    H273791   4.927   5.909  14.922  0.0392 -0.0732  0.3871
17434TIP3   OH273792   2.602   1.759   2.546 -0.4241  0.5043 -0.4366
17434TIP3    H173793   2.537   1.824   2.520 -0.8218 -0.6963 -2.5385
17434TIP3    H273794   2.686   1.805   2.543 -1.1008  1.9836  2.0015
17435TIP3   OH273795   5.007   1.142  15.219 -0.1687 -0.2570  0.1838
17435TIP3    H173796   5.065   1.122  15.145  0.1739 -1.0658  0.6665
17435TIP3    H273797   5.066   1.179  15.285 -0.6127  1.2723 -0.2677
17436TIP3   OH273798   2.162   1.390   1.882  0.2104  0.4350 -0.0699
17436TIP3    H173799   2.104   1.442   1.826  1.0752  2.1167  0.5608
17436TIP3    H273800   2.239   1.373   1.827 -0.3768 -0.8032 -0.5170
17437TIP3   OH273801   1.904   5.264   1.012  0.0591  0.3567  0.1280
17437TIP3    H173802   1.888   5.356   0.991 -1.0370 -0.0421 -0.8308
17437TIP3    H273803   1.956   5.231   0.938 -1.2236 -0.2805 -0.5060
17438TIP3   OH273804   5.281   2.325  10.267  0.4890  0.3395  0.0787
17438TIP3    H173805   5.224   2.400  10.282 -0.4432 -0.1039 -1.2005
17438TIP3    H273806   5.226   2.260  10.224  1.2674 -1.1215  1.2332
17439TIP3   OH273807   1.562   2.751   5.514 -0.9078 -0.0004  0.0574
17439TIP3    H173808   1.521   2.796   5.441 -2.3028  1.1510  1.5198
17439TIP3    H273809   1.592   2.821   5.572  1.2710 -0.8697  0.0202
17440TIP3   OH273810   1.265   5.150   2.653 -0.7543 -0.0539 -0.4952
17440TIP3    H173811   1.184   5.100   2.639 -0.0311 -1.5908  0.6341
17440TIP3    H273812   1.283   5.140   2.746 -1.7271  4.1628  0.2648
17441TIP3   OH273813   0.435   5.699  11.785  0.0427  0.2718  0.1394
17441TIP3    H173814   0.494   5.628  11.759 -0.5657 -0.1800 -0.0171
17441TIP3    H273815   0.493   5.766  11.821  0.6391 -0.2455  0.1590
17442TIP3   OH273816   2.139   2.917  11.389  0.2138 -0.3272 -0.1951
17442TIP3    H173817   2.173   2.841  11.436  0.3059  0.0093  0.2838
17442TIP3    H273818   2.045   2.919  11.410  0.5176  0.6247  1.0838
17443TIP3   OH273819   2.660   1.255  15.548  0.3097  0.4686 -0.3578
17443TIP3    H173820   2.687   1.291  15.463 -0.4691 -4.0041 -2.6669
17443TIP3    H273821   2.572   1.219  15.532 -0.0561 -0.0118  2.4953
17444TIP3   OH273822   5.146   5.811   3.474 -0.1323  0.3697 -0.0203
17444TIP3    H173823   5.191   5.890   3.445  0.3535  0.4572  0.9657
17444TIP3    H273824   5.204   5.773   3.540 -1.0380 -0.0532  0.5393
17445TIP3   OH273825   6.744   5.150  16.685 -0.5871  0.2185  0.6935
17445TIP3    H173826   6.828   5.193  16.703 -1.2464  2.5550 -1.3762
17445TIP3    H273827   6.728   5.169  16.593 -2.9118 -1.0866  0.8064
17446TIP3   OH273828   2.342   4.696  14.878 -0.6794  0.2945 -0.5230
17446TIP3    H173829   2.430   4.661  14.894 -1.2840 -0.2517  1.7756
17446TIP3    H273830   2.288   4.620  14.859 -0.9715  0.4725 -0.4109
17447TIP3   OH273831   5.335   0.830  15.162 -0.1616 -0.0524 -0.0928
17447TIP3    H173832   5.376   0.835  15.075 -0.3011 -1.1164 -0.2249
17447TIP3    H273833   5.407   0.814  15.222 -0.0679  0.6586 -0.0125
17448TIP3   OH273834   0.532   0.622   4.376 -0.4435 -0.2911 -0.1092
17448TIP3    H173835   0.520   0.670   4.294 -0.9567  2.2381  1.4050
17448TIP3    H273836   0.450   0.632   4.423 -0.5218 -2.5926  0.3186
17449TIP3   OH273837   4.467   2.637   1.413  0.1217 -0.4839  0.0146
17449TIP3    H173838   4.464   2.565   1.350  0.2114 -1.7791  1.4610
17449TIP3    H273839   4.376   2.653   1.436  0.0095  0.6405 -1.1361
17450TIP3   OH273840   5.648   0.335  15.401 -0.1114  0.1201 -0.2447
17450TIP3    H173841   5.680   0.330  15.491 -1.7241  2.3366  0.4813
17450TIP3    H273842   5.705   0.399  15.358  1.2366 -1.6012 -1.0926
17451TIP3   OH273843   2.975   1.457  11.943  1.0514 -0.1787  0.6563
17451TIP3    H173844   2.976   1.364  11.920  0.7139 -0.3430  1.3194
17451TIP3    H273845   2.906   1.465  12.009 -0.7039  0.9895 -1.2736
17452TIP3   OH273846   2.041   2.116   5.491  0.4195 -0.1759  0.0567
17452TIP3    H173847   1.979   2.137   5.421  0.2020 -0.1759  0.2512
17452TIP3    H273848   2.014   2.029   5.522  1.4111 -0.8315 -0.8513
17453TIP3   OH273849   1.893   3.127  10.614 -0.1784 -0.1891 -0.1933
17453TIP3    H173850   1.946   3.186  10.562  0.0207  0.3066  0.5655
17453TIP3    H273851   1.809   3.122  10.567  0.2528 -0.3335 -0.9532
17454TIP3   OH273852   5.253   1.399  11.139  0.1531 -0.3167 -0.3515
17454TIP3    H173853   5.209   1.324  11.180  0.3810  0.1799  0.8385
17454TIP3    H273854   5.185   1.465  11.130  0.1110 -0.4144 -0.7486
17455TIP3   OH273855   5.564   6.380  17.146  0.2743 -0.2743  0.0733
17455TIP3    H173856   5.484   6.329  17.137 -0.0461  0.2086  0.1839
17455TIP3    H273857   5.629   6.317  17.177 -0.2716 -0.4834  0.8000
17456TIP3   OH273858   1.624   2.010   4.178  0.1340  0.1710 -0.6714
17456TIP3    H173859   1.662   1.974   4.258 -0.7599  0.7929  0.0399
17456TIP3    H273860   1.571   2.084   4.207  0.7977  1.2005 -1.9680
17457TIP3   OH273861   5.351   6.579   2.192 -0.2087 -0.1827 -0.4650
17457TIP3    H173862   5.411   6.566   2.266  2.2444  3.4892 -1.6864
17457TIP3    H273863   5.351   6.494   2.147  3.9291 -0.3976 -0.2628
17458TIP3   OH273864   2.982   5.622  13.210  0.2110 -0.2607 -0.3850
17458TIP3    H173865   2.888   5.610  13.198  0.2129  1.0282 -1.9248
17458TIP3    H273866   3.020   5.606  13.123  1.3922 -0.6355  0.1859
17459TIP3   OH273867   1.375   4.800  15.955 -0.7745 -0.8837 -0.4194
17459TIP3    H173868   1.304   4.743  15.985 -0.4600 -0.5174  1.0919
17459TIP3    H273869   1.359   4.884  15.999 -0.0201 -0.4778 -0.9052
17460TIP3   OH273870   0.453   5.213   4.072  0.4088  0.6435  0.0637
17460TIP3    H173871   0.522   5.185   4.012 -0.5510  0.9109 -1.1898
17460TIP3    H273872   0.447   5.142   4.136  0.1252 -0.5731 -1.2777
17461TIP3   OH273873   3.625   3.362  13.354 -0.4010  0.8165 -0.7861
17461TIP3    H173874   3.711   3.404  13.349 -0.1694  0.4189 -0.2180
17461TIP3    H273875   3.562   3.433  13.340  0.0323  0.9588 -2.1228
17462TIP3   OH273876   3.644   3.798   2.279 -0.0640 -0.2311 -0.4915
17462TIP3    H173877   3.714   3.861   2.296 -1.5370  1.7044 -1.4227
17462TIP3    H273878   3.625   3.807   2.186 -3.2892  1.1640  0.2391
17463TIP3   OH273879   4.274   1.703   3.492 -0.4432 -0.1028 -0.0089
17463TIP3    H173880   4.199   1.754   3.462  0.3316  1.1856  0.1832
17463TIP3    H273881   4.256   1.614   3.463 -2.3015  0.0817  0.5066
17464TIP3   OH273882   1.803   4.498  13.322 -0.0825  0.5676  0.3414
17464TIP3    H173883   1.739   4.429  13.303  0.2389  0.3926 -0.1209
17464TIP3    H273884   1.754   4.580  13.309 -0.2043  0.4341 -0.0730
17465TIP3   OH273885   3.238   2.365  13.668  0.0440 -0.1897 -0.4175
17465TIP3    H173886   3.271   2.283  13.631 -0.3488 -0.6317  0.1984
17465TIP3    H273887   3.167   2.391  13.609  0.0848 -0.3582 -0.5426
17466TIP3   OH273888   6.606   1.201   4.989  1.0626 -0.4662 -0.2564
17466TIP3    H173889   6.550   1.237   5.057 -0.0753 -0.1159 -1.3736
17466TIP3    H273890   6.631   1.114   5.022 -1.2510 -1.1961 -0.3739
17467TIP3   OH273891   1.277   4.820  14.032  0.4005 -0.3644  0.1054
17467TIP3    H173892   1.186   4.840  14.011  0.9959  0.1323 -2.1147
17467TIP3    H273893   1.327   4.893  13.996  1.7161 -0.7937  1.0122
17468TIP3   OH273894   1.328   3.531   5.424  0.4451  0.2632  0.4517
17468TIP3    H173895   1.342   3.479   5.345 -2.1432  0.9347 -0.4951
17468TIP3    H273896   1.234   3.547   5.426  0.2475 -0.9061  4.4362
17469TIP3   OH273897   5.818   3.184   5.755 -0.3512  0.3830 -0.0312
17469TIP3    H173898   5.845   3.107   5.804 -2.4067 -1.1599 -1.2208
17469TIP3    H273899   5.723   3.177   5.750 -0.4908  2.5692 -0.8701
17470TIP3   OH273900   6.191   4.838   1.963 -0.6097  0.1477 -0.4866
17470TIP3    H173901   6.246   4.762   1.945  0.8621  1.2741 -0.8371
17470TIP3    H273902   6.101   4.804   1.963  0.0680 -1.6662 -0.1340
17471TIP3   OH273903   6.085   6.591  11.593  0.0481  0.2903 -0.0742
17471TIP3    H173904   6.156   6.613  11.653  0.0378  0.3356 -0.0790
17471TIP3    H273905   6.048   6.510  11.629  1.8981 -1.2876 -1.6382
17472TIP3   OH273906   3.986   3.129  15.625 -0.2113 -0.0260  0.2500
17472TIP3    H173907   4.010   3.108  15.715 -3.2958 -0.1669  1.0995
17472TIP3    H273908   3.974   3.043  15.584  0.2984  0.0451 -0.0520
17473TIP3   OH273909   2.454   1.075   5.397 -0.1500  0.0279  0.1056
17473TIP3    H173910   2.499   1.088   5.314  2.5912  0.6050  1.5883
17473TIP3    H273911   2.502   1.002   5.439 -1.0399  0.1893  1.4417
17474TIP3   OH273912   6.242   5.641   0.651  0.5614 -0.1312 -0.2630
17474TIP3    H173913   6.253   5.605   0.563  1.1743  0.1249 -0.2903
17474TIP3    H273914   6.272   5.572   0.710 -2.0210 -1.2167 -0.1429
17475TIP3   OH273915   3.824   3.795  17.157 -0.6309  0.2046  0.1581
17475TIP3    H173916   3.789   3.840  17.080 -1.1153 -2.3243 -1.1486
17475TIP3    H273917   3.801   3.704  17.144  0.1718 -0.4274  2.8479
17476TIP3   OH273918   5.188   1.649  14.366 -0.0650  0.3443  0.2827
17476TIP3    H173919   5.271   1.697  14.372 -0.9976  2.0577 -0.3141
17476TIP3    H273920   5.133   1.703  14.309 -2.3222  0.2706  2.3416
17477TIP3   OH273921   2.064   5.379  15.214  0.2364  0.2162 -0.0839
17477TIP3    H173922   2.136   5.405  15.156 -0.2037  0.5950 -0.4594
17477TIP3    H273923   2.101   5.385  15.302  0.7916  0.0034 -0.2998
17478TIP3   OH273924   1.481   3.588   1.437 -0.5606 -0.4561  0.2939
17478TIP3    H173925   1.494   3.498   1.407 -1.8209 -0.9376  1.1635
17478TIP3    H273926   1.449   3.634   1.360  4.0454  0.2886 -1.3526
17479TIP3   OH273927   3.186   3.016  13.508 -0.1522  0.1206 -0.2941
17479TIP3    H173928   3.242   2.956  13.458 -0.1702 -0.4351  0.3523
17479TIP3    H273929   3.235   3.098  13.510  0.1334 -0.0370 -0.6898
17480TIP3   OH273930   4.545   6.743  16.284 -0.0179 -0.0972  0.7939
17480TIP3    H173931   4.639   6.743  16.266 -0.2143  0.1106 -0.2923
17480TIP3    H273932   4.536   6.788  16.368  0.7806  0.6125  0.5022
17481TIP3   OH273933   4.619   6.603   5.316 -0.1788  0.1800 -0.3682
17481TIP3    H173934   4.591   6.553   5.392 -0.8770  0.0690 -0.6988
17481TIP3    H273935   4.690   6.550   5.278 -0.4287 -0.2053 -0.3042
17482TIP3   OH273936   0.272   1.832  13.034  0.2866 -0.5601  0.4464
17482TIP3    H173937   0.207   1.769  13.004  1.3663 -1.5231  0.0976
17482TIP3    H273938   0.246   1.914  12.993 -1.9187 -0.4455  1.9922
17483TIP3   OH273939   0.102   0.396  15.503 -0.0126 -0.4490 -0.8074
17483TIP3    H173940   0.178   0.446  15.471 -0.3159  0.4933 -0.1062
17483TIP3    H273941   0.069   0.449  15.576 -0.6760 -1.4197 -0.3988
17484TIP3   OH273942   6.388   0.145   3.429 -0.4336  0.2685  1.1505
17484TIP3    H173943   6.418   0.235   3.427 -0.0567  0.1329 -0.5077
17484TIP3    H273944   6.319   0.141   3.362 -0.1684 -0.7534  0.9231
17485TIP3   OH273945   6.471   6.813  12.277  0.2420 -0.2988  0.4045
17485TIP3    H173946   6.534   6.743  12.256 -0.1564 -0.0073 -1.9251
17485TIP3    H273947   6.474   6.871  12.201 -0.1387  1.7178  1.9123
17486TIP3   OH273948   2.942   1.505  16.178 -0.0647  0.0503 -0.2899
17486TIP3    H173949   2.956   1.457  16.096  0.5002 -0.2135 -0.0400
17486TIP3    H273950   2.895   1.584  16.151  0.0301 -0.0792 -0.8592
17487TIP3   OH273951   2.998   2.013  12.303 -0.1649  0.4831 -0.2412
17487TIP3    H173952   3.035   2.101  12.301  0.0681  0.3919 -0.0570
17487TIP3    H273953   3.028   1.973  12.222  1.9705 -0.3160  0.8975
17488TIP3   OH273954   6.660   3.707   0.020 -1.0257  0.5993  0.9330
17488TIP3    H173955   6.590   3.648   0.049 -0.1399  0.5379  3.0031
17488TIP3    H273956   6.675   3.683  -0.072 -2.4134 -0.6573  1.0177
17489TIP3   OH273957   3.565   6.591   4.469 -0.0324 -0.6150  0.1943
17489TIP3    H173958   3.512   6.662   4.432  1.2386  1.4823  2.2787
17489TIP3    H273959   3.507   6.515   4.469 -1.7009  0.6152 -1.2903
17490TIP3   OH273960   5.408   3.580  14.799  0.2531  0.4720 -0.2979
17490TIP3    H173961   5.413   3.572  14.704  0.0721  1.5040 -0.3967
17490TIP3    H273962   5.490   3.543  14.831  0.0378 -0.4605 -0.8165
17491TIP3   OH273963   2.730   4.587   0.547  0.4476  0.3963 -0.2829
17491TIP3    H173964   2.813   4.610   0.506  0.7636 -1.7313 -0.8906
17491TIP3    H273965   2.711   4.499   0.516 -0.9069 -0.0347  1.6342
17492TIP3   OH273966   4.850   2.435  10.567 -0.2667 -0.0705  0.2677
17492TIP3    H173967   4.929   2.381  10.576 -1.2362 -1.5334  0.2462
17492TIP3    H273968   4.789   2.379  10.519 -1.7323  0.5856  1.3523
17493TIP3   OH273969   2.749   1.787   1.813  0.5787  0.2139  0.0630
17493TIP3    H173970   2.832   1.771   1.769  0.9796  1.9755  0.1380
17493TIP3    H273971   2.765   1.865   1.867 -1.0050  0.3478  0.3637
17494TIP3   OH273972   3.853   6.806  12.357 -0.5406 -0.1120 -0.4326
17494TIP3    H173973   3.811   6.862  12.292 -2.3224 -0.6177  0.2623
17494TIP3    H273974   3.803   6.819  12.437 -0.0511 -1.5530  0.1357
17495TIP3   OH273975   2.872   3.120   4.481 -0.0017 -0.5807 -0.2408
17495TIP3    H173976   2.781   3.092   4.476 -0.2154  0.2241 -1.2861
17495TIP3    H273977   2.870   3.211   4.449  1.0460 -0.2941  0.4873
17496TIP3   OH273978   2.927   5.787   2.274 -0.5463  0.4382  0.0637
17496TIP3    H173979   2.904   5.873   2.309 -1.9632  0.8493 -1.8252
17496TIP3    H273980   2.911   5.795   2.180  0.3798 -1.5512 -0.2677
17497TIP3   OH273981   0.878   4.577   1.872 -0.0009  0.0898 -0.7273
17497TIP3    H173982   0.826   4.602   1.949  1.0570  0.4493 -0.1232
17497TIP3    H273983   0.932   4.504   1.903 -0.9763 -1.0514 -1.6781
17498TIP3   OH273984   6.692   1.515  13.508  0.5018 -0.1107 -0.4788
17498TIP3    H173985   6.631   1.568  13.457 -0.2234  0.9029  1.3693
17498TIP3    H273986   6.774   1.564  13.505 -0.0723  0.9895  0.9321
17499TIP3   OH273987   4.747   2.038  14.250 -0.0684  0.2261 -0.2352
17499TIP3    H173988   4.686   2.100  14.211  0.3700  0.3686 -0.7013
17499TIP3    H273989   4.798   2.089  14.312  2.1283  0.9406 -2.5662
17500TIP3   OH273990   2.214   6.266   0.040 -0.1981 -0.5723 -0.1478
17500TIP3    H173991   2.120   6.262   0.020 -0.6611  1.0575  1.5188
17500TIP3    H273992   2.254   6.208  -0.024 -2.1798 -0.0572 -1.9514
17501TIP3   OH273993   1.866   1.042  13.702  0.0496  0.2478 -0.0420
17501TIP3    H173994   1.827   1.121  13.666 -0.0649  0.0515 -0.3496
17501TIP3    H273995   1.961   1.059  13.700  0.0347  0.3040 -0.2747
17502TIP3   OH273996   6.007   2.615   5.980 -0.1222  0.1419 -0.7280
17502TIP3    H173997   5.959   2.607   6.062  0.3420  1.7006 -0.2764
17502TIP3    H273998   5.946   2.658   5.920 -0.0078  0.2173 -0.7912
17503TIP3   OH273999   4.069   2.256   0.958  0.2121 -0.2010 -0.0898
17503TIP3    H174000   4.056   2.195   1.030 -0.1107  3.0464  2.7445
17503TIP3    H274001   3.987   2.306   0.953  0.8105  0.6808 -1.6835
17504TIP3   OH274002   2.679   3.477  15.964 -0.1612  0.6522 -0.3247
17504TIP3    H174003   2.717   3.481  16.052  0.3497 -1.1065 -0.4378
17504TIP3    H274004   2.584   3.477  15.980 -0.0840 -1.4164  0.3745
17505TIP3   OH274005   4.997   0.837  12.041  0.5327  0.1094  0.3507
17505TIP3    H174006   5.042   0.908  11.995  1.3735 -1.7764 -1.8552
17505TIP3    H274007   5.013   0.760  11.987 -0.1143 -1.8340  2.8373
17506TIP3   OH274008   1.661   1.568   3.246  0.3465 -0.1056  0.2249
17506TIP3    H174009   1.713   1.570   3.165 -2.2862 -2.1904 -1.6112
17506TIP3    H274010   1.609   1.648   3.243  0.5185 -0.0002  0.0440
17507TIP3   OH274011   2.782   5.417   6.734  0.0556 -0.3274  0.4462
17507TIP3    H174012   2.869   5.377   6.727  0.3560  0.5894 -1.3851
17507TIP3    H274013   2.723   5.343   6.748  0.8229 -1.2598 -1.0570
17508TIP3   OH274014   0.978   4.236   3.749  0.1529 -0.2448  0.5811
17508TIP3    H174015   0.904   4.236   3.809  0.9510  1.1604  1.6132
17508TIP3    H274016   1.053   4.211   3.804  0.8275  0.6858  0.1033
17509TIP3   OH274017   1.412   5.874   6.981 -0.5863 -0.2854  0.6134
17509TIP3    H174018   1.476   5.803   6.985  0.5579  0.5949 -1.1267
17509TIP3    H274019   1.333   5.833   6.945 -0.3370 -0.9461  0.8156
17510TIP3   OH274020   5.786   5.435  17.073 -0.3400 -0.1878  0.6591
17510TIP3    H174021   5.867   5.397  17.039 -1.0071 -0.9006 -0.1606
17510TIP3    H274022   5.815   5.500  17.137  0.9177  0.3986 -0.4748
17511TIP3   OH274023   2.093   5.458   6.039 -0.3253 -0.2848  0.4737
17511TIP3    H174024   2.078   5.551   6.023 -0.5063 -0.4526 -0.3868
17511TIP3    H274025   2.189   5.450   6.039 -0.2735 -0.6097 -2.8062
17512TIP3   OH274026   5.743   3.337   0.013  0.6800  0.2696 -0.0438
17512TIP3    H174027   5.759   3.377   0.099  1.2113  0.1252 -0.0729
17512TIP3    H274028   5.724   3.245   0.033  0.0731  0.4009 -0.0237
17513TIP3   OH274029   6.793   2.586  16.774 -0.3358 -0.2381 -0.0996
17513TIP3    H174030   6.755   2.670  16.751  1.2190  0.6769  0.5535
17513TIP3    H274031   6.877   2.585  16.729 -0.9946 -2.1024 -1.3279
17514TIP3   OH274032   0.104   3.126  13.727 -0.4747 -0.2538  0.2570
17514TIP3    H174033   0.012   3.103  13.717 -0.6302 -0.0124  1.0580
17514TIP3    H274034   0.105   3.193  13.796  0.3047 -0.2933  0.2955
17515TIP3   OH274035   3.569   4.791  14.881  0.3736  0.4233 -0.3592
17515TIP3    H174036   3.520   4.733  14.939  0.6490  0.0752 -0.4716
17515TIP3    H274037   3.657   4.796  14.920  0.7540 -0.3437 -1.1080
17516TIP3   OH274038   4.177   2.203   0.099 -0.1380  0.1162  0.1442
17516TIP3    H174039   4.260   2.221   0.143  0.5645 -0.3519 -0.9692
17516TIP3    H274040   4.148   2.288   0.066  1.2852 -0.1569 -1.8441
17517TIP3   OH274041   2.258   0.379   1.749  0.5526 -0.3035  0.5778
17517TIP3    H174042   2.174   0.386   1.703  0.9231  1.5076  0.1354
17517TIP3    H274043   2.324   0.383   1.679  1.0616  0.6256  1.0966
17518TIP3   OH274044   6.244   6.137  15.353 -0.0347 -0.2087  0.0527
17518TIP3    H174045   6.300   6.210  15.325 -1.7673  0.7215 -1.1113
17518TIP3    H274046   6.200   6.108  15.273 -1.2329 -0.8941  0.9344
17519TIP3   OH274047   3.774   0.662  12.592  0.5891 -0.0198 -0.4166
17519TIP3    H174048   3.712   0.590  12.590  0.2718  0.1838  1.3099
17519TIP3    H274049   3.854   0.624  12.630 -0.1107  0.8936  2.0658
17520TIP3   OH274050   3.578   6.259  11.749 -1.0191 -0.4141 -0.7945
17520TIP3    H174051   3.655   6.244  11.694 -0.2115 -0.4379  0.3304
17520TIP3    H274052   3.516   6.192  11.722 -0.5155 -0.6268 -1.4504
17521TIP3   OH274053   5.275   5.243  14.163  0.3553  0.3173 -0.3449
17521TIP3    H174054   5.208   5.175  14.155  0.6945 -0.1845  0.9591
17521TIP3    H274055   5.321   5.241  14.079 -0.4605 -0.1939 -0.7866
17522TIP3   OH274056   3.570   3.230  12.104 -0.7755  0.2265  0.6458
17522TIP3    H174057   3.627   3.181  12.164  1.1079  1.3974 -0.1502
17522TIP3    H274058   3.613   3.223  12.019 -3.0013 -0.7243 -0.4390
17523TIP3   OH274059   5.129   5.107   5.627  0.0405 -0.2371  0.5740
17523TIP3    H174060   5.142   5.137   5.537  1.7477 -0.9776  0.5590
17523TIP3    H274061   5.168   5.020   5.629 -2.7774 -1.5600  1.2164
17524TIP3   OH274062   0.159   3.380  12.022  0.0555  0.2976  0.2250
17524TIP3    H174063   0.123   3.468  12.023  0.7281  0.5708  0.4126
17524TIP3    H274064   0.093   3.328  11.975  0.1651  1.1001 -0.8244
17525TIP3   OH274065   5.273   4.043   2.640 -0.6980  0.1626 -0.5637
17525TIP3    H174066   5.349   4.102   2.636 -0.8698  0.4333  0.2155
17525TIP3    H274067   5.199   4.101   2.660 -0.9827 -0.2208 -0.5140
17526TIP3   OH274068   0.256   0.838  15.514  0.1531 -0.3053 -0.1474
17526TIP3    H174069   0.284   0.926  15.536 -1.7028  0.2271  0.1728
17526TIP3    H274070   0.249   0.793  15.599  2.4622 -1.2097 -0.4033
17527TIP3   OH274071   3.355   3.906  12.729 -0.0215  0.5336  0.2722
17527TIP3    H174072   3.292   3.833  12.728  0.3865  0.1872 -0.4355
17527TIP3    H274073   3.336   3.954  12.648  0.4538  0.5759  0.1886
17528TIP3   OH274074   4.907   6.227   0.684 -0.3248  0.4304  0.2776
17528TIP3    H174075   4.849   6.160   0.646  2.1983 -0.8176 -1.5216
17528TIP3    H274076   4.881   6.308   0.641 -1.5807  0.1114  0.4275
17529TIP3   OH274077   0.781   4.910   5.356  0.2050 -0.6961 -0.6572
17529TIP3    H174078   0.864   4.950   5.330  0.5371 -0.7693  0.2674
17529TIP3    H274079   0.792   4.817   5.337 -0.2005 -0.5012 -1.8773
17530TIP3   OH274080   1.255   2.393   1.594  0.1418 -0.9463  0.2356
17530TIP3    H174081   1.337   2.439   1.612  0.2320 -1.2274  0.5305
17530TIP3    H274082   1.240   2.339   1.672 -0.4571 -0.6944  0.3000
17531TIP3   OH274083   0.204   2.362  11.905  0.0015 -0.2382  0.1752
17531TIP3    H174084   0.258   2.288  11.878 -0.7467 -0.3896 -0.9348
17531TIP3    H274085   0.124   2.322  11.939  0.7612 -0.0324  2.2667
17532TIP3   OH274086   2.095   2.657  15.460  0.0402 -0.2253  0.3982
17532TIP3    H174087   2.171   2.693  15.416 -0.2585  1.6727  1.3584
17532TIP3    H274088   2.129   2.583  15.511  0.9924 -0.2419 -0.2590
17533TIP3   OH274089   0.309   1.129   2.924 -0.0818 -0.1634 -0.7290
17533TIP3    H174090   0.321   1.078   3.004 -1.7988  0.2981 -0.1583
17533TIP3    H274091   0.273   1.066   2.861  1.5098 -0.5876 -1.2234
17534TIP3   OH274092   2.380   2.416   2.963  0.1443  0.4108 -0.4461
17534TIP3    H174093   2.354   2.335   3.007 -0.9136 -0.5006 -2.6553
17534TIP3    H274094   2.365   2.484   3.028 -2.5244 -0.7567  0.2434
17535TIP3   OH274095   0.514   3.134  16.216  0.1061 -0.3187 -0.2406
17535TIP3    H174096   0.459   3.066  16.255 -0.2781 -0.1252 -0.4366
17535TIP3    H274097   0.587   3.087  16.177  0.3031 -0.5430  0.3975
17536TIP3   OH274098   2.877   5.831  12.174  0.4691 -0.0915 -0.3759
17536TIP3    H174099   2.799   5.866  12.216  0.4873 -0.5518  0.0505
17536TIP3    H274100   2.845   5.796  12.090  0.2898  0.0847 -0.3800
17537TIP3   OH274101   2.804   3.835   4.754  0.2576 -0.7471  0.7079
17537TIP3    H174102   2.870   3.821   4.823 -0.7396  0.6578  1.9707
17537TIP3    H274103   2.847   3.894   4.693  0.6397 -0.8561  0.8650
17538TIP3   OH274104   6.250   4.263  16.104 -0.2105 -0.8154 -0.8597
17538TIP3    H174105   6.188   4.217  16.048 -1.4321 -0.3045  0.0460
17538TIP3    H274106   6.295   4.193  16.152  0.2898 -1.2102 -1.9021
17539TIP3   OH274107   2.274   0.837   3.785  0.0323 -0.1305 -0.4109
17539TIP3    H174108   2.275   0.842   3.880  1.0541 -0.9624 -0.3753
17539TIP3    H274109   2.193   0.791   3.764 -0.2972  0.2426  0.0446
17540TIP3   OH274110   1.764   4.272  15.146 -0.8260  0.3145  0.0580
17540TIP3    H174111   1.744   4.252  15.238 -0.9655  0.9145  0.1554
17540TIP3    H274112   1.794   4.188  15.110 -2.1753 -0.2579  0.2638
17541TIP3   OH274113   4.749   4.074   4.328 -0.7975  0.0628 -0.0293
17541TIP3    H174114   4.675   4.019   4.356 -0.8739 -0.2249 -0.7760
17541TIP3    H274115   4.826   4.029   4.362 -0.8982 -0.2358 -0.1865
17542TIP3   OH274116   4.303   3.873   0.864 -0.1494 -0.4255 -0.4063
17542TIP3    H174117   4.213   3.878   0.833  0.2590  0.6982 -1.4315
17542TIP3    H274118   4.297   3.889   0.958 -0.9724  0.0504 -0.5414
17543TIP3   OH274119   0.300   0.270   3.264  0.0153  0.7394  0.4065
17543TIP3    H174120   0.389   0.238   3.248  0.5437  2.4457 -0.2266
17543TIP3    H274121   0.309   0.330   3.337 -0.5674  1.1545  0.1442
17544TIP3   OH274122   2.201   3.567   0.889  0.0218  0.0707 -0.2974
17544TIP3    H174123   2.162   3.650   0.863  0.8361  0.2824 -0.8773
17544TIP3    H274124   2.220   3.523   0.806 -0.1772 -0.5897  0.0037
17545TIP3   OH274125   6.404   6.112   0.798 -0.5345 -0.0193  0.0420
17545TIP3    H174126   6.369   6.035   0.843 -0.4877  0.2880  0.6063
17545TIP3    H274127   6.329   6.148   0.751 -0.2729 -1.1279 -1.2370
17546TIP3   OH274128   0.107   5.150  11.468  0.3024  0.4009  0.0110
17546TIP3    H174129   0.065   5.202  11.536 -0.3865 -0.0192 -0.0829
17546TIP3    H274130   0.191   5.123  11.506 -0.1470  0.0350  0.7543
17547TIP3   OH274131   2.290   5.024  15.970 -0.2699  0.6265  0.2402
17547TIP3    H174132   2.221   4.980  15.922 -0.1449 -1.4692  1.8808
17547TIP3    H274133   2.368   5.015  15.915 -0.0012 -2.2117  1.0235
17548TIP3   OH274134   0.623   6.417   0.261  0.2974 -0.0233 -0.5467
17548TIP3    H174135   0.694   6.481   0.265  0.6574 -0.2805 -2.3980
17548TIP3    H274136   0.549   6.465   0.225  0.1558 -0.2842 -0.6102
17549TIP3   OH274137   6.744   1.450   0.218  0.3926  0.2415 -0.7183
17549TIP3    H174138   6.670   1.512   0.217  0.8976  0.8243 -1.7381
17549TIP3    H274139   6.758   1.433   0.311 -1.7323 -0.7186 -0.5359
17550TIP3   OH274140   2.048   4.088   1.796  0.2569  0.2723  0.2753
17550TIP3    H174141   1.956   4.098   1.820 -0.5647  0.6127 -2.8219
17550TIP3    H274142   2.057   3.996   1.772 -0.4546  1.1819 -3.8077
17551TIP3   OH274143   0.721   3.152  11.288  0.0051  0.0988  0.2157
17551TIP3    H174144   0.691   3.082  11.230  0.3590  0.7065 -0.7084
17551TIP3    H274145   0.813   3.132  11.306  0.3030  0.6840 -0.6039
17552TIP3   OH274146   4.243   1.438   0.830 -0.2276  0.1235  0.6825
17552TIP3    H174147   4.260   1.365   0.770 -0.0638  0.1190  0.7358
17552TIP3    H274148   4.205   1.396   0.907  1.2575 -0.0699  1.3162
17553TIP3   OH274149   1.542   6.008  11.099 -0.0091 -1.0264 -0.0946
17553TIP3    H174150   1.518   5.915  11.095  0.4876 -1.1274 -0.8339
17553TIP3    H274151   1.458   6.055  11.093 -0.1073 -1.3894 -1.7662
17554TIP3   OH274152   5.629   2.416  16.088  0.2646 -0.2952 -0.1811
17554TIP3    H174153   5.537   2.394  16.105  0.4200  0.0073  1.0578
17554TIP3    H274154   5.633   2.430  15.993 -1.1350  0.4621 -0.1340
17555TIP3   OH274155   1.562   2.711  11.402  0.1051 -0.6794 -0.3871
17555TIP3    H174156   1.613   2.762  11.338 -0.2187 -0.0013 -0.1106
17555TIP3    H274157   1.474   2.707  11.365 -0.2998  0.4534  0.4131
17556TIP3   OH274158   6.725   5.199   5.886  0.1291  0.3449 -0.0224
17556TIP3    H174159   6.776   5.264   5.935  0.4589  1.3576 -1.6642
17556TIP3    H274160   6.784   5.124   5.876  0.9341  1.0863 -0.9591
17557TIP3   OH274161   2.698   0.943   0.858  0.3401 -0.0437  0.2424
17557TIP3    H174162   2.739   0.931   0.772  1.3221 -0.3214  0.7384
17557TIP3    H274163   2.769   0.926   0.920 -0.4427 -0.1388  1.1110
17558TIP3   OH274164   5.553   5.174  15.285 -0.4771 -0.0531  0.0793
17558TIP3    H174165   5.502   5.096  15.306 -0.5143 -0.6658 -2.0804
17558TIP3    H274166   5.643   5.142  15.276 -0.0255  0.6688  1.9619
17559TIP3   OH274167   0.349   5.971  17.052 -0.0544 -0.2925  0.4530
17559TIP3    H174168   0.263   5.930  17.044 -0.6512  0.4541  2.7215
17559TIP3    H274169   0.335   6.063  17.031  0.7824 -0.6904 -2.0277
17560TIP3   OH274170   6.736   2.975  13.914  0.4458 -0.3529 -0.2053
17560TIP3    H174171   6.749   3.044  13.979 -3.0069  0.6370 -0.4426
17560TIP3    H274172   6.706   2.900  13.965  2.9759 -1.3255 -0.0945
17561TIP3   OH274173   2.505   3.734  15.499 -0.0836  0.0774 -0.6600
17561TIP3    H174174   2.505   3.666  15.567 -0.8539  0.2837 -0.4433
17561TIP3    H274175   2.454   3.806  15.538  0.3327  0.5921 -1.0661
17562TIP3   OH274176   5.926   4.952  14.741  0.4500 -0.2173 -0.0761
17562TIP3    H174177   6.003   4.896  14.744  0.4072 -0.2117  1.3404
17562TIP3    H274178   5.933   5.007  14.819 -0.5652  0.3373 -0.3680
17563TIP3   OH274179   5.189   1.057  15.066  0.7841  0.2746 -0.3130
17563TIP3    H174180   5.241   1.110  15.006  1.8601  0.6931  0.9502
17563TIP3    H274181   5.248   0.987  15.093 -0.2410 -0.8978 -1.0401
17564TIP3   OH274182   1.447   3.476   5.179 -0.1305 -0.7444 -0.3555
17564TIP3    H174183   1.536   3.510   5.187 -0.2544 -0.4963 -0.0117
17564TIP3    H274184   1.402   3.538   5.123  0.1363 -1.3132 -1.2162
17565TIP3   OH274185   4.647   4.995   2.290 -0.4006  0.1193  0.2628
17565TIP3    H174186   4.565   4.980   2.339 -0.1362 -1.9248  0.1308
17565TIP3    H274187   4.713   4.949   2.341  0.3489  0.2140 -0.6326
17566TIP3   OH274188   1.760   5.386  15.616 -0.1393  0.4888  0.3971
17566TIP3    H174189   1.727   5.378  15.705 -0.8075  0.3744  0.1414
17566TIP3    H274190   1.815   5.464  15.617 -0.1097  0.4630  0.9165
17567TIP3   OH274191   6.805   6.235   5.711  0.3812 -0.2310  0.1826
17567TIP3    H174192   6.777   6.281   5.632  0.7122  1.0523  0.7890
17567TIP3    H274193   6.877   6.288   5.745  0.3247 -0.8388  1.2788
17568TIP3   OH274194   2.989   2.984   6.103  0.2407  0.3456 -0.0988
17568TIP3    H174195   2.951   2.899   6.126  1.9998 -0.3351  0.3592
17568TIP3    H274196   2.913   3.038   6.078 -1.0666 -0.8190  1.2453
17569TIP3   OH274197   0.452   6.493   6.428 -0.3442  0.4695  0.6318
17569TIP3    H174198   0.391   6.495   6.501 -1.9544 -1.3659 -0.6012
17569TIP3    H274199   0.429   6.569   6.375 -1.9919 -0.5233 -0.1201
17570TIP3   OH274200   3.783   3.528   4.416  0.1796 -0.3395  0.3895
17570TIP3    H174201   3.813   3.545   4.505 -2.0703  0.8025  0.9692
17570TIP3    H274202   3.778   3.432   4.411  0.4437 -0.4228  1.4403
17571TIP3   OH274203   3.034   1.598  11.567 -0.4910 -0.3317  0.2981
17571TIP3    H174204   2.992   1.673  11.609 -1.7846 -1.2510  0.6909
17571TIP3    H274205   3.084   1.556  11.637  0.9693  0.6675 -0.1321
17572TIP3   OH274206   3.844   2.241  16.083  0.2918 -0.5476  0.0339
17572TIP3    H174207   3.916   2.232  16.146  0.6193 -0.9621 -0.3913
17572TIP3    H274208   3.765   2.223  16.134  0.6092 -1.5965  0.1734
17573TIP3   OH274209   6.640   4.884   2.261  0.5742 -0.3755 -0.4850
17573TIP3    H174210   6.709   4.921   2.315  1.3880 -0.1785 -1.6399
17573TIP3    H274211   6.675   4.886   2.172 -1.2163  0.4654 -1.2055
17574TIP3   OH274212   5.201   5.095   2.294 -0.4178  0.0184 -0.2295
17574TIP3    H174213   5.242   5.140   2.220 -2.6728 -1.9699 -2.8021
17574TIP3    H274214   5.274   5.064   2.347  1.2311  2.6251 -0.8772
17575TIP3   OH274215   4.394   3.350  11.558  0.7792  0.0083  0.1188
17575TIP3    H174216   4.393   3.330  11.465 -0.3107  1.5119 -0.2234
17575TIP3    H274217   4.375   3.267  11.601  2.5565 -0.9578 -0.9288
17576TIP3   OH274218   6.392   6.162   5.181 -0.3540  1.0629  0.2266
17576TIP3    H174219   6.314   6.113   5.207  0.9361 -2.6031 -2.3138
17576TIP3    H274220   6.439   6.177   5.263 -1.5264 -0.7481  1.2904
17577TIP3   OH274221   6.068   3.094  13.207  0.2225 -0.1197 -0.2689
17577TIP3    H174222   5.996   3.153  13.184 -0.0441 -0.0301  0.8050
17577TIP3    H274223   6.146   3.136  13.169 -0.1934  0.0970 -0.8906
17578TIP3   OH274224   5.260   5.673   2.890  0.0633 -0.0172 -0.0903
17578TIP3    H174225   5.175   5.654   2.929  0.0305  1.7787  0.7543
17578TIP3    H274226   5.303   5.588   2.881 -1.2727 -0.7790  0.7411
17579TIP3   OH274227   2.999   0.619   1.330  0.0907 -0.3606  0.0253
17579TIP3    H174228   3.003   0.714   1.334 -0.4538 -0.3772  0.9380
17579TIP3    H274229   3.086   0.589   1.357  0.4600 -0.1129 -0.8663
17580TIP3   OH274230   4.803   2.078  13.461  0.6658  0.3993  0.4239
17580TIP3    H174231   4.786   1.992  13.423 -1.2885  0.9833 -0.1091
17580TIP3    H274232   4.820   2.134  13.385 -1.0077  1.0852  0.5205
17581TIP3   OH274233   0.143   3.472  12.791 -0.2385  0.3223  0.0175
17581TIP3    H174234   0.168   3.417  12.717  0.5676  1.0404 -0.2590
17581TIP3    H274235   0.223   3.517  12.816 -1.0977  2.1542 -0.4386
17582TIP3   OH274236   2.187   3.820  15.771 -0.4993  0.4538 -0.1116
17582TIP3    H174237   2.220   3.908  15.754  0.3979 -0.2038 -1.9170
17582TIP3    H274238   2.106   3.815  15.720  1.4295 -1.0269 -3.1309
17583TIP3   OH274239   3.364   3.124  14.695  0.2934 -0.4272  0.2084
17583TIP3    H174240   3.424   3.052  14.676 -1.5553 -1.7874 -0.6408
17583TIP3    H274241   3.400   3.198  14.647  0.5407 -1.6002 -1.4663
17584TIP3   OH274242   5.252   0.238  14.283  0.1778  1.0581  0.4507
17584TIP3    H174243   5.292   0.285  14.356 -0.4230 -0.5649  1.8657
17584TIP3    H274244   5.162   0.273  14.279  0.0780  0.8355  0.7654
17585TIP3   OH274245   4.244   2.737   2.810  0.0920 -0.5494  0.6157
17585TIP3    H174246   4.282   2.737   2.723  0.1299  1.0324  0.6217
17585TIP3    H274247   4.274   2.819   2.850 -1.8415 -0.1050  1.2434
17586TIP3   OH274248   6.316   3.024   2.483  0.3881 -0.1398 -0.8811
17586TIP3    H174249   6.284   3.110   2.459 -0.9869 -0.4467 -0.1977
17586TIP3    H274250   6.322   3.026   2.579 -0.8336 -1.1807 -0.7596
17587TIP3   OH274251   5.083   5.345  17.243 -0.8159  0.7259  0.6937
17587TIP3    H174252   5.039   5.320  17.324 -0.8866  0.1746  0.4892
17587TIP3    H274253   5.058   5.278  17.180  1.0026 -0.0809  0.7932
17588TIP3   OH274254   1.880   4.291   4.157  0.1045 -0.2656 -0.3065
17588TIP3    H174255   1.939   4.238   4.211 -0.9487 -1.1774 -0.0240
17588TIP3    H274256   1.896   4.261   4.068  0.8086  0.2243 -0.3482
17589TIP3   OH274257   2.483   1.527  12.696 -0.4625 -0.1282 -0.2417
17589TIP3    H174258   2.445   1.553  12.612 -0.5790  0.1671 -0.0985
17589TIP3    H274259   2.486   1.608  12.747  1.6042  0.1341 -0.7195
17590TIP3   OH274260   1.945   4.195  13.831  0.8462 -0.9336  0.7031
17590TIP3    H174261   1.901   4.223  13.911 -1.6490  0.1166 -0.9893
17590TIP3    H274262   2.017   4.257  13.819 -0.2041  0.3151  0.8689
17591TIP3   OH274263   0.609   3.859  15.395  0.0650 -0.0265 -0.1187
17591TIP3    H174264   0.561   3.817  15.466 -0.0669 -0.5491 -0.5165
17591TIP3    H274265   0.677   3.911  15.439 -1.1610  1.1058  0.4630
17592TIP3   OH274266   4.635   5.870  15.462 -0.0511 -0.2810  0.6381
17592TIP3    H174267   4.564   5.892  15.523 -0.0965 -0.6300  0.7116
17592TIP3    H274268   4.695   5.815  15.513 -0.6393 -1.4789  0.0705
17593TIP3   OH274269   4.092   1.418   1.594  0.0381 -0.1200  0.4979
17593TIP3    H174270   4.108   1.413   1.500 -0.2119  1.7235  0.3264
17593TIP3    H274271   4.157   1.481   1.627 -0.7484  0.2814  1.3244
17594TIP3   OH274272   0.401   5.967  15.643  0.2233  0.5779  0.3773
17594TIP3    H174273   0.410   6.010  15.558 -0.2361 -1.7192 -0.8589
17594TIP3    H274274   0.312   5.988  15.671  0.1969  0.9034  0.0594
17595TIP3   OH274275   0.607   3.828   3.501 -0.0148 -0.3450  0.3963
17595TIP3    H174276   0.648   3.909   3.531  0.1785  0.4649 -1.9597
17595TIP3    H274277   0.514   3.842   3.517  0.0819  0.0606  0.6271
17596TIP3   OH274278   0.169   1.068   0.005 -0.1923 -0.8078 -0.1454
17596TIP3    H174279   0.075   1.051   0.008 -0.1643 -0.7841  0.8842
17596TIP3    H274280   0.178   1.160   0.028  0.1511 -1.0468  0.6816
17597TIP3   OH274281   5.242   4.919  10.962  0.6730 -0.0225  0.5566
17597TIP3    H174282   5.212   4.831  10.939  2.6064 -0.5572 -0.0223
17597TIP3    H274283   5.237   4.968  10.880 -1.0066  0.6323  1.0070
17598TIP3   OH274284   2.190   2.928  14.889  0.2018 -0.1604 -0.1124
17598TIP3    H174285   2.233   2.918  14.974  0.3276  1.1616 -0.0196
17598TIP3    H274286   2.096   2.922  14.909  0.2507 -0.5114  0.0203
17599TIP3   OH274287   1.931   4.128  16.952  0.1027 -0.5455  0.0213
17599TIP3    H174288   2.023   4.150  16.969  0.1494 -0.2014 -0.6498
17599TIP3    H274289   1.899   4.091  17.034  0.6501 -0.0063  0.4792
17600TIP3   OH274290   6.566   6.443   5.228  0.1299 -0.2782 -0.5418
17600TIP3    H174291   6.546   6.503   5.300  1.2496  0.4936 -0.8439
17600TIP3    H274292   6.553   6.356   5.264 -0.6403  0.1347  0.1826
17601TIP3   OH274293   1.597   5.693  13.221 -0.1746 -0.9418 -0.5626
17601TIP3    H174294   1.658   5.739  13.162 -0.4493 -1.1835 -1.0369
17601TIP3    H274295   1.645   5.687  13.304  0.1188 -0.3824 -0.6873
17602TIP3   OH274296   3.738   0.318  14.748 -0.5797  0.2927 -0.1535
17602TIP3    H174297   3.722   0.270  14.666  0.8011  0.2224 -0.4000
17602TIP3    H274298   3.651   0.342  14.779 -1.3242 -2.3057 -0.0663
17603TIP3   OH274299   2.666   5.120  12.430 -0.5869  0.5824  0.4205
17603TIP3    H174300   2.634   5.171  12.504  1.0434  2.3998 -0.0645
17603TIP3    H274301   2.712   5.045  12.469  1.3113  2.1679  1.3321
17604TIP3   OH274302   2.477   2.982   6.331 -0.0758  0.1007  0.3333
17604TIP3    H174303   2.453   2.972   6.424  1.3836 -1.3847  0.5783
17604TIP3    H274304   2.479   2.892   6.297 -2.1830  0.7293 -1.5874
17605TIP3   OH274305   1.483   2.182  15.475 -0.8406  0.0507  0.1871
17605TIP3    H174306   1.423   2.143  15.412 -2.6231  1.4063  0.9915
17605TIP3    H274307   1.491   2.273  15.447 -3.7876  1.3961  3.3773
17606TIP3   OH274308   4.154   6.665   1.774 -0.0062 -0.0731  0.3404
17606TIP3    H174309   4.078   6.663   1.716  2.1849 -1.7708 -2.5720
17606TIP3    H274310   4.213   6.729   1.735  1.3629 -0.9748  0.9043
17607TIP3   OH274311   6.651   0.316   5.109 -0.4904 -0.3558 -0.5535
17607TIP3    H174312   6.685   0.234   5.143 -0.1643 -0.5811 -1.4128
17607TIP3    H274313   6.678   0.318   5.017  0.2007  1.0812 -0.3351
17608TIP3   OH274314   3.747   2.975  15.399  0.0259 -0.0516  0.1808
17608TIP3    H174315   3.711   3.019  15.476 -1.8533 -1.9964  0.4490
17608TIP3    H274316   3.725   3.032  15.326 -2.1469 -0.3849  0.5603
17609TIP3   OH274317   0.431   5.618  12.185  0.2066 -0.8135  0.0988
17609TIP3    H174318   0.516   5.654  12.159 -0.5471  1.6360  0.8179
17609TIP3    H274319   0.433   5.619  12.280 -0.8556 -0.1407  0.1225
17610TIP3   OH274320   0.583   5.597   0.013 -0.3538  0.0717 -0.0729
17610TIP3    H174321   0.562   5.589   0.106 -1.8911 -1.0178 -0.5000
17610TIP3    H274322   0.679   5.603   0.010 -0.1799 -1.6576  1.4612
17611TIP3   OH274323   2.665   0.676  13.599  0.0847  0.3776  0.6999
17611TIP3    H174324   2.713   0.710  13.523  1.6144 -0.1933  1.3834
17611TIP3    H274325   2.574   0.677  13.572  0.6273 -0.0151 -1.2238
17612TIP3   OH274326   6.021   4.784  13.544 -0.2148  0.4576 -0.4967
17612TIP3    H174327   5.930   4.802  13.569  0.1262  0.9514  0.3991
17612TIP3    H274328   6.062   4.751  13.624  0.4251  0.3411 -0.8689
17613TIP3   OH274329   2.746   1.129   6.388 -0.6325  0.2262  0.2437
17613TIP3    H174330   2.659   1.148   6.424  0.5441  2.0774  2.1804
17613TIP3    H274331   2.783   1.214   6.367  0.7106 -0.5588 -0.6500
17614TIP3   OH274332   0.235   0.348   4.482 -0.1516 -0.1223 -0.2195
17614TIP3    H174333   0.240   0.396   4.400 -0.8617 -0.0173 -0.2068
17614TIP3    H274334   0.174   0.400   4.536  0.1625 -0.2879  0.3010
17615TIP3   OH274335   6.067   3.056   0.391 -0.3845 -0.3191 -0.3024
17615TIP3    H174336   6.060   3.005   0.310 -2.4706 -0.8633  0.1850
17615TIP3    H274337   5.984   3.041   0.436 -0.1341  1.7269  0.9197
17616TIP3   OH274338   4.414   1.613  10.409 -0.1872 -0.5072  0.2235
17616TIP3    H174339   4.363   1.601  10.329 -0.7712  2.0991  0.1431
17616TIP3    H274340   4.505   1.613  10.380 -0.4293  1.4859 -0.6535
17617TIP3   OH274341   5.415   4.541  11.468  0.8307  1.0759 -0.2351
17617TIP3    H174342   5.467   4.523  11.390 -1.3017  0.1245 -1.4995
17617TIP3    H274343   5.389   4.455  11.501  1.1017  1.4873  1.1109
17618TIP3   OH274344   1.321   1.769  16.592  0.0850  0.2035 -0.9853
17618TIP3    H174345   1.284   1.759  16.680 -1.9699 -0.8574 -1.9391
17618TIP3    H274346   1.407   1.726  16.597 -0.9493 -1.8174 -0.0949
17619TIP3   OH274347   6.533   5.783  16.714  0.1287  0.5868  0.8492
17619TIP3    H174348   6.462   5.720  16.730  1.1055 -0.5782  0.6166
17619TIP3    H274349   6.571   5.799  16.800  0.2983  0.3591  0.8171
17620TIP3   OH274350   4.131   1.384  13.197  0.5188  0.2565 -0.0028
17620TIP3    H174351   4.092   1.362  13.282 -0.5962  3.6267  0.4377
17620TIP3    H274352   4.064   1.359  13.133 -0.4397  1.6700  0.4295
17621TIP3   OH274353   3.539   1.796  14.455 -0.2802 -0.6719  0.7867
17621TIP3    H174354   3.590   1.809  14.375 -1.9578 -0.0499 -0.2021
17621TIP3    H274355   3.594   1.831  14.525 -0.0981  1.6470 -0.4908
17622TIP3   OH274356   4.142   0.569   5.417  0.2455 -0.1391  0.6550
17622TIP3    H174357   4.178   0.658   5.415  1.7943 -0.6826  2.6087
17622TIP3    H274358   4.086   0.568   5.495  0.9878 -1.1292  1.1864
17623TIP3   OH274359   1.403   3.129  12.005 -0.2277 -0.4661  0.1676
17623TIP3    H174360   1.402   3.175  12.089  0.5033  0.7711 -0.4967
17623TIP3    H274361   1.407   3.036  12.029  2.2947 -0.0460  1.4968
17624TIP3   OH274362   6.278   1.405   4.506  0.0750  0.3382 -0.1694
17624TIP3    H174363   6.197   1.413   4.557  0.9248  0.3143  1.2173
17624TIP3    H274364   6.263   1.460   4.429 -0.3875  2.2345  1.2352
17625TIP3   OH274365   3.752   6.343   5.895  0.4006  0.0462  0.5164
17625TIP3    H174366   3.822   6.398   5.860  2.0972 -3.2451 -1.4742
17625TIP3    H274367   3.672   6.394   5.879  1.8787  1.9063 -1.3482
17626TIP3   OH274368   3.710   1.674   5.132 -0.1541 -0.1041  0.2812
17626TIP3    H174369   3.667   1.697   5.049 -0.7104  1.7130  1.0610
17626TIP3    H274370   3.758   1.752   5.157  0.2558 -0.7457  1.5385
17627TIP3   OH274371   2.878   5.322   5.429 -0.1609 -0.0079 -0.4989
17627TIP3    H174372   2.833   5.354   5.507 -0.6561  0.0649 -0.8046
17627TIP3    H274373   2.896   5.230   5.446  0.5725  0.2409  0.0764
17628TIP3   OH274374   6.304   1.736  12.310  0.1538  0.1490 -0.0187
17628TIP3    H174375   6.244   1.682  12.360  0.5210 -0.3704 -0.1367
17628TIP3    H274376   6.255   1.759  12.230 -0.8208  1.8543  1.0308
17629TIP3   OH274377   1.406   1.216  11.868 -0.5420  0.1343  0.2069
17629TIP3    H174378   1.459   1.279  11.918 -0.3608  1.8040 -1.9924
17629TIP3    H274379   1.470   1.153  11.835 -0.5655 -0.5475  1.4515
17630TIP3   OH274380   4.503   3.388  12.981 -0.3569 -0.6682 -0.1010
17630TIP3    H174381   4.439   3.338  13.031  0.5452 -0.9021  0.8504
17630TIP3    H274382   4.528   3.459  13.040  0.0773 -0.4477 -0.5511
17631TIP3   OH274383   0.364   6.581  13.391  0.4509  0.0811 -0.1580
17631TIP3    H174384   0.353   6.513  13.324  0.9665 -2.7841  2.5544
17631TIP3    H274385   0.430   6.545  13.450 -0.3679  2.3231  2.1915
17632TIP3   OH274386   3.840   1.551   2.743 -0.1385  0.1002  0.5708
17632TIP3    H174387   3.893   1.517   2.671  0.3752 -1.4286  1.6566
17632TIP3    H274388   3.875   1.640   2.758 -0.2060  0.4021 -0.9954
17633TIP3   OH274389   2.480   2.169   3.903  0.4704 -0.5512 -0.0726
17633TIP3    H174390   2.415   2.190   3.837  1.5361  0.4488 -0.8330
17633TIP3    H274391   2.495   2.252   3.949  0.8736 -0.8722  0.3792
17634TIP3   OH274392   4.751   2.231   3.686  0.0919 -0.2094 -0.0829
17634TIP3    H174393   4.658   2.231   3.705 -0.2570 -0.7286 -1.6769
17634TIP3    H274394   4.763   2.160   3.622  1.8851 -1.4011  1.5228
17635TIP3   OH274395   4.441   6.423   0.812 -0.1465  0.4690  0.6306
17635TIP3    H174396   4.418   6.341   0.768  0.8188  0.6110 -0.1624
17635TIP3    H274397   4.457   6.398   0.903 -0.0882 -0.1783  0.4438
17636TIP3   OH274398   1.546   1.450  11.963  0.0876 -0.3246 -0.0252
17636TIP3    H174399   1.617   1.480  11.907  1.5036 -1.1804  1.2716
17636TIP3    H274400   1.466   1.481  11.920  1.1222 -1.1469 -2.6342
17637TIP3   OH274401   4.722   0.297   1.002  0.1583 -0.6333 -0.1069
17637TIP3    H174402   4.758   0.228   0.947 -0.5416 -1.2057  0.1498
17637TIP3    H274403   4.697   0.253   1.083  1.3154  0.2312  0.7225
17638TIP3   OH274404   5.618   0.420   3.620  0.8650  0.1599 -0.3451
17638TIP3    H174405   5.688   0.368   3.582  1.0840  1.8467 -2.3660
17638TIP3    H274406   5.661   0.473   3.688  1.6155  1.3314 -1.7099
17639TIP3   OH274407   6.267   4.124   0.506 -0.7977  0.1077 -0.1293
17639TIP3    H174408   6.236   4.085   0.424  0.2481  0.8009 -0.8649
17639TIP3    H274409   6.226   4.211   0.508 -0.8825  0.0635  0.1264
17640TIP3   OH274410   0.953   5.742   5.535  0.7798 -0.1817  0.0732
17640TIP3    H174411   1.019   5.807   5.510 -0.5200  1.2675  0.3522
17640TIP3    H274412   0.919   5.709   5.452  0.7141  0.2472 -0.0701
17641TIP3   OH274413   3.930   0.589   5.608 -0.6432 -0.1073 -0.0835
17641TIP3    H174414   3.969   0.670   5.641 -1.6306 -0.4612  2.0548
17641TIP3    H274415   3.844   0.585   5.649 -0.8416 -1.9383 -0.6256
17642TIP3   OH274416   4.271   3.877   5.987  0.0367  0.1615 -0.1535
17642TIP3    H174417   4.331   3.835   6.049  0.4660 -0.6813 -1.1337
17642TIP3    H274418   4.185   3.870   6.027  0.2221 -0.9477  0.0545
17643TIP3   OH274419   4.343   3.695   4.371 -0.1994 -0.5121 -0.5460
17643TIP3    H174420   4.367   3.605   4.395  0.1288 -0.4777 -0.7347
17643TIP3    H274421   4.317   3.736   4.453 -0.7430 -0.8996 -0.5250
17644TIP3   OH274422   1.307   2.475   5.936 -0.1998 -0.0970 -0.5677
17644TIP3    H174423   1.394   2.470   5.975 -0.3475 -2.1800 -0.4529
17644TIP3    H274424   1.255   2.526   5.998  1.1048  1.8521 -1.0153
17645TIP3   OH274425   3.503   5.356   0.200  0.6254 -0.2771  0.1726
17645TIP3    H174426   3.427   5.317   0.242  0.5132 -0.9302 -0.6169
17645TIP3    H274427   3.543   5.284   0.151  1.8393  0.0244  0.6982
17646TIP3   OH274428   4.819   3.814  13.624  0.0578 -0.1052  0.0262
17646TIP3    H174429   4.885   3.863  13.574 -1.2765 -0.3557 -2.0498
17646TIP3    H274430   4.764   3.882  13.662  1.0140  0.0881  1.0798
17647TIP3   OH274431   0.089   1.885   6.736 -0.2064 -0.1452  0.1628
17647TIP3    H174432   0.019   1.944   6.709  0.9382  1.6294  0.9408
17647TIP3    H274433   0.144   1.875   6.658  0.7055  1.4870  0.5624
17648TIP3   OH274434   4.831   6.413   4.809  0.2622  0.8668 -0.0233
17648TIP3    H174435   4.802   6.474   4.742 -0.6077  1.5044  0.9123
17648TIP3    H274436   4.787   6.331   4.788 -0.0942  1.0947 -0.1708
17649TIP3   OH274437   1.214   6.643  13.606  0.1535 -0.3505  0.1260
17649TIP3    H174438   1.308   6.662  13.602  0.1414 -0.4446 -0.8249
17649TIP3    H274439   1.172   6.729  13.614  0.1632  0.0042 -2.8835
17650TIP3   OH274440   2.373   6.720  16.392 -0.1249 -0.6689 -0.5188
17650TIP3    H174441   2.447   6.781  16.381  0.0149 -1.0869 -2.0489
17650TIP3    H274442   2.412   6.633  16.385 -0.6379 -0.9039 -0.4592
17651TIP3   OH274443   3.601   6.067  15.198  0.1692  0.0831  0.5218
17651TIP3    H174444   3.655   5.991  15.177 -0.1276 -0.0455  0.2074
17651TIP3    H274445   3.514   6.044  15.165  0.3338  1.0184 -0.5939
17652TIP3   OH274446   6.737   5.877   2.472  0.1532  0.1316 -0.2827
17652TIP3    H174447   6.748   5.837   2.386 -1.8189 -1.5907  0.2342
17652TIP3    H274448   6.815   5.849   2.521 -0.8014 -2.5196 -0.1780
17653TIP3   OH274449   2.194   0.088  12.981  0.5967 -0.3802  0.4807
17653TIP3    H174450   2.109   0.123  13.005 -0.0145 -0.9132 -0.8612
17653TIP3    H274451   2.190  -0.005  13.004  0.4492 -0.6234 -0.4862
17654TIP3   OH274452   5.316   1.076   6.109 -0.3567 -1.0264  0.0367
17654TIP3    H174453   5.370   1.040   6.179 -0.1954 -2.4303 -0.7868
17654TIP3    H274454   5.368   1.064   6.030 -0.3621  0.9251 -0.2823
17655TIP3   OH274455   3.738   3.245  15.558  0.1312 -0.2178 -0.0721
17655TIP3    H174456   3.711   3.190  15.631  1.1804 -2.0603 -1.0415
17655TIP3    H274457   3.824   3.278  15.583  0.4455 -0.7663 -0.4161
17656TIP3   OH274458   6.163   2.300  14.124  0.2539 -0.0729 -0.4040
17656TIP3    H174459   6.216   2.312  14.203 -0.6165 -0.5857  0.2780
17656TIP3    H274460   6.194   2.367  14.064  1.7548 -0.4405 -0.0667
17657TIP3   OH274461   4.259   5.039  11.594  0.1671  0.2472  0.2183
17657TIP3    H174462   4.313   4.969  11.557  0.3879  0.5865 -0.1083
17657TIP3    H274463   4.181   4.995  11.627 -0.5469  0.0574 -1.6573
17658TIP3   OH274464   6.105   1.908   2.980 -0.1727 -0.3613 -0.1823
17658TIP3    H174465   6.027   1.875   2.937  0.1681  0.1016 -1.1629
17658TIP3    H274466   6.160   1.831   2.992  0.3522 -0.2652 -1.8986
17659TIP3   OH274467   4.102   2.500  14.734 -0.4253 -0.0872 -0.2539
17659TIP3    H174468   4.077   2.508  14.642  0.2847  0.6805 -0.3857
17659TIP3    H274469   4.102   2.589  14.767  2.4341 -0.0019 -0.3440
17660TIP3   OH274470   1.088   1.595   6.602 -0.1617  0.0439 -0.1831
17660TIP3    H174471   0.993   1.580   6.596 -0.2273  0.1637  0.5507
17660TIP3    H274472   1.125   1.509   6.619 -0.2660  0.2088  0.9231
17661TIP3   OH274473   5.614   4.975  12.080 -0.5722 -0.2612  0.2147
17661TIP3    H174474   5.565   4.996  12.159 -1.1557 -0.9088  0.0327
17661TIP3    H274475   5.656   4.891  12.100  0.4509  0.2711  0.3626
17662TIP3   OH274476   1.356   6.790  16.552  0.4430  1.1422  0.2536
17662TIP3    H174477   1.416   6.864  16.563  1.1808  0.6155 -0.2689
17662TIP3    H274478   1.412   6.716  16.530 -0.3905  0.6309 -0.1685
17663TIP3   OH274479   0.279   1.682   5.154  0.3317  0.0317  0.1010
17663TIP3    H174480   0.249   1.695   5.064  1.0169  0.4108 -0.0734
17663TIP3    H274481   0.228   1.608   5.186 -0.7097  0.5934 -0.2347
17664TIP3   OH274482   4.251   0.090   3.281  0.0681  0.3974  0.1519
17664TIP3    H174483   4.171   0.140   3.292 -0.3157 -0.1985  0.1330
17664TIP3    H274484   4.257   0.035   3.359 -0.3153 -0.6089 -0.5103
17665TIP3   OH274485   3.214   2.637  15.521  0.1107 -0.5454  0.4065
17665TIP3    H174486   3.253   2.612  15.437 -1.2431 -1.5218  0.0326
17665TIP3    H274487   3.121   2.651  15.500 -0.3070 -1.1393  1.8048
17666TIP3   OH274488   2.401   2.479  15.942 -0.1190  0.3174 -0.2483
17666TIP3    H174489   2.398   2.386  15.917  2.0820 -0.0157  0.6291
17666TIP3    H274490   2.450   2.521  15.871 -0.4573  0.6994 -0.2591
17667TIP3   OH274491   3.331   0.406   0.792  0.3944 -0.0041 -0.3451
17667TIP3    H174492   3.421   0.381   0.814 -0.0661 -0.6553  0.8149
17667TIP3    H274493   3.341   0.486   0.741  1.5869  0.4206  0.5184
17668TIP3   OH274494   0.520   0.752  15.368  0.6871 -0.4167 -0.3108
17668TIP3    H174495   0.502   0.787  15.455  0.9408  0.6500 -0.6754
17668TIP3    H274496   0.437   0.758  15.321  0.1995 -2.2618  0.2647
17669TIP3   OH274497   0.358   6.446  12.592 -0.4103  0.3172 -0.2641
17669TIP3    H174498   0.432   6.469  12.535 -0.8570  0.9454 -0.6010
17669TIP3    H274499   0.366   6.352  12.605  1.7465  0.7370  1.5393
17670TIP3   OH274500   1.911   0.876   1.158  0.1488  0.0065  0.4444
17670TIP3    H174501   1.846   0.923   1.105 -0.5047 -0.4371  0.8508
17670TIP3    H274502   1.990   0.876   1.104 -0.8978 -1.6607 -1.1497
17671TIP3   OH274503   0.321   4.680   0.350  0.2550 -0.3605 -0.4477
17671TIP3    H174504   0.297   4.650   0.262 -1.4078  0.8709 -0.4260
17671TIP3    H274505   0.247   4.655   0.405  0.6849  0.1092  0.3473
17672TIP3   OH274506   4.580   3.142  11.457 -0.4314  0.1932 -0.3289
17672TIP3    H174507   4.530   3.077  11.504 -2.8126  1.5982 -0.8515
17672TIP3    H274508   4.543   3.142  11.368  1.5532  0.1429 -1.1951
17673TIP3   OH274509   3.182   0.813  13.615 -0.1872  0.3766 -0.5501
17673TIP3    H174510   3.109   0.863  13.652  0.4578 -0.3769  1.8641
17673TIP3    H274511   3.256   0.873  13.618 -0.0845  0.2442 -0.3917
17674TIP3   OH274512   0.390   5.074   4.275  0.0761 -0.2260  0.6892
17674TIP3    H174513   0.320   5.011   4.258  0.8035 -1.1295  0.9676
17674TIP3    H274514   0.412   5.060   4.367  0.7143 -0.0463  0.5670
17675TIP3   OH274515   6.341   5.531  11.920 -0.5817  0.1094 -0.0139
17675TIP3    H174516   6.368   5.463  11.981 -2.1170 -2.7766 -2.4023
17675TIP3    H274517   6.395   5.516  11.842 -0.6769  1.8911 -0.4471
17676TIP3   OH274518   5.420   2.137   1.835 -0.3483 -0.1744  0.1233
17676TIP3    H174519   5.506   2.155   1.874  0.3520  0.1036 -1.5255
17676TIP3    H274520   5.370   2.096   1.906  0.9267  0.2538  1.2913
17677TIP3   OH274521   3.898   0.713  14.607  0.1724 -0.4836  0.5207
17677TIP3    H174522   3.825   0.768  14.579 -2.1296 -2.0902  3.1324
17677TIP3    H274523   3.924   0.667  14.527 -0.3898  1.5158 -0.8593
17678TIP3   OH274524   1.052   0.739  13.670 -0.0147  0.1377 -0.5400
17678TIP3    H174525   0.965   0.779  13.672  0.6062  1.5515 -1.0808
17678TIP3    H274526   1.035   0.645  13.668 -1.5443  0.4060 -0.9505
17679TIP3   OH274527   5.262   4.580  12.989 -0.0276  0.0104 -0.0209
17679TIP3    H174528   5.348   4.614  12.963 -1.0594  2.9995  0.3352
17679TIP3    H274529   5.267   4.571  13.085 -0.1018  0.0874 -0.0102
17680TIP3   OH274530   3.683   2.645  14.093 -0.9517  0.7740  0.0929
17680TIP3    H174531   3.699   2.600  14.010  0.1350 -0.2551  0.8410
17680TIP3    H274532   3.633   2.582  14.145 -0.3923  0.8558  0.7332
17681TIP3   OH274533   6.392   0.693  13.623 -0.0673 -0.2923  0.5465
17681TIP3    H174534   6.416   0.698  13.530 -2.1915  0.2836 -0.0093
17681TIP3    H274535   6.349   0.607  13.631 -1.2032  0.2784  0.6501
17682TIP3   OH274536   3.411   3.840   3.055 -0.0888  0.2166  0.1933
17682TIP3    H174537   3.487   3.782   3.060  1.8393  2.6399  0.1867
17682TIP3    H274538   3.372   3.821   2.970  0.4633 -1.1170  0.2307
17683TIP3   OH274539   5.408   4.016  10.797 -0.5080  0.4242  0.1751
17683TIP3    H174540   5.430   4.053  10.712 -2.0359  0.5149 -0.1873
17683TIP3    H274541   5.466   3.940  10.806  0.0299  0.7220 -0.6975
17684TIP3   OH274542   3.555   4.053  12.607 -0.4489 -0.2246 -0.4520
17684TIP3    H174543   3.495   3.981  12.624  1.3290 -1.2487  1.6849
17684TIP3    H274544   3.571   4.092  12.693  1.5289  0.3568 -1.0623
17685TIP3   OH274545   0.835   6.087  14.253  0.3970  0.0010  0.0635
17685TIP3    H174546   0.908   6.065  14.196  0.9351 -2.0532  1.5023
17685TIP3    H274547   0.810   6.003  14.293 -0.7801  1.1943  1.8730
17686TIP3   OH274548   5.015   6.070   2.553  0.3480  0.4857  0.3692
17686TIP3    H174549   4.964   6.148   2.534 -0.5553  0.1311  1.2914
17686TIP3    H274550   4.962   6.022   2.617  0.3353 -1.4297 -1.0361
17687TIP3   OH274551   0.355   6.081  16.359 -0.1597 -0.2506  0.2778
17687TIP3    H174552   0.327   6.172  16.366 -1.2723 -0.4999 -0.8205
17687TIP3    H274553   0.298   6.043  16.292  1.7559 -1.1761 -0.8993
17688TIP3   OH274554   1.542   0.067   5.663 -0.0614  0.3381  0.3732
17688TIP3    H174555   1.562   0.144   5.717 -0.6743  1.7455 -1.3594
17688TIP3    H274556   1.551   0.098   5.573 -1.5778 -1.2849 -0.3630
17689TIP3   OH274557   5.762   1.370  11.270  0.3900 -0.0586 -0.0606
17689TIP3    H174558   5.687   1.347  11.216 -0.0366  2.6013 -0.6673
17689TIP3    H274559   5.832   1.390  11.208  1.3697 -1.6428  0.4867
17690TIP3   OH274560   3.893   6.476  16.100 -0.1913  0.5368  0.1920
17690TIP3    H174561   3.857   6.562  16.122  1.3448  1.4687 -0.7974
17690TIP3    H274562   3.944   6.450  16.177 -0.9233  0.3731  0.6151
17691TIP3   OH274563   3.877   2.681  11.012 -0.5096  0.2923  0.0917
17691TIP3    H174564   3.796   2.647  10.975 -0.6012 -0.7926  1.2582
17691TIP3    H274565   3.901   2.618  11.080  1.0884  0.8195  0.0435
17692TIP3   OH274566   1.902   1.268  15.189  0.1759 -0.1713  0.0582
17692TIP3    H174567   1.969   1.256  15.256  0.5477  0.0983 -0.2593
17692TIP3    H274568   1.936   1.221  15.113  2.0300  3.4181 -1.4561
17693TIP3   OH274569   6.312   1.974  11.757  0.2071 -0.0082  0.2853
17693TIP3    H174570   6.385   2.019  11.800  0.2029  0.0740  0.2065
17693TIP3    H274571   6.273   2.041  11.700  0.4816 -0.2426 -0.1711
17694TIP3   OH274572   6.009   5.080  11.816  0.8863 -0.0647 -0.5463
17694TIP3    H174573   6.078   5.143  11.833  0.1306  0.2848  1.3482
17694TIP3    H274574   5.936   5.133  11.782  0.4102  0.0519  0.6172
17695TIP3   OH274575   1.881   5.201  11.421  0.1461 -0.4883  0.4879
17695TIP3    H174576   1.935   5.268  11.380 -1.1957  0.9822  1.0845
17695TIP3    H274577   1.909   5.119  11.381 -1.0353  0.8807 -3.2979
17696TIP3   OH274578   1.653   1.825  16.052  0.5521 -0.2293 -0.9101
17696TIP3    H174579   1.703   1.870  15.983  0.7490  0.3928 -0.3713
17696TIP3    H274580   1.561   1.842  16.029  0.6136  2.7832  0.7432
17697TIP3   OH274581   4.067   4.496  16.000 -0.3940 -0.4603  0.3023
17697TIP3    H174582   4.024   4.489  15.915 -0.0447 -1.3786  0.1910
17697TIP3    H274583   4.115   4.414  16.009  1.4326  0.5848  0.3656
17698TIP3   OH274584   1.705   4.115  16.281  0.1936  0.3143 -0.3397
17698TIP3    H174585   1.705   4.206  16.251 -1.2527  0.7680  0.9680
17698TIP3    H274586   1.633   4.074  16.233 -0.7473  0.5027  0.8852
17699TIP3   OH274587   6.503   1.148  13.075  0.0116  0.0867 -0.5920
17699TIP3    H174588   6.409   1.144  13.056 -0.3731 -0.4752  1.3079
17699TIP3    H274589   6.508   1.197  13.157  1.1439 -2.2944  0.7975
17700TIP3   OH274590   4.722   3.246   5.853 -0.2351  0.1914  0.2143
17700TIP3    H174591   4.711   3.237   5.948  0.2511  2.6390  0.5513
17700TIP3    H274592   4.768   3.329   5.843  1.3307 -0.9105 -2.0984
17701TIP3   OH274593   5.471   6.511   4.200 -0.2823  0.0525  0.1710
17701TIP3    H174594   5.467   6.467   4.285 -0.9503 -1.6550 -0.7166
17701TIP3    H274595   5.392   6.563   4.196 -0.3455 -0.0127  0.5204
17702TIP3   OH274596   3.272   0.691  16.061 -0.5626 -0.2497  0.2143
17702TIP3    H174597   3.220   0.771  16.071 -1.6874 -1.1214  1.3850
17702TIP3    H274598   3.256   0.663  15.971 -2.4002 -0.6823  0.6470
17703TIP3   OH274599   2.611   2.018  13.882 -0.4142 -0.0308  0.0881
17703TIP3    H174600   2.563   2.100  13.867 -0.3714 -0.1027 -0.4669
17703TIP3    H274601   2.550   1.963  13.929  0.2369  1.0220  2.2278
17704TIP3   OH274602   6.223   5.885   2.059 -0.3560 -0.0694 -0.2837
17704TIP3    H174603   6.193   5.828   1.988  0.0949 -2.0532  1.0558
17704TIP3    H274604   6.196   5.973   2.034 -1.9053 -1.0122 -1.9711
17705TIP3   OH274605   6.388   3.712   3.856  0.1375 -0.1873  0.0209
17705TIP3    H174606   6.299   3.711   3.819  0.0272  0.4500  0.2595
17705TIP3    H274607   6.424   3.797   3.830 -1.3465  2.0705  4.5967
17706TIP3   OH274608   2.267   2.212  13.693 -0.2380  0.4438 -0.5564
17706TIP3    H174609   2.228   2.128  13.715 -0.1349  0.5915  0.1813
17706TIP3    H274610   2.299   2.247  13.776  3.8919 -0.8562 -1.4971
17707TIP3   OH274611   2.061   6.483   3.675  1.1010 -0.2784  0.0811
17707TIP3    H174612   1.999   6.552   3.653  1.4011 -0.0427 -0.0334
17707TIP3    H274613   2.086   6.444   3.591  0.6052 -0.8163  0.1770
17708TIP3   OH274614   5.251   4.809  11.290  1.0332 -0.5470 -0.4101
17708TIP3    H174615   5.172   4.758  11.312  0.6918  0.7070  1.3554
17708TIP3    H274616   5.295   4.756  11.224 -0.4358 -2.0953 -0.1994
17709TIP3   OH274617   3.268   5.772   2.128 -0.1227  0.5109 -0.1666
17709TIP3    H174618   3.348   5.778   2.181 -0.4829 -2.6596  0.8582
17709TIP3    H274619   3.298   5.790   2.039  1.7258 -0.2806  0.2515
17710TIP3   OH274620   2.528   5.323   2.688 -0.0133 -0.0223  0.3379
17710TIP3    H174621   2.438   5.293   2.697 -1.0960  2.8112 -0.3470
17710TIP3    H274622   2.566   5.313   2.775 -1.8127  1.1541  1.2941
17711TIP3   OH274623   6.571   5.891   1.978  0.1746  0.1378 -0.0402
17711TIP3    H174624   6.547   5.973   2.023 -0.8361  0.7932 -1.7357
17711TIP3    H274625   6.501   5.877   1.915  0.2479 -2.1669  0.3541
17712TIP3   OH274626   1.713   4.235  13.575 -0.0020 -0.5261 -0.5307
17712TIP3    H174627   1.777   4.205  13.510 -1.4121 -3.0754 -0.7967
17712TIP3    H274628   1.628   4.217  13.535 -0.9037 -0.0036  1.0971
17713TIP3   OH274629   2.910   3.129   0.247 -0.4160 -0.1763  0.4354
17713TIP3    H174630   2.899   3.041   0.210  0.1486  0.1543 -0.5195
17713TIP3    H274631   2.845   3.183   0.202 -0.9660 -0.1621  1.2363
17714TIP3   OH274632   2.891   3.223   1.223  0.4699 -0.3150  0.1553
17714TIP3    H174633   2.822   3.290   1.222  0.2337 -0.5565 -0.8971
17714TIP3    H274634   2.886   3.184   1.310 -0.3525  0.0655  0.2856
17715TIP3   OH274635   3.035   5.541  16.891  0.1174  0.1820 -0.2662
17715TIP3    H174636   3.050   5.476  16.960 -0.3822 -1.7270 -1.9400
17715TIP3    H274637   3.008   5.490  16.815  0.6096  2.2795 -1.8794
17716TIP3   OH274638   0.181   4.596   2.447 -0.3556 -0.4668  0.2793
17716TIP3    H174639   0.203   4.651   2.372 -0.2838  1.7797  1.8678
17716TIP3    H274640   0.264   4.585   2.493 -0.9683  1.0126  1.8030
17717TIP3   OH274641   2.664   6.428  15.597 -0.0643 -0.6882 -0.1913
17717TIP3    H174642   2.745   6.468  15.630  2.0330 -3.5738 -1.6073
17717TIP3    H274643   2.604   6.431  15.672  1.4566  1.0986  1.0238
17718TIP3   OH274644   4.197   1.381   2.633 -0.4860  0.3334  0.3393
17718TIP3    H174645   4.230   1.471   2.641  0.6644  0.0494 -1.0527
17718TIP3    H274646   4.202   1.346   2.722 -2.4739  2.1604  1.2088
17719TIP3   OH274647   4.908   4.017   3.983  0.1429 -0.2120 -0.2013
17719TIP3    H174648   4.820   3.985   4.003  1.2287 -2.2695  1.6169
17719TIP3    H274649   4.937   3.963   3.909  0.3903 -0.5796  0.1539
17720TIP3   OH274650   6.335   2.463  17.289  0.0219  0.6819 -0.2689
17720TIP3    H174651   6.284   2.431  17.215 -2.5866  4.1364 -0.0909
17720TIP3    H274652   6.279   2.448  17.365  1.5634 -0.3574  0.7021
17721TIP3   OH274653   6.212   2.354   2.820  0.2070  0.0018 -0.0044
17721TIP3    H174654   6.219   2.260   2.839  0.2398 -0.1319 -0.6726
17721TIP3    H274655   6.119   2.369   2.804  0.5272 -0.4563 -2.5939
17722TIP3   OH274656   5.596   1.330  14.887 -0.3664 -0.3416 -0.2647
17722TIP3    H174657   5.623   1.414  14.923 -1.2565  0.3889 -1.2837
17722TIP3    H274658   5.597   1.343  14.792  0.3803 -1.7566 -0.4696
17723TIP3   OH274659   1.422   2.840  12.532 -0.0012  0.4630  0.1454
17723TIP3    H174660   1.408   2.748  12.553 -3.0103  0.7948 -0.2322
17723TIP3    H274661   1.425   2.843  12.437  0.8265  0.6681  0.1742
17724TIP3   OH274662   5.836   5.115  12.755  0.6984 -0.1362 -0.1739
17724TIP3    H174663   5.781   5.136  12.830 -1.2137  0.7707 -1.7794
17724TIP3    H274664   5.808   5.028  12.728  0.3870  0.1118 -0.6705
17725TIP3   OH274665   5.499   3.957  14.254 -0.0208  0.3510  1.4778
17725TIP3    H174666   5.461   3.882  14.209  2.1370  0.5798 -0.8890
17725TIP3    H274667   5.549   3.920  14.327  1.6487 -0.6241 -0.1214
17726TIP3   OH274668   0.919   2.764  15.588  0.0433  0.3195  0.7004
17726TIP3    H174669   0.986   2.715  15.539  0.1426 -0.4899  1.6159
17726TIP3    H274670   0.855   2.790  15.522  0.4127 -0.3514  0.0664
17727TIP3   OH274671   2.447   6.168  12.409 -0.4573 -0.0408 -0.1734
17727TIP3    H174672   2.502   6.089  12.413 -0.0449  0.1844 -1.2260
17727TIP3    H274673   2.476   6.212  12.329 -3.4596 -0.8477 -1.7803
17728TIP3   OH274674   3.397   6.361  15.231 -0.1500 -0.2767  0.1349
17728TIP3    H174675   3.422   6.452  15.247 -1.8474 -0.0940  1.9298
17728TIP3    H274676   3.441   6.338  15.149 -0.0940  2.2960 -0.6003
17729TIP3   OH274677   5.696   6.261   1.237  0.0329  0.5783 -0.0126
17729TIP3    H174678   5.603   6.279   1.251 -0.9177 -2.5093 -1.8416
17729TIP3    H274679   5.706   6.168   1.256  1.6599 -0.3176 -4.5178
17730TIP3   OH274680   0.034   4.697  13.261  0.1701  0.1044 -0.4179
17730TIP3    H174681  -0.012   4.617  13.237 -0.6184  0.4755 -0.1743
17730TIP3    H274682   0.063   4.681  13.351 -0.4074  0.2635 -0.1945
17731TIP3   OH274683   2.381   0.185   4.842 -0.0002 -0.4660 -0.5210
17731TIP3    H174684   2.472   0.214   4.834 -0.4911  1.4354  0.3430
17731TIP3    H274685   2.334   0.237   4.777 -0.9496  1.0358  1.2946
17732TIP3   OH274686   0.527   3.103   3.333 -0.4166 -0.7675 -0.0358
17732TIP3    H174687   0.462   3.032   3.339 -0.5628 -0.5938  0.4823
17732TIP3    H274688   0.510   3.157   3.410  0.0226 -0.4449 -0.1650
17733TIP3   OH274689   5.488   5.130  12.557 -0.6332 -0.0799  0.4366
17733TIP3    H174690   5.405   5.168  12.526 -0.8850 -0.2446  0.9014
17733TIP3    H274691   5.489   5.147  12.651  0.1092  0.3748  0.3494
17734TIP3   OH274692   4.806   0.364   1.620 -0.0643  0.3757  0.2739
17734TIP3    H174693   4.865   0.289   1.633 -0.9183 -0.7431 -1.9384
17734TIP3    H274694   4.855   0.423   1.563 -0.7799 -0.2264 -0.9878
17735TIP3   OH274695   5.656   5.649  13.804 -0.3888  0.1395 -0.1869
17735TIP3    H174696   5.659   5.611  13.892  1.4164  0.7882  0.0479
17735TIP3    H274697   5.716   5.595  13.753 -0.4831  0.5349 -0.7157
17736TIP3   OH274698   5.080   0.851  15.939  0.1531  0.1345 -0.0099
17736TIP3    H174699   5.119   0.937  15.925  0.1455  0.2067  0.4066
17736TIP3    H274700   5.009   0.846  15.875 -0.8432  1.0545  1.0192
17737TIP3   OH274701   0.858   6.280   0.284 -0.1252 -0.1714 -0.2334
17737TIP3    H174702   0.762   6.287   0.287 -0.1618 -0.3976 -0.9056
17737TIP3    H274703   0.879   6.278   0.191  0.6596  1.5669 -0.1202
17738TIP3   OH274704   0.693   4.878   1.621  0.1324  0.0478  0.3029
17738TIP3    H174705   0.633   4.881   1.696  0.7533  0.3834  0.7901
17738TIP3    H274706   0.739   4.795   1.630 -0.0610 -0.0804  0.0893
17739TIP3   OH274707   2.492   3.115  13.720  0.0687 -0.2015 -0.2112
17739TIP3    H174708   2.545   3.189  13.691  2.2235 -2.0700 -1.2317
17739TIP3    H274709   2.458   3.077  13.639 -2.0972  0.3960  0.3785
17740TIP3   OH274710   1.625   2.918  17.216  0.4558 -0.0544 -0.4772
17740TIP3    H174711   1.529   2.917  17.208  0.3296  1.0558  0.6743
17740TIP3    H274712   1.641   2.969  17.295  1.9942 -0.6150 -0.4185
17741TIP3   OH274713   4.571   1.628  14.018 -0.2233 -0.7449 -0.0863
17741TIP3    H174714   4.565   1.709  13.967  0.4310 -0.4999  0.2256
17741TIP3    H274715   4.640   1.645  14.082 -1.2856 -0.9193  1.1226
17742TIP3   OH274716   6.754   4.611   6.372  0.6889 -0.4642  0.0489
17742TIP3    H174717   6.679   4.650   6.328  0.0017 -2.6114 -0.7101
17742TIP3    H274718   6.829   4.662   6.341 -0.1186 -0.1813 -1.4578
17743TIP3   OH274719   5.644   0.685   5.045  0.4053  0.2439 -0.3049
17743TIP3    H174720   5.674   0.761   4.996 -1.7982  0.5647 -1.2220
17743TIP3    H274721   5.694   0.688   5.127 -0.3228  3.2304  0.0944
17744TIP3   OH274722   6.617   3.426   6.461 -0.3671  0.3114 -0.2915
17744TIP3    H174723   6.561   3.379   6.400 -1.5448  0.5577  0.5938
17744TIP3    H274724   6.572   3.420   6.545  0.7392  0.8366  0.3490
17745TIP3   OH274725   0.792   0.462   4.248 -0.3951  0.3689  0.1593
17745TIP3    H174726   0.866   0.523   4.255  0.1719 -0.0164 -1.9770
17745TIP3    H274727   0.811   0.394   4.313  0.1576  1.2648  0.9387
17746TIP3   OH274728   1.620   2.153  16.073 -0.1396 -0.1809 -0.0288
17746TIP3    H174729   1.538   2.116  16.040  0.3143 -0.3628 -0.9722
17746TIP3    H274730   1.620   2.244  16.042 -0.4103  0.0797  0.7406
17747TIP3   OH274731   2.403   5.848   6.036  1.0453 -0.3498 -0.2044
17747TIP3    H174732   2.475   5.788   6.056  0.9890 -1.4664 -3.0651
17747TIP3    H274733   2.438   5.903   5.966 -0.4290 -0.0525 -0.7140
17748TIP3   OH274734   5.898   1.024   1.013 -0.6804 -0.2881  0.4712
17748TIP3    H174735   5.964   0.956   1.000 -1.6343 -0.9297 -1.2599
17748TIP3    H274736   5.815   0.977   1.018 -1.2038  0.6428  0.7546
17749TIP3   OH274737   0.531   4.472  14.090  0.4099 -0.4378 -0.3243
17749TIP3    H174738   0.504   4.421  14.166 -1.0588 -0.4362 -0.8184
17749TIP3    H274739   0.615   4.510  14.115  0.7043 -1.7191  0.6884
17750TIP3   OH274740   2.947   0.002   2.876 -0.5144 -0.0574 -0.0255
17750TIP3    H174741   2.931   0.071   2.940 -0.0289 -1.6827  1.8834
17750TIP3    H274742   2.912  -0.078   2.917 -0.7988 -1.0179 -2.0579
17751TIP3   OH274743   0.190   2.593  15.165 -0.0523  0.2617  0.3623
17751TIP3    H174744   0.198   2.553  15.251 -0.2859  1.2060  0.8282
17751TIP3    H274745   0.264   2.558  15.115  0.3197  0.0362  1.0714
17752TIP3   OH274746   2.695   2.962   9.962 -0.2178 -0.3439 -0.0478
17752TIP3    H174747   2.767   3.016   9.993  1.1308 -1.9253 -0.3149
17752TIP3    H274748   2.670   2.909  10.039  0.0933 -1.0402 -0.4188
17753TIP3   OH274749   5.807   6.459  15.628 -0.0076 -0.0876 -0.6401
17753TIP3    H174750   5.719   6.422  15.619 -0.4896  0.5528  1.2121
17753TIP3    H274751   5.840   6.422  15.710 -0.2771  3.0640  0.9677
17754TIP3   OH274752   0.121   5.763   0.989  0.3429 -0.1046  0.6651
17754TIP3    H174753   0.052   5.828   0.977  0.8654  0.3684  0.1027
17754TIP3    H274754   0.084   5.697   1.046 -0.8482 -0.2644 -0.2747
17755TIP3   OH274755   1.105   5.429   2.506 -0.6815  0.1505 -0.1471
17755TIP3    H174756   1.019   5.421   2.546  0.9693  1.9513  4.1385
17755TIP3    H274757   1.113   5.523   2.486  1.1821  0.5115  1.9858
17756TIP3   OH274758   1.530   4.273  15.989  0.5944  0.5230 -0.0937
17756TIP3    H174759   1.436   4.293  15.991  1.0443  2.8856 -0.7716
17756TIP3    H274760   1.572   4.359  15.986  2.7312 -0.5523 -1.9791
17757TIP3   OH274761   0.663   3.090   3.659  0.8552 -0.3305 -0.3879
17757TIP3    H174762   0.703   3.078   3.746 -0.2725 -0.3108  0.1363
17757TIP3    H274763   0.623   3.006   3.639  0.5523 -0.1375 -0.6007
17758TIP3   OH274764   1.418   5.136   4.290  0.2212 -0.2783 -0.4874
17758TIP3    H174765   1.364   5.207   4.325  0.3449 -0.9690  1.1555
17758TIP3    H274766   1.497   5.178   4.258  1.3891  0.1105  2.7103
17759TIP3   OH274767   6.427   1.151  11.538  0.0359 -0.2153  0.3641
17759TIP3    H174768   6.507   1.197  11.512  0.7311 -0.4616  2.0168
17759TIP3    H274769   6.450   1.058  11.533 -0.4146 -0.3075  0.0008
17760TIP3   OH274770   3.995   3.493   5.582  0.4005 -0.1565 -0.4595
17760TIP3    H174771   3.948   3.464   5.505  0.7848 -0.0597 -0.7307
17760TIP3    H274772   4.075   3.534   5.548  0.1807  0.6187 -0.0513
17761TIP3   OH274773   2.206   2.057  16.298 -0.4858  0.5914 -0.5978
17761TIP3    H174774   2.177   1.984  16.352 -1.7143  1.0898 -0.5724
17761TIP3    H274775   2.229   2.126  16.360  1.0497  0.1121 -0.6022
17762TIP3   OH274776   5.241   4.412   4.798 -0.0943 -0.1840  0.0313
17762TIP3    H174777   5.152   4.418   4.763  0.0475 -0.2289 -0.3297
17762TIP3    H274778   5.257   4.318   4.808 -0.4548 -0.1512  1.0290
17763TIP3   OH274779   1.781   6.711  16.553 -0.6381 -0.3235  0.3315
17763TIP3    H174780   1.793   6.748  16.640 -1.4538  0.8867 -0.0514
17763TIP3    H274781   1.869   6.703  16.517 -0.4919  2.5556 -0.0869
17764TIP3   OH274782   5.111   5.171  14.664  0.3299  0.2562  0.1901
17764TIP3    H174783   5.082   5.177  14.573  0.5453  2.1138  0.2166
17764TIP3    H274784   5.193   5.220  14.666 -0.8528  2.2476  1.8471
17765TIP3   OH274785   2.536   3.241   2.057 -0.1384  0.0470  0.6419
17765TIP3    H174786   2.573   3.329   2.064  1.7102 -0.6908  0.5627
17765TIP3    H274787   2.553   3.201   2.142 -0.9785 -0.2373  0.6792
17766TIP3   OH274788   5.443   0.461   2.303 -0.8064 -0.4343 -0.1256
17766TIP3    H174789   5.356   0.483   2.338 -0.6107 -2.1161  1.4871
17766TIP3    H274790   5.434   0.372   2.271  0.0480 -0.2362 -0.9305
17767TIP3   OH274791   6.416   3.647  12.721 -0.0632 -0.4198 -0.1531
17767TIP3    H174792   6.505   3.628  12.691  0.0443  0.5401 -0.4525
17767TIP3    H274793   6.360   3.624  12.647 -0.1692 -2.0748  0.4237
17768TIP3   OH274794   4.708   1.894   0.202 -0.4591 -0.2137  0.2936
17768TIP3    H174795   4.750   1.974   0.169  1.7591 -0.5584  2.1220
17768TIP3    H274796   4.615   1.917   0.210 -0.2738  1.3248 -1.6750
17769TIP3   OH274797   4.639   0.507  16.756  0.2667 -0.3659  0.2656
17769TIP3    H174798   4.553   0.491  16.718  0.5629  1.9614 -1.4703
17769TIP3    H274799   4.694   0.436  16.722 -0.2145 -0.0707 -1.1376
17770TIP3   OH274800   3.417   0.645   2.459 -0.4163 -0.5939  0.6003
17770TIP3    H174801   3.383   0.557   2.442  0.2051 -0.8775  0.7889
17770TIP3    H274802   3.353   0.704   2.420 -0.8718 -1.1330  0.5326
17771TIP3   OH274803   1.766   1.557   5.511  0.2210  0.1477 -0.3116
17771TIP3    H174804   1.692   1.606   5.547 -0.2969 -1.2867  0.6293
17771TIP3    H274805   1.830   1.555   5.582  0.4507 -0.0921 -0.5250
17772TIP3   OH274806   4.940   2.171   1.179 -0.3935  0.3159  0.5004
17772TIP3    H174807   4.855   2.152   1.138 -0.8461  1.7454  0.7368
17772TIP3    H274808   4.932   2.138   1.268  0.5580 -2.7186 -0.4765
17773TIP3   OH274809   3.757   6.438  10.986  0.3577  0.3665 -0.1566
17773TIP3    H174810   3.785   6.432  10.895 -2.2527 -3.3889 -0.8191
17773TIP3    H274811   3.664   6.461  10.982 -0.2485 -1.6303  1.4682
17774TIP3   OH274812   1.765   1.584   1.084 -0.9062  0.3715 -0.4965
17774TIP3    H174813   1.834   1.578   1.151 -0.4678  0.1841 -0.9582
17774TIP3    H274814   1.808   1.628   1.010 -1.5754  1.1653 -0.4139
17775TIP3   OH274815   0.733   4.164   2.119 -0.2134  0.0337  0.0558
17775TIP3    H174816   0.781   4.084   2.098 -0.4040 -0.0722  0.0238
17775TIP3    H274817   0.731   4.213   2.038  0.4676  0.3676  0.2379
17776TIP3   OH274818   4.213   4.218   1.480 -0.4563 -0.2391  0.8503
17776TIP3    H174819   4.301   4.185   1.461 -1.4155 -2.4985  0.0983
17776TIP3    H274820   4.163   4.140   1.504 -2.1626  1.0659  1.6236
17777TIP3   OH274821   2.582   2.201   2.488  0.0894  0.3230  0.1493
17777TIP3    H174822   2.574   2.187   2.393 -2.3973  1.7395  0.1192
17777TIP3    H274823   2.547   2.120   2.526  3.4651 -1.3580 -0.0746
17778TIP3   OH274824   0.581   2.014  14.983  0.1208 -0.3932 -0.5865
17778TIP3    H174825   0.499   1.994  14.939  0.6520 -0.3238 -1.6292
17778TIP3    H274826   0.559   2.017  15.076 -0.7618 -1.8541 -0.7347
17779TIP3   OH274827   2.861   1.960  16.245 -0.2201 -0.8453  0.3665
17779TIP3    H174828   2.804   2.002  16.310  0.2221  1.0629 -0.4397
17779TIP3    H274829   2.948   1.965  16.283  0.0064  0.0652 -0.2607
17780TIP3   OH274830   5.267   5.892   1.770  0.3827 -0.5149 -0.2032
17780TIP3    H174831   5.329   5.935   1.712 -0.5077  0.0125 -0.7851
17780TIP3    H274832   5.286   5.799   1.762  2.4888 -0.2380  1.2468
17781TIP3   OH274833   1.180   3.624  14.566  0.2213 -0.1562 -0.4451
17781TIP3    H174834   1.162   3.684  14.638 -1.4205 -1.4067  0.2052
17781TIP3    H274835   1.150   3.671  14.487 -1.1587 -0.1589  0.0661
17782TIP3   OH274836   3.800   1.914   4.706  0.4496 -0.2855 -0.2066
17782TIP3    H174837   3.836   1.903   4.618  3.4593 -2.5602  1.2142
17782TIP3    H274838   3.813   2.007   4.726  0.5028  0.0730 -1.8120
17783TIP3   OH274839   3.125   6.624  11.151 -0.6358 -0.0110 -0.5522
17783TIP3    H174840   3.214   6.658  11.158 -1.1444  0.8769  1.8142
17783TIP3    H274841   3.097   6.649  11.063  0.1222  2.9622 -0.0007
17784TIP3   OH274842   3.939   4.515  12.587  0.1767 -0.1569 -0.0370
17784TIP3    H174843   3.985   4.593  12.618  0.7558 -0.3513 -0.4053
17784TIP3    H274844   3.900   4.478  12.667 -0.6298  0.8431  0.0502
17785TIP3   OH274845   2.449   2.423  11.997  0.9013  0.4159  0.2840
17785TIP3    H174846   2.399   2.479  11.937  0.1274 -0.5655 -0.0075
17785TIP3    H274847   2.381   2.371  12.042  1.5545  0.2853  1.1218
17786TIP3   OH274848   0.029   4.553  15.085 -0.0735 -0.1963  0.6631
17786TIP3    H174849  -0.002   4.463  15.091  0.7603 -0.4537  1.0459
17786TIP3    H274850  -0.051   4.606  15.094 -0.3870 -0.8549  1.8272
17787TIP3   OH274851   2.793   5.169   4.690  0.4140 -0.0263  0.1248
17787TIP3    H174852   2.819   5.129   4.773 -1.9416  0.5544  1.1766
17787TIP3    H274853   2.809   5.262   4.701 -0.8650  0.1783  0.3155
17788TIP3   OH274854   1.318   0.288   5.644 -0.7135  0.3622 -0.2870
17788TIP3    H174855   1.390   0.301   5.705  0.4638  0.4358 -1.6841
17788TIP3    H274856   1.276   0.207   5.673  0.1868  0.0972  0.2634
17789TIP3   OH274857   3.230   3.284  15.693 -0.0329 -0.5923  0.0807
17789TIP3    H174858   3.175   3.362  15.706 -0.0426 -0.6317  0.2755
17789TIP3    H274859   3.310   3.318  15.654  0.5839 -0.2777  1.5968
17790TIP3   OH274860   3.322   4.238   6.636  0.6321  0.0657  1.1806
17790TIP3    H174861   3.249   4.299   6.643  0.5908  0.1074  0.3531
17790TIP3    H274862   3.312   4.197   6.551  0.2902 -1.5786  1.9928
17791TIP3   OH274863   1.009   2.433  10.892 -0.3575 -0.7057  0.1910
17791TIP3    H174864   1.012   2.475  10.978  0.2322  0.7352 -0.5168
17791TIP3    H274865   1.081   2.370  10.893 -0.3127 -0.6484  0.7203
17792TIP3   OH274866   3.720   6.742   4.754  0.5197 -0.0725 -0.6054
17792TIP3    H174867   3.814   6.736   4.743  0.5052 -0.9753 -0.2524
17792TIP3    H274868   3.689   6.791   4.677  0.9224 -2.3995 -2.2712
17793TIP3   OH274869   3.621   0.953   0.324 -0.5355  0.1803 -0.7504
17793TIP3    H174870   3.551   1.013   0.349 -1.5579 -0.4192 -2.1019
17793TIP3    H274871   3.600   0.871   0.369 -0.5944  0.0557 -1.0063
17794TIP3   OH274872   6.274   4.054   3.647 -0.1347  0.1031  0.0571
17794TIP3    H174873   6.277   4.146   3.622 -0.5560  0.7287  2.2376
17794TIP3    H274874   6.333   4.047   3.722  1.2364 -1.7652 -1.1241
17795TIP3   OH274875   4.636   4.614   1.750  0.1949 -0.3677  0.1227
17795TIP3    H174876   4.569   4.670   1.790 -1.0751 -3.4245  2.3858
17795TIP3    H274877   4.717   4.641   1.792  0.1105  1.8147 -1.0169
17796TIP3   OH274878   2.534   3.968   4.866  0.0012  0.4779 -0.4474
17796TIP3    H174879   2.611   3.944   4.814 -0.0202 -2.7736  0.8994
17796TIP3    H274880   2.461   3.962   4.804  0.4038  0.0824 -0.8932
17797TIP3   OH274881   3.735   1.001  11.142 -0.3205 -0.2299 -0.5787
17797TIP3    H174882   3.698   1.043  11.219 -1.3852  0.8370 -1.6477
17797TIP3    H274883   3.824   1.036  11.135 -0.2575 -0.2556  0.0869
17798TIP3   OH274884   5.882   0.818  14.038  0.6809 -0.7657 -0.2518
17798TIP3    H174885   5.799   0.817  13.990 -0.3729 -0.3741  1.5050
17798TIP3    H274886   5.949   0.802  13.971 -0.7507 -0.4216 -1.8009
17799TIP3   OH274887   2.164   2.826   0.400  0.0046  0.1009 -0.0391
17799TIP3    H174888   2.129   2.740   0.377 -0.9907  0.3973  0.3493
17799TIP3    H274889   2.215   2.810   0.479 -1.5174  0.1397  0.9745
17800TIP3   OH274890   3.899   0.249  16.956  0.5640  0.1910  0.3398
17800TIP3    H174891   3.908   0.158  16.984  2.5512 -0.4691 -2.2425
17800TIP3    H274892   3.989   0.280  16.946 -0.0846  1.7618 -0.8658
17801TIP3   OH274893   1.140   1.181   2.793  0.1861  0.3279 -0.1510
17801TIP3    H174894   1.196   1.108   2.818  1.3417  1.5526  0.9062
17801TIP3    H274895   1.122   1.167   2.700  0.6236 -1.1353 -0.0258
17802TIP3   OH274896   6.480   4.744   4.644 -0.1938  1.0301 -0.6184
17802TIP3    H174897   6.385   4.747   4.633  0.0075  2.3946 -2.2239
17802TIP3    H274898   6.494   4.753   4.738 -1.7183 -1.4273 -0.1102
17803TIP3   OH274899   1.507   4.663  14.744  0.1843 -0.4342  0.4055
17803TIP3    H174900   1.583   4.644  14.689 -0.1366 -1.3407  0.2771
17803TIP3    H274901   1.526   4.620  14.827  0.5686  0.7487  0.9515
17804TIP3   OH274902   2.823   2.557  15.029 -0.1077  0.4079 -0.3495
17804TIP3    H174903   2.828   2.640  15.075 -0.7930  1.1693 -1.6112
17804TIP3    H274904   2.888   2.563  14.959 -1.7944  0.8806 -1.9501
17805TIP3   OH274905   6.335   3.595  15.309 -0.5886 -0.1334 -0.0528
17805TIP3    H174906   6.283   3.616  15.231 -1.4564 -0.8354  0.3281
17805TIP3    H274907   6.425   3.614  15.283 -0.8314 -0.6675 -1.3548
17806TIP3   OH274908   2.056   1.325   4.197  0.1096 -0.4568  0.2415
17806TIP3    H174909   2.084   1.356   4.283 -0.5670 -1.4270  0.8195
17806TIP3    H274910   1.987   1.261   4.216 -0.9358  0.2595 -1.0657
17807TIP3   OH274911   5.151   2.548  13.696 -0.6054  0.0248 -0.1155
17807TIP3    H174912   5.066   2.565  13.655 -0.0123 -0.0865 -1.4516
17807TIP3    H274913   5.195   2.489  13.634  0.3674 -0.0587  0.6516
17808TIP3   OH274914   5.862   3.309  13.854  0.0616 -0.2629 -0.3129
17808TIP3    H174915   5.881   3.352  13.771  0.7379 -1.6555 -0.8974
17808TIP3    H274916   5.946   3.274  13.883 -0.0507  0.7201  1.2643
17809TIP3   OH274917   6.366   6.665  11.149 -0.1749  0.7243 -0.4949
17809TIP3    H174918   6.352   6.745  11.199  0.4406 -0.2988  1.3564
17809TIP3    H274919   6.285   6.616  11.160  0.1613  0.2624 -0.0325
17810TIP3   OH274920   3.161   4.742   2.843 -0.5820 -0.6981 -0.6862
17810TIP3    H174921   3.124   4.730   2.755 -0.8872  0.0396 -0.6587
17810TIP3    H274922   3.220   4.668   2.854  2.5048  1.2529 -3.0870
17811TIP3   OH274923   2.643   0.812   5.990  0.5526 -0.1230 -0.4938
17811TIP3    H174924   2.641   0.721   6.019  1.1691  0.0115 -0.0085
17811TIP3    H274925   2.667   0.862   6.068  0.0544  0.4779 -0.7135
17812TIP3   OH274926   1.487   5.373  14.903 -0.0272 -0.1271 -0.3157
17812TIP3    H174927   1.554   5.308  14.881  1.0120  0.8134  0.0112
17812TIP3    H274928   1.526   5.426  14.972 -0.8145  0.9053 -0.6325
17813TIP3   OH274929   5.477   3.930  16.836  0.1004 -0.1834  0.1732
17813TIP3    H174930   5.432   4.014  16.840 -2.3604 -1.2987 -2.0375
17813TIP3    H274931   5.458   3.889  16.920 -1.5742  0.1097 -0.0424
17814TIP3   OH274932   3.954   1.979   0.079 -0.3105  0.5260  0.5092
17814TIP3    H174933   4.013   2.030   0.023  0.2646  0.0435  0.6706
17814TIP3    H274934   3.916   1.913   0.020  0.2211  0.0804  0.6544
17815TIP3   OH274935   5.493   1.345   3.421 -0.1312 -0.3831 -0.0632
17815TIP3    H174936   5.521   1.306   3.338  0.1204 -0.2467 -0.0403
17815TIP3    H274937   5.569   1.393   3.452  0.3616 -1.8730  1.1327
17816TIP3   OH274938   0.555   4.701  12.443  0.0074  0.1152 -0.4404
17816TIP3    H174939   0.528   4.623  12.395  1.8793  0.5359 -2.2638
17816TIP3    H274940   0.643   4.681  12.475  0.5869  1.4936 -1.0899
17817TIP3   OH274941   2.995   3.050   5.671 -0.0555  0.7464  0.0379
17817TIP3    H174942   2.939   3.086   5.602 -0.2823 -0.5052 -0.4285
17817TIP3    H274943   2.935   3.032   5.744 -0.4741 -1.7212 -0.8885
17818TIP3   OH274944   4.735   2.876   3.785  0.1283  0.4952  0.0752
17818TIP3    H174945   4.694   2.962   3.793 -1.1283 -0.0680 -0.3043
17818TIP3    H274946   4.746   2.863   3.691  0.0834  0.1344  0.1175
17819TIP3   OH274947   0.205   2.845   2.215 -0.1615 -0.5071  0.4717
17819TIP3    H174948   0.118   2.805   2.209 -0.8557  1.1310 -0.7993
17819TIP3    H274949   0.251   2.813   2.137 -0.2246  0.0176  0.2200
17820TIP3   OH274950   4.359   4.477  11.515  0.0576  0.2477  0.3587
17820TIP3    H174951   4.338   4.400  11.463 -1.9762  0.2864  1.1029
17820TIP3    H274952   4.316   4.463  11.599 -1.2062  2.6414  0.1680
17821TIP3   OH274953   6.334   3.621   1.708  0.5245  0.2185  0.3551
17821TIP3    H174954   6.384   3.623   1.626 -0.0940  0.7324 -0.0095
17821TIP3    H274955   6.385   3.674   1.769  0.3787  0.8227 -0.0438
17822TIP3   OH274956   6.480   6.221   1.611 -0.4762  0.9773  0.1203
17822TIP3    H174957   6.488   6.126   1.602 -1.7690  0.9686 -1.0904
17822TIP3    H274958   6.388   6.235   1.635 -0.4256  1.9629 -0.2426
17823TIP3   OH274959   5.266   4.809  12.162 -0.5575  0.1112 -0.0293
17823TIP3    H174960   5.186   4.757  12.168  0.2804 -1.0898  1.0858
17823TIP3    H274961   5.285   4.834  12.253  0.2287  0.5424 -0.3082
17824TIP3   OH274962   0.987   3.384  15.047 -0.2854 -0.6669 -0.5868
17824TIP3    H174963   0.934   3.415  15.120 -0.3050  0.8492 -1.2169
17824TIP3    H274964   0.963   3.292  15.036 -2.6168 -0.0603 -0.7397
17825TIP3   OH274965   1.269   2.434   4.649 -0.7613 -0.4237  0.0186
17825TIP3    H174966   1.293   2.502   4.585  0.5832 -0.2394  0.7109
17825TIP3    H274967   1.182   2.461   4.680 -0.1308  1.1564  0.4848
17826TIP3   OH274968   0.942   1.717   0.460 -0.4041  0.0935  0.6679
17826TIP3    H174969   0.927   1.630   0.496  0.2757  0.4622  1.8669
17826TIP3    H274970   0.992   1.763   0.528  0.5284  0.9407 -0.5595
17827TIP3   OH274971   6.058   2.274   5.235 -0.1980 -0.5711  0.7820
17827TIP3    H174972   6.066   2.363   5.272 -1.0856  0.3629 -1.2295
17827TIP3    H274973   6.008   2.226   5.300 -0.2844  0.5843  1.5872
17828TIP3   OH274974   5.170   0.330   3.948  0.1135  0.0022 -0.8652
17828TIP3    H174975   5.128   0.414   3.967 -0.9927 -0.6822 -0.2123
17828TIP3    H274976   5.249   0.353   3.899  1.3503  1.6486  1.7818
17829TIP3   OH274977   2.237   6.006  11.345 -0.2959  0.4721 -0.1200
17829TIP3    H174978   2.213   6.096  11.367 -2.0604 -0.4365  1.8538
17829TIP3    H274979   2.236   5.960  11.429  0.7295 -1.3662 -1.0836
17830TIP3   OH274980   0.896   3.274  13.732  0.3128 -0.2633  0.4184
17830TIP3    H174981   0.836   3.349  13.729  3.0992  2.0618  0.1298
17830TIP3    H274982   0.883   3.230  13.648 -0.4444  0.6580  0.0381
17831TIP3   OH274983   4.764   5.262   2.307  0.1990  0.0641  0.0932
17831TIP3    H174984   4.730   5.181   2.268  1.0354 -0.2468  0.0009
17831TIP3    H274985   4.813   5.303   2.236  0.2989  0.3476  0.3286
17832TIP3   OH274986   3.859   2.498   5.570  0.6747 -0.4893 -0.9654
17832TIP3    H174987   3.940   2.477   5.616  0.1057 -0.6287 -0.0029
17832TIP3    H274988   3.793   2.506   5.640  0.3749  2.0645 -1.4952
17833TIP3   OH274989   3.786   0.428  11.340  0.5109 -0.0171  0.2864
17833TIP3    H174990   3.825   0.392  11.420 -1.2408  1.5496  1.9049
17833TIP3    H274991   3.716   0.366  11.318  0.8817 -0.3589  0.0675
17834TIP3   OH274992   4.822   3.967   0.975  0.0853  0.5557 -0.2161
17834TIP3    H174993   4.878   4.003   0.906  0.2118 -0.0260 -0.4197
17834TIP3    H274994   4.807   3.876   0.949 -1.0464  0.7362 -0.2217
17835TIP3   OH274995   3.390   1.045   0.892 -0.1295 -0.1788 -0.5517
17835TIP3    H174996   3.324   1.090   0.839  0.4626  1.3919  0.0441
17835TIP3    H274997   3.346   0.965   0.921 -2.1255  1.3163  0.6507
17836TIP3   OH274998   6.558   4.736   4.902  0.4946 -0.3846 -0.2745
17836TIP3    H174999   6.525   4.649   4.924  0.3437 -0.0778  0.7105
17836TIP3    H275000   6.533   4.791   4.975  4.2137 -0.3720  1.1358
17837TIP3   OH275001   4.300   5.645   0.384  0.0814  0.7059  0.1028
17837TIP3    H175002   4.326   5.683   0.468 -0.5405  0.2896  0.4871
17837TIP3    H275003   4.222   5.593   0.404 -0.3176  0.9411 -0.8071
17838TIP3   OH275004   0.361   5.614   4.388  0.0054  0.0862  0.0182
17838TIP3    H175005   0.416   5.558   4.333 -0.6716 -0.4499 -0.1185
17838TIP3    H275006   0.288   5.558   4.414 -0.6560  0.8875 -0.0846
17839TIP3   OH275007   0.084   1.812  15.173  0.2759 -0.5419  0.1422
17839TIP3    H175008   0.070   1.899  15.210 -1.1197 -0.6532 -0.1063
17839TIP3    H275009   0.105   1.757  15.248 -0.5510 -0.3473  0.5239
17840TIP3   OH275010   0.356   2.809  15.470 -0.1047  0.0347 -0.2688
17840TIP3    H175011   0.291   2.842  15.408 -1.1587 -0.9509  0.2745
17840TIP3    H275012   0.357   2.874  15.541  2.0350  1.8171 -1.8942
17841TIP3   OH275013   3.579   2.688  12.046 -0.5450 -0.3422 -0.0210
17841TIP3    H175014   3.625   2.623  11.992 -0.0294  0.2116 -0.2563
17841TIP3    H275015   3.590   2.770  11.998  1.3290  0.4754  1.7576
17842TIP3   OH275016   5.609   0.721   2.371 -0.3235 -0.3690  0.0181
17842TIP3    H175017   5.632   0.681   2.454 -2.5332  0.1851  0.9297
17842TIP3    H275018   5.577   0.649   2.317 -0.5921 -0.4570  0.2910
17843TIP3   OH275019   4.318   2.298   1.091 -0.1331  0.3464  0.3377
17843TIP3    H175020   4.236   2.294   1.042  0.1946  0.6611 -0.2375
17843TIP3    H275021   4.311   2.378   1.144  0.5406  1.3348 -1.0383
17844TIP3   OH275022   3.835   5.382  13.151 -0.0699  0.5574 -0.1566
17844TIP3    H175023   3.829   5.301  13.202  0.4246  1.0200  0.6504
17844TIP3    H275024   3.745   5.411  13.141 -0.2335  0.0128 -0.2638
17845TIP3   OH275025   6.416   1.866  13.156 -0.1289 -0.1820  0.2208
17845TIP3    H175026   6.401   1.931  13.224 -0.6074  0.2037 -0.2551
17845TIP3    H275027   6.397   1.782  13.198  0.3744 -0.0095  0.7996
17846TIP3   OH275028   6.217   6.812   0.542  0.3736  0.7014  0.3184
17846TIP3    H175029   6.151   6.805   0.610  0.2491  0.0864  0.1381
17846TIP3    H275030   6.254   6.900   0.553  0.7300  0.4050  1.5118
17847TIP3   OH275031   5.781   5.666   6.405 -0.9291 -0.2452  0.6989
17847TIP3    H175032   5.813   5.593   6.458 -0.3499  0.4428  1.3072
17847TIP3    H275033   5.735   5.625   6.332  0.6504 -1.2387  0.2492
17848TIP3   OH275034   2.004   2.586  16.683  0.2311 -0.4835 -0.6219
17848TIP3    H175035   2.053   2.661  16.716 -1.4439  0.7419 -0.8184
17848TIP3    H275036   2.062   2.511  16.694  1.7093  0.7649  0.1153
17849TIP3   OH275037   4.699   0.531  15.670  0.2410 -0.1097  0.0150
17849TIP3    H175038   4.736   0.587  15.602  1.5396  0.2737  1.0074
17849TIP3    H275039   4.670   0.592  15.738 -1.6498 -0.4466 -0.4711
17850TIP3   OH275040   2.079   5.390   3.044  0.1787 -0.6554  0.1847
17850TIP3    H175041   2.157   5.446   3.049  0.0486 -0.3288 -1.0294
17850TIP3    H275042   2.009   5.445   3.079  0.4275 -0.8144  0.9351
17851TIP3   OH275043   6.084   5.646  12.590  0.1859 -0.0822  0.7107
17851TIP3    H175044   6.067   5.610  12.677 -1.0619 -0.4142  0.3322
17851TIP3    H275045   6.014   5.611  12.535  1.7533 -0.9850 -0.7446
17852TIP3   OH275046   1.127   1.203   1.686  0.7199 -0.6084 -0.1593
17852TIP3    H175047   1.166   1.116   1.681  1.5066 -0.2261 -0.8769
17852TIP3    H275048   1.056   1.194   1.748 -0.0701 -2.0934 -1.2441
17853TIP3   OH275049   1.789   2.779   2.165  0.0503  0.6255 -0.0774
17853TIP3    H175050   1.717   2.823   2.120  1.9260  2.5908 -1.2840
17853TIP3    H275051   1.847   2.850   2.192  1.1177 -0.8555  1.6133
17854TIP3   OH275052   1.661   2.115   1.546 -0.3510  0.0922 -0.7711
17854TIP3    H175053   1.722   2.131   1.618  0.1213 -0.4794 -1.0505
17854TIP3    H275054   1.658   2.198   1.499 -1.8184  0.9703  0.7666
17855TIP3   OH275055   0.034   1.785  15.492 -0.0634  0.1244 -0.3462
17855TIP3    H175056   0.121   1.764  15.526  0.6571 -1.0093 -2.7623
17855TIP3    H275057   0.024   1.879  15.506  0.7365 -0.0668  1.7059
17856TIP3   OH275058   2.844   2.937  14.852  0.4135  0.0662  0.1073
17856TIP3    H175059   2.804   2.995  14.788  0.0656 -0.0481  0.2216
17856TIP3    H275060   2.809   2.965  14.937  0.2389 -0.3106  0.1632
17857TIP3   OH275061   5.960   0.484  13.721  0.2252 -0.4832 -0.0199
17857TIP3    H175062   5.905   0.419  13.676 -0.7775  1.1453 -1.1738
17857TIP3    H275063   5.915   0.499  13.804 -1.9233  1.8971 -1.5430
17858TIP3   OH275064   6.306   3.936  11.781  0.1694  0.6692 -0.1033
17858TIP3    H175065   6.389   3.964  11.818  0.4804  1.3526 -1.2914
17858TIP3    H275066   6.285   4.004  11.716 -1.1564  0.3452 -0.0232
17859TIP3   OH275067   6.604   3.428   2.888 -0.4097  0.1789 -0.1277
17859TIP3    H175068   6.594   3.337   2.914 -0.4604  0.0796 -0.4938
17859TIP3    H275069   6.544   3.476   2.946  0.9050  0.1832  1.2446
17860TIP3   OH275070   1.810   2.277  16.657  0.0636 -0.1015 -0.1115
17860TIP3    H175071   1.865   2.274  16.578  1.3945  2.9899  0.6313
17860TIP3    H275072   1.849   2.346  16.710 -1.6970 -1.1631  2.6388
17861TIP3   OH275073   1.269   0.646   5.734 -0.0141  0.4957 -0.1408
17861TIP3    H175074   1.257   0.592   5.813  0.0689  1.3844  0.4824
17861TIP3    H275075   1.338   0.708   5.757 -0.5000  1.2409 -0.6537
17862TIP3   OH275076   2.224   2.775   5.282 -0.4980 -0.8466 -0.0581
17862TIP3    H175077   2.271   2.785   5.365 -0.5216 -1.7976  0.0760
17862TIP3    H275078   2.259   2.844   5.226 -1.7420  0.9364  1.3105
17863TIP3   OH275079   1.057   5.021   5.771 -0.2346 -0.1110  0.0592
17863TIP3    H175080   0.994   5.050   5.705  0.7515 -0.3383 -1.0174
17863TIP3    H275081   1.021   5.052   5.854 -0.6656  1.6664 -0.7472
17864TIP3   OH275082   0.016   2.578  13.974 -0.5549 -0.0042 -0.5889
17864TIP3    H175083   0.066   2.658  13.961 -0.3602  0.1686  1.1143
17864TIP3    H275084  -0.002   2.546  13.885 -0.0843  1.5689 -1.2680
17865TIP3   OH275085   4.088   4.343   5.366  0.4469  0.2408  0.3731
17865TIP3    H175086   4.029   4.357   5.441  1.6299  0.8287  1.2097
17865TIP3    H275087   4.032   4.305   5.298 -0.9442  1.0064  1.0746
17866TIP3   OH275088   1.386   5.083  15.930  0.1065 -0.0794 -0.3426
17866TIP3    H175089   1.361   5.176  15.930 -0.0847 -0.1224 -1.2876
17866TIP3    H275090   1.356   5.051  15.845  1.0046 -0.7855 -0.3976
17867TIP3   OH275091   1.083   2.564  16.778  0.7450 -0.0964  0.1810
17867TIP3    H175092   1.003   2.594  16.734 -0.4547 -0.7959  1.8257
17867TIP3    H275093   1.070   2.469  16.788  1.4651 -0.0962  1.1008
17868TIP3   OH275094   0.335   5.405  15.167 -0.2188  0.2021  0.4726
17868TIP3    H175095   0.419   5.367  15.192 -0.3677  1.0842  2.4002
17868TIP3    H275096   0.355   5.460  15.091  0.8998  0.2544  0.8014
17869TIP3   OH275097   5.474   2.096   1.447  0.3874  0.7136 -0.3465
17869TIP3    H175098   5.386   2.117   1.413 -0.1656 -0.4240  0.3573
17869TIP3    H275099   5.493   2.167   1.508 -0.3535  0.5759  0.0495
17870TIP3   OH275100   0.126   2.033  16.540 -0.2296  0.1431 -0.2127
17870TIP3    H175101   0.049   2.008  16.487  1.4405 -0.9141 -2.2463
17870TIP3    H275102   0.150   1.952  16.585 -1.3966  0.9431  1.8799
17871TIP3   OH275103   0.068   1.191   0.583 -0.4080 -0.1449 -0.1943
17871TIP3    H175104   0.019   1.271   0.563 -1.5743 -0.4125  1.4802
17871TIP3    H275105   0.134   1.217   0.647 -2.6067 -0.9843  2.5478
17872TIP3   OH275106   1.692   3.080  15.115 -0.4128 -0.2657 -0.4447
17872TIP3    H175107   1.758   3.011  15.109 -0.1227  0.0958 -1.5258
17872TIP3    H275108   1.625   3.044  15.173  0.0622 -1.1821 -0.4498
17873TIP3   OH275109   4.224   1.718   1.481  0.4100 -0.0236 -0.3638
17873TIP3    H175110   4.274   1.699   1.561 -1.1648 -0.2032  0.6034
17873TIP3    H275111   4.276   1.784   1.436  1.3737  0.0196  0.7690
17874TIP3   OH275112   1.596   3.739   4.148 -0.2219  0.3973 -0.3589
17874TIP3    H175113   1.633   3.729   4.061  1.1966 -2.2557  0.4981
17874TIP3    H275114   1.672   3.735   4.207 -1.3788 -0.1619  1.1347
17875TIP3   OH275115   0.557   3.630   5.404  0.2599  0.6360  0.0256
17875TIP3    H175116   0.498   3.659   5.334  0.1201 -0.7518 -0.4527
17875TIP3    H275117   0.538   3.537   5.414  1.5847  0.4139  0.6399
17876TIP3   OH275118   2.768   4.414   0.043 -0.2445  0.1614 -0.0425
17876TIP3    H175119   2.770   4.319   0.026  2.1414  0.2920 -0.6906
17876TIP3    H275120   2.815   4.452  -0.032 -3.1290  2.0612 -0.9479
17877TIP3   OH275121   0.741   6.361   3.948 -0.4002  0.0838  0.2599
17877TIP3    H175122   0.653   6.325   3.950 -0.1195 -0.5971  0.3903
17877TIP3    H275123   0.733   6.447   3.988 -1.1751  0.3893 -0.5472
17878TIP3   OH275124   4.273   5.376  17.082  0.3409 -0.2709  0.3803
17878TIP3    H175125   4.298   5.325  17.159 -1.1520 -1.7720 -0.1112
17878TIP3    H275126   4.205   5.324  17.039 -1.0816  2.0565 -0.2437
17879TIP3   OH275127   6.227   4.401  14.390 -0.3340  0.2685  0.6769
17879TIP3    H175128   6.211   4.428  14.480 -0.2276  4.5190 -0.5003
17879TIP3    H275129   6.315   4.434  14.370 -0.7728  0.2777 -1.3322
17880TIP3   OH275130   1.194   1.474  14.491  0.3114 -0.0590 -0.5806
17880TIP3    H175131   1.218   1.400  14.547  1.0180  0.3980 -0.2614
17880TIP3    H275132   1.113   1.508  14.530 -0.1407 -0.8002 -0.8650
17881TIP3   OH275133   0.628   4.862  13.576 -0.4761 -0.3370  0.6631
17881TIP3    H175134   0.552   4.803  13.577 -1.0615  0.4177  1.2112
17881TIP3    H275135   0.651   4.870  13.483 -2.0047  0.6184  0.3544
17882TIP3   OH275136   3.283   4.510   5.481  0.2653  0.1706  0.2011
17882TIP3    H175137   3.374   4.481   5.477  0.0241 -0.5347 -0.2801
17882TIP3    H275138   3.253   4.508   5.390 -0.1553  0.6556  0.3236
17883TIP3   OH275139   0.426   5.668  17.102  0.1471 -0.1296  0.3981
17883TIP3    H175140   0.420   5.760  17.130 -1.1534  0.0714 -0.5092
17883TIP3    H275141   0.451   5.621  17.181  1.2259  1.0562  0.7849
17884TIP3   OH275142   2.290   3.936   2.619 -0.0960 -0.1130  0.1431
17884TIP3    H175143   2.249   4.022   2.626 -1.2496 -0.5526 -0.9316
17884TIP3    H275144   2.219   3.874   2.634  0.4177 -0.8793 -0.5607
17885TIP3   OH275145   0.862   6.133   3.551  0.3885  0.0940 -0.1393
17885TIP3    H175146   0.916   6.091   3.618  0.4499  0.4943  0.0599
17885TIP3    H275147   0.879   6.227   3.561  0.2926  0.1653 -0.6219
17886TIP3   OH275148   3.799   2.935  12.534  0.4604  0.0993 -0.5874
17886TIP3    H175149   3.704   2.935  12.523  0.2051 -0.2524  1.4704
17886TIP3    H275150   3.825   2.846  12.511  0.6496  0.9196 -3.7573
17887TIP3   OH275151   3.979   5.016   0.441 -0.4918  0.4476  0.2214
17887TIP3    H175152   3.898   5.067   0.448 -0.1316  1.1206 -0.4314
17887TIP3    H275153   4.043   5.065   0.491  0.0539  1.0657 -1.0549
17888TIP3   OH275154   3.630   3.764   4.372  0.1103 -0.6220  0.1698
17888TIP3    H175155   3.697   3.699   4.393 -1.2424 -1.8988  0.5456
17888TIP3    H275156   3.576   3.770   4.451  0.8028  1.7130  0.5280
17889TIP3   OH275157   4.007   2.544  15.753  0.0990 -0.2846 -0.6151
17889TIP3    H175158   3.932   2.484  15.758  0.6259 -0.9994 -1.1277
17889TIP3    H275159   4.060   2.510  15.681  1.1384 -0.0364  0.0241
17890TIP3   OH275160   0.394   2.367  14.433  0.2367 -0.2921  0.2111
17890TIP3    H175161   0.436   2.413  14.360  0.0749 -1.1241 -0.4127
17890TIP3    H275162   0.334   2.305  14.391 -1.9289  1.1622  1.1030
17891TIP3   OH275163   0.267   4.019  12.249 -0.4145  0.5830  0.4546
17891TIP3    H175164   0.351   4.058  12.224  0.1746 -1.0963 -0.3010
17891TIP3    H275165   0.234   4.075  12.319  1.7048  0.8204  1.3001
17892TIP3   OH275166   1.615   2.653   5.817  0.0119  0.5626  0.1016
17892TIP3    H175167   1.661   2.644   5.733 -0.1116  2.6227 -0.2069
17892TIP3    H275168   1.676   2.703   5.872 -1.6094  2.9063 -0.1574
17893TIP3   OH275169   6.426   2.147   1.374  0.2592 -0.3260 -0.6908
17893TIP3    H175170   6.447   2.200   1.451 -0.3969  0.6256 -1.1594
17893TIP3    H275171   6.511   2.121   1.339  0.5788  0.3433 -0.4110
17894TIP3   OH275172   4.566   4.794   4.981  0.7757 -0.1103 -0.2756
17894TIP3    H175173   4.616   4.735   4.924  2.4733  0.2830  0.7762
17894TIP3    H275174   4.484   4.747   4.998  1.7873 -1.8436 -0.0685
17895TIP3   OH275175   1.914   0.523  12.487  0.0203 -0.1078  0.3474
17895TIP3    H175176   1.833   0.573  12.481  0.1058 -0.1121 -0.9439
17895TIP3    H275177   1.917   0.472  12.406 -0.0148 -2.1175  1.5875
17896TIP3   OH275178   2.067   5.812   5.338  0.5171 -0.4728 -0.0902
17896TIP3    H175179   2.150   5.854   5.317  0.3309  0.3498  0.7713
17896TIP3    H275180   2.091   5.725   5.368  0.8540 -1.3147 -2.6777
17897TIP3   OH275181   1.450   6.370   6.158 -0.2167 -1.0699 -0.3036
17897TIP3    H175182   1.392   6.407   6.224 -0.8578 -2.1205 -0.2570
17897TIP3    H275183   1.482   6.445   6.108 -0.7081 -0.3820  0.4070
17898TIP3   OH275184   4.342   5.459   4.696 -0.0418 -0.0060  0.0574
17898TIP3    H175185   4.426   5.479   4.738  0.7686  0.1042 -1.5795
17898TIP3    H275186   4.351   5.495   4.607 -0.3683 -3.3916 -1.4007
17899TIP3   OH275187   0.580   6.164   5.832  0.5187 -0.0440 -0.0314
17899TIP3    H175188   0.557   6.144   5.923 -0.5025  0.6324 -0.1338
17899TIP3    H275189   0.606   6.256   5.834 -1.1519  0.4486 -0.7252
17900TIP3   OH275190   3.457   4.218  14.679  0.0056  0.5874 -0.0115
17900TIP3    H175191   3.409   4.206  14.761  1.1959 -1.1853  0.4591
17900TIP3    H275192   3.481   4.311  14.679 -0.7253  0.7943  1.2444
17901TIP3   OH275193   6.362   2.376   2.284  0.8339  0.8405  0.0787
17901TIP3    H175194   6.412   2.457   2.292  2.0388  0.1183 -0.0696
17901TIP3    H275195   6.397   2.319   2.353  2.6288 -0.9261 -2.2267
17902TIP3   OH275196   2.896   3.703   4.411 -0.3885 -0.2260  0.4577
17902TIP3    H175197   2.807   3.686   4.442 -1.4888  2.8022 -0.9410
17902TIP3    H275198   2.885   3.761   4.336  2.6267 -2.2145 -1.6104
17903TIP3   OH275199   1.628   2.363   1.935  0.8294 -0.7187 -0.5490
17903TIP3    H175200   1.570   2.422   1.983  0.6065 -0.1094 -1.5368
17903TIP3    H275201   1.570   2.308   1.883  1.0741 -1.2351 -0.2874
17904TIP3   OH275202   0.144   2.894  13.056 -0.1710 -0.1954 -0.3005
17904TIP3    H175203   0.198   2.951  13.001  0.1516 -0.2755 -0.0695
17904TIP3    H275204   0.065   2.880  13.005 -0.0800  0.1271 -0.5373
17905TIP3   OH275205   4.376   4.995  17.067  0.8518  0.0330 -0.4683
17905TIP3    H175206   4.457   5.029  17.029  1.5755 -0.7868  0.2971
17905TIP3    H275207   4.375   4.903  17.042  0.8379 -0.2784  0.6556
17906TIP3   OH275208   6.322   2.034   3.636 -0.1216  0.6820  0.0245
17906TIP3    H175209   6.389   2.098   3.658 -0.4201  1.5209 -1.4482
17906TIP3    H275210   6.370   1.958   3.603  0.1587  0.8361  0.0823
17907TIP3   OH275211   4.975   0.164   1.685 -0.0463  0.2762 -0.5636
17907TIP3    H175212   5.070   0.151   1.684  0.1598  1.6500  0.0058
17907TIP3    H275213   4.941   0.094   1.740  0.7012  0.1912 -0.2085
17908TIP3   OH275214   1.643   4.498   0.985  0.7452 -0.2610  0.2466
17908TIP3    H175215   1.684   4.480   0.901 -0.2424  0.7234 -0.4415
17908TIP3    H275216   1.717   4.499   1.047  1.5915  0.0233 -0.7475
17909TIP3   OH275217   1.209   2.616  13.932 -0.4640  0.2622  0.3499
17909TIP3    H175218   1.288   2.575  13.899 -1.4323 -0.3397 -1.2359
17909TIP3    H275219   1.227   2.710  13.927  0.4576  0.1165  0.7975
17910TIP3   OH275220   2.827   6.813  16.033  0.1767 -0.3981 -0.0283
17910TIP3    H175221   2.786   6.736  16.073 -0.9121  0.4387  0.5175
17910TIP3    H275222   2.915   6.785  16.008 -0.5099 -2.0582 -0.6232
17911TIP3   OH275223   3.158   5.544   6.440 -0.5487 -0.5196  0.9623
17911TIP3    H175224   3.225   5.574   6.501  0.7594 -1.6959  0.1285
17911TIP3    H275225   3.097   5.618   6.433  1.0746  0.8595  1.1086
17912TIP3   OH275226   3.049   2.468  12.625  0.6496 -0.6264 -1.3479
17912TIP3    H175227   2.983   2.490  12.690  3.1704 -0.9758  1.4586
17912TIP3    H275228   3.023   2.516  12.547 -1.1727  1.7602  0.6472
17913TIP3   OH275229   1.210   4.234   3.920  0.2681  0.4852 -0.0733
17913TIP3    H175230   1.288   4.220   3.974 -1.0850  0.0389  1.8324
17913TIP3    H275231   1.169   4.313   3.957  0.2199  1.1754 -1.5616
17914TIP3   OH275232   6.109   3.112   0.922 -0.0785  0.2748 -0.1426
17914TIP3    H175233   6.093   3.203   0.948  0.1659  0.4731 -0.6853
17914TIP3    H275234   6.045   3.061   0.972  1.4622  0.4688  2.1231
17915TIP3   OH275235   6.386   5.360   2.727  0.4784 -0.6928 -0.2571
17915TIP3    H175236   6.420   5.351   2.816  2.0984  0.0035 -0.7956
17915TIP3    H275237   6.386   5.271   2.691  0.8446 -0.8238  0.0711
17916TIP3   OH275238   0.272   1.322   1.981 -0.7401 -0.1235 -0.0905
17916TIP3    H175239   0.316   1.398   1.942 -0.5638 -0.1935 -0.0280
17916TIP3    H275240   0.196   1.308   1.925 -1.9351  1.3827  1.1059
17917TIP3   OH275241   3.138   4.514   4.280  0.1996  0.5266  0.1457
17917TIP3    H175242   3.122   4.520   4.374 -0.6131  0.8493 -0.0043
17917TIP3    H275243   3.219   4.463   4.272  1.3577  2.1972  1.0734
17918TIP3   OH275244   0.043   6.236  14.063 -0.2234 -0.2307  0.0596
17918TIP3    H175245  -0.005   6.312  14.029 -2.4633 -2.1215 -1.1847
17918TIP3    H275246   0.107   6.216  13.995  0.1729  0.3312  0.2573
17919TIP3   OH275247   4.067   5.903  13.308  0.1379 -0.0380 -0.2610
17919TIP3    H175248   4.093   5.893  13.400 -0.4963  0.0362 -0.0742
17919TIP3    H275249   3.972   5.915  13.310  0.4510  3.0758 -0.6576
17920TIP3   OH275250   6.489   2.727  11.953  0.0493  0.0062  0.2012
17920TIP3    H175251   6.448   2.640  11.958  2.0953 -1.0442 -0.6789
17920TIP3    H275252   6.431   2.784  12.003 -1.1757 -1.9356  1.0463
17921TIP3   OH275253   0.780   5.131  15.844 -0.0136  0.1773  0.2624
17921TIP3    H175254   0.841   5.205  15.843 -0.8799  0.9305 -2.0608
17921TIP3    H275255   0.785   5.094  15.756 -1.2569 -1.1241  0.7114
17922TIP3   OH275256   3.387   1.316   3.120 -0.2957  0.6561  0.1488
17922TIP3    H175257   3.378   1.393   3.175  1.0229  2.0870 -1.5859
17922TIP3    H275258   3.378   1.348   3.030 -0.6751 -1.3527 -0.5761
17923TIP3   OH275259   6.164   2.636   0.931  0.1143  0.3346  0.0424
17923TIP3    H175260   6.104   2.654   0.859 -1.6509  1.8957  1.8215
17923TIP3    H275261   6.244   2.685   0.909  0.3969 -0.9396 -1.8576
17924TIP3   OH275262   3.345   5.110   2.755 -0.3499 -0.1360  0.4859
17924TIP3    H175263   3.362   5.159   2.836  1.7212 -0.6390  0.3763
17924TIP3    H275264   3.383   5.164   2.686  1.2127 -1.4974  0.2676
17925TIP3   OH275265   4.106   0.422  12.451 -0.4923 -0.1842  0.3951
17925TIP3    H175266   4.139   0.505  12.484  0.1713 -0.8580  1.4778
17925TIP3    H275267   4.011   0.433  12.446 -0.5655  0.1000  2.1058
17926TIP3   OH275268   3.061   2.106   2.695  0.2051  0.4273 -0.0089
17926TIP3    H175269   3.085   2.172   2.760  0.8078  0.4564 -0.2599
17926TIP3    H275270   2.991   2.147   2.644  0.8500  1.0308 -0.4213
17927TIP3   OH275271   2.096   3.033  12.835  0.3618  0.9058  0.3315
17927TIP3    H175272   2.114   2.941  12.851 -0.3943  0.7603  0.3667
17927TIP3    H275273   2.146   3.054  12.756 -1.0555 -0.0588 -0.8381
17928TIP3   OH275274   0.572   3.544   3.301 -0.2532 -0.0346 -0.4916
17928TIP3    H175275   0.614   3.626   3.274 -0.2462  0.3714  0.7025
17928TIP3    H275276   0.583   3.542   3.397  0.3846 -1.7857 -0.5856
17929TIP3   OH275277   4.851   1.405  13.335  0.5684  0.2482  0.1081
17929TIP3    H175278   4.840   1.314  13.307  3.2925  0.0970 -0.5454
17929TIP3    H275279   4.883   1.399  13.425 -0.4479  0.6067  0.5055
17930TIP3   OH275280   2.612   1.670   1.455 -0.0459 -0.1696 -0.2447
17930TIP3    H175281   2.581   1.710   1.536  2.1476 -0.2364  0.6668
17930TIP3    H275282   2.551   1.597   1.440 -1.4580  0.8471  0.4274
17931TIP3   OH275283   3.771   1.823   1.664 -0.3184  0.2330  0.1258
17931TIP3    H175284   3.802   1.911   1.645  1.0010  0.1089  1.5574
17931TIP3    H275285   3.835   1.765   1.623  0.5169 -0.0263  1.7379
17932TIP3   OH275286   0.318   6.167  14.545 -0.9865  0.3340 -0.3781
17932TIP3    H175287   0.397   6.144  14.495 -0.7117  1.3241 -0.4071
17932TIP3    H275288   0.298   6.257  14.518 -2.7082 -0.2422 -1.1251
17933TIP3   OH275289   3.374   4.627   0.140  0.2241 -0.2308 -0.3399
17933TIP3    H175290   3.301   4.629   0.201  0.6993  3.8275  0.2402
17933TIP3    H275291   3.451   4.613   0.196  0.3206  0.0313 -0.4063
17934TIP3   OH275292   0.009   1.204  14.588  0.6574 -0.3488 -0.4536
17934TIP3    H175293   0.041   1.154  14.664 -0.2779 -1.5642 -0.8495
17934TIP3    H275294   0.088   1.224  14.538  1.0413 -1.6337 -0.3925
17935TIP3   OH275295   4.762   1.620   6.159 -0.0736  0.2348 -0.2016
17935TIP3    H175296   4.722   1.625   6.246 -1.0878  2.2097 -0.7811
17935TIP3    H275297   4.851   1.589   6.177 -1.2890 -2.6797  1.2239
17936TIP3   OH275298   2.904   3.971  15.847 -0.0589 -0.5560  0.1524
17936TIP3    H175299   2.821   4.012  15.821  0.2289 -0.5910 -0.8544
17936TIP3    H275300   2.880   3.882  15.873 -0.6600  0.1543  2.1469
17937TIP3   OH275301   4.288   4.415  11.774 -0.1415 -0.3502 -0.1745
17937TIP3    H175302   4.337   4.335  11.790  0.9203  0.3090 -0.1033
17937TIP3    H275303   4.289   4.462  11.857 -0.2545  0.0107 -0.3726
17938TIP3   OH275304   3.284   1.720   5.085  0.2199 -0.1290  0.4167
17938TIP3    H175305   3.313   1.681   5.167 -0.7417 -2.1412 -0.1693
17938TIP3    H275306   3.271   1.813   5.105  0.6136 -0.4921  2.3671
17939TIP3   OH275307   6.668   3.908   0.230  0.1608  0.2318 -0.4851
17939TIP3    H175308   6.581   3.947   0.221  0.1740  0.8676  1.9161
17939TIP3    H275309   6.668   3.835   0.168 -2.3027 -0.1800 -0.0387
17940TIP3   OH275310   3.453   6.041  13.250 -0.6256  0.4373 -0.0667
17940TIP3    H175311   3.427   6.132  13.237 -0.9159  0.0435 -2.5205
17940TIP3    H275312   3.546   6.045  13.272 -0.6342  1.3284 -0.1984
17941TIP3   OH275313   4.714   1.625   1.269  0.1068  0.2117 -0.6184
17941TIP3    H175314   4.782   1.649   1.333  0.1430  0.7338 -0.8434
17941TIP3    H275315   4.727   1.687   1.197 -1.2015  0.9200 -0.2585
17942TIP3   OH275316   4.278   0.686  11.581 -0.0954 -0.2965  0.3580
17942TIP3    H175317   4.237   0.685  11.667 -1.3046 -1.2948 -0.2166
17942TIP3    H275318   4.218   0.737  11.526  1.0107  0.9262  0.2580
17943TIP3   OH275319   4.311   4.704   5.566  0.0932  0.2967 -0.0532
17943TIP3    H175320   4.366   4.653   5.625 -0.5934 -0.0265  0.3155
17943TIP3    H275321   4.253   4.753   5.625 -1.2031 -0.7148 -0.4751
17944TIP3   OH275322   0.773   3.850  12.968 -0.2865  0.3291  0.0252
17944TIP3    H175323   0.783   3.789  13.041 -1.1534  1.9356  1.5322
17944TIP3    H275324   0.858   3.893  12.961 -0.2900  0.3822  0.2998
17945TIP3   OH275325   5.411   2.103   4.455 -0.6006 -0.2958 -0.2499
17945TIP3    H175326   5.445   2.075   4.540  0.9547 -0.8181 -1.0223
17945TIP3    H275327   5.347   2.036   4.432 -4.2668  2.0886  2.4457
17946TIP3   OH275328   2.388   2.094   1.295 -0.2384 -0.0628  0.1675
17946TIP3    H175329   2.472   2.061   1.262  1.3528  3.4506  0.5497
17946TIP3    H275330   2.345   2.132   1.218 -0.4949  0.1359  0.4065
17947TIP3   OH275331   4.108   3.427  15.947 -0.0157 -0.1331 -0.2385
17947TIP3    H175332   4.154   3.397  15.868  4.5271 -0.2769  2.2994
17947TIP3    H275333   4.055   3.501  15.917  3.3272  1.2758 -3.0640
17948TIP3   OH275334   5.409   6.481  11.830 -0.0121 -0.4732  0.7425
17948TIP3    H175335   5.317   6.499  11.848 -0.1558 -1.5660  1.1408
17948TIP3    H275336   5.429   6.403  11.882  2.0039  1.5700  3.1560
17949TIP3   OH275337   5.258   4.763  13.448  0.1380 -0.1601 -0.0299
17949TIP3    H175338   5.202   4.781  13.373  1.9283  0.2308 -1.3197
17949TIP3    H275339   5.254   4.668  13.459 -0.8473 -0.1230 -0.0246
17950TIP3   OH275340   2.101   3.566   1.230 -0.3040 -0.4049 -0.1081
17950TIP3    H175341   2.126   3.510   1.303 -1.7518 -1.4018 -0.3509
17950TIP3    H275342   2.060   3.506   1.167 -1.9508  0.9228 -0.3346
17951TIP3   OH275343   2.011   1.974  12.392 -0.2807  0.2359  0.3593
17951TIP3    H175344   2.094   1.993  12.349 -0.4993 -3.3438 -1.8362
17951TIP3    H275345   2.023   1.889  12.434 -2.3020  0.4664  1.5245
17952TIP3   OH275346   3.398   6.203   1.455  0.7094 -0.3526  0.3562
17952TIP3    H175347   3.384   6.238   1.543 -0.3271 -0.3650  0.1975
17952TIP3    H275348   3.493   6.192   1.449  0.9682  1.4206  0.7922
17953TIP3   OH275349   3.037   0.052  11.903 -0.3593 -0.0752  0.1199
17953TIP3    H175350   3.127   0.024  11.921 -0.8285 -1.3032  0.6293
17953TIP3    H275351   3.044   0.147  11.889  0.5932  0.3652  3.1915
17954TIP3   OH275352   3.878   6.747  16.147 -0.1247  0.6364  0.6477
17954TIP3    H175353   3.834   6.770  16.065 -0.5475  0.7274  0.8956
17954TIP3    H275354   3.839   6.805  16.212  1.5637  1.9086  0.5727
17955TIP3   OH275355   1.867   4.603  16.376 -0.6600  0.0409  0.1386
17955TIP3    H175356   1.841   4.652  16.298 -2.5906  0.6980  1.1369
17955TIP3    H275357   1.914   4.667  16.430  1.6860 -0.7151 -0.9486
17956TIP3   OH275358   2.906   2.105  16.661 -0.5974 -0.4746 -0.1012
17956TIP3    H175359   2.918   2.048  16.585  0.3234 -0.6864  0.1948
17956TIP3    H275360   2.840   2.061  16.714  1.0193 -1.9267  0.7506
17957TIP3   OH275361   2.758   1.261  14.688 -0.3705  0.3585  0.1737
17957TIP3    H175362   2.683   1.206  14.710  1.3868 -1.5926  1.5664
17957TIP3    H275363   2.777   1.308  14.769  0.3273  0.2870  0.0563
17958TIP3   OH275364   4.046   4.418   1.653 -0.6227  0.2080 -0.2808
17958TIP3    H175365   3.959   4.409   1.614 -0.6969 -1.3259  0.1800
17958TIP3    H275366   4.102   4.363   1.599 -0.2608 -0.0393  0.3369
17959TIP3   OH275367   2.949   5.899  15.140  0.0701 -0.6438  0.3849
17959TIP3    H175368   3.033   5.865  15.171 -0.9254 -1.8172  1.9004
17959TIP3    H275369   2.947   5.990  15.171  0.1793 -1.0386  1.5582
17960TIP3   OH275370   1.532   1.691  11.254  0.2919 -0.6608  0.2435
17960TIP3    H175371   1.510   1.784  11.261 -0.1166 -0.9869  3.9047
17960TIP3    H275372   1.513   1.669  11.162 -3.8675  1.7605  0.3980
17961TIP3   OH275373   4.660   0.521  16.108 -0.1256 -0.5093  0.5145
17961TIP3    H175374   4.623   0.591  16.053  2.4624 -0.7628 -1.6495
17961TIP3    H275375   4.601   0.447  16.093 -1.2923  0.3698  0.6199
17962TIP3   OH275376   1.431   1.408   1.686 -0.2425  0.9885 -0.3704
17962TIP3    H175377   1.458   1.319   1.666  1.2144  1.6671 -1.5552
17962TIP3    H275378   1.474   1.428   1.769 -1.3921  0.2543  0.4154
17963TIP3   OH275379   4.066   2.328  11.375  0.1761 -0.2980 -0.3388
17963TIP3    H175380   4.060   2.270  11.452  0.3613 -0.0704 -0.1529
17963TIP3    H275381   4.138   2.292  11.324  1.6783  1.0175  0.8259
17964TIP3   OH275382   0.929   5.068  12.265 -0.4701 -0.3902 -0.0892
17964TIP3    H175383   0.931   5.132  12.336 -2.2068  0.0198 -0.3829
17964TIP3    H275384   0.936   4.983  12.308 -0.3649 -0.0954  0.4777
17965TIP3   OH275385   0.599   1.379  10.564  0.3040  0.2430  0.1617
17965TIP3    H175386   0.634   1.439  10.498  0.7205  0.6326  0.7360
17965TIP3    H275387   0.623   1.292  10.532  1.1328  0.4678  0.1646
17966TIP3   OH275388   5.920   2.339  16.130 -0.1282 -0.5074 -0.3504
17966TIP3    H175389   5.966   2.335  16.213  1.3438  2.1697 -0.9951
17966TIP3    H275390   5.892   2.430  16.122 -0.8582 -0.8871 -2.4719
17967TIP3   OH275391   4.481   5.555   5.007 -0.7430  0.0502 -0.1784
17967TIP3    H175392   4.549   5.524   4.947  0.1491 -1.3786  1.5053
17967TIP3    H275393   4.510   5.642   5.033  0.1810 -0.3410  0.1181
17968TIP3   OH275394   4.113   2.243  16.352  0.2346  0.1944 -1.3466
17968TIP3    H175395   4.162   2.173  16.309  0.3617  1.0704 -2.6565
17968TIP3    H275396   4.120   2.318  16.293 -0.2319  1.2084 -0.1574
17969TIP3   OH275397   6.063   2.005  12.495  0.0013  0.7213 -0.0878
17969TIP3    H175398   6.048   1.946  12.421 -0.7684 -1.3828  1.7180
17969TIP3    H275399   6.123   2.071  12.460 -0.5681 -0.0572 -2.6755
17970TIP3   OH275400   4.884   0.899  13.320  0.4126 -0.3004 -0.0170
17970TIP3    H175401   4.797   0.860  13.317  0.8884 -1.3376 -0.3448
17970TIP3    H275402   4.943   0.826  13.337  1.1556  0.5077  0.9489
17971TIP3   OH275403   5.882   2.338  15.533 -0.4313 -0.8608 -0.3139
17971TIP3    H175404   5.890   2.416  15.478 -0.7960  0.1130  1.0014
17971TIP3    H275405   5.794   2.303  15.514 -0.8570 -0.0869  0.2084
17972TIP3   OH275406   4.862   1.205   1.146 -0.4598  0.9072  0.1838
17972TIP3    H175407   4.806   1.133   1.118  0.2159  0.5139 -0.1725
17972TIP3    H275408   4.951   1.176   1.125 -0.0985  1.4062  0.9984
17973TIP3   OH275409   0.052   3.090   6.769  0.1756  0.7166  0.3222
17973TIP3    H175410  -0.021   3.028   6.767 -0.2024  1.1015  1.7499
17973TIP3    H275411   0.037   3.147   6.694  0.0224 -0.3302 -0.4647
17974TIP3   OH275412   4.147   4.028   1.067 -0.2015 -0.2004 -0.0503
17974TIP3    H175413   4.137   4.031   0.972 -1.2496  0.4755  0.0723
17974TIP3    H275414   4.196   4.108   1.089  0.7279 -0.7495 -0.0934
17975TIP3   OH275415   0.734   3.840   2.427 -0.0070  0.6471 -0.2023
17975TIP3    H175416   0.733   3.759   2.377 -0.6358  1.7248 -1.9945
17975TIP3    H275417   0.826   3.868   2.426  0.2266 -0.0670  0.5043
17976TIP3   OH275418   4.388   6.436  14.188  0.5475  0.4103 -0.6434
17976TIP3    H175419   4.379   6.529  14.206 -2.0508 -0.0093  0.4833
17976TIP3    H275420   4.313   6.415  14.132  0.4800 -1.2052  0.0159
17977TIP3   OH275421   5.343   5.172   6.126  0.6557  0.6951 -0.3265
17977TIP3    H175422   5.342   5.199   6.034  0.2781  0.7160 -0.3176
17977TIP3    H275423   5.331   5.253   6.175  0.4593  0.6337 -0.2718
17978TIP3   OH275424   5.280   1.062   1.410  0.8523  0.2645  0.7346
17978TIP3    H175425   5.337   1.004   1.360  0.5321  1.0024 -0.5075
17978TIP3    H275426   5.320   1.067   1.496  1.9070 -0.3108  0.2853
17979TIP3   OH275427   5.566   1.969   3.418 -1.3716 -0.4935 -0.4310
17979TIP3    H175428   5.661   1.979   3.428 -1.2377 -0.3596 -1.7309
17979TIP3    H275429   5.557   1.889   3.367 -2.0286 -1.2948  0.9104
17980TIP3   OH275430   1.670   0.545   3.643  0.5573 -0.2496  0.1055
17980TIP3    H175431   1.691   0.607   3.713  0.1828  1.5500 -1.3313
17980TIP3    H275432   1.753   0.531   3.598  0.3882  0.2007 -0.3470
17981TIP3   OH275433   1.499   0.766   0.272 -0.1686  0.9872  0.4203
17981TIP3    H175434   1.467   0.813   0.196 -1.1321  1.9340  1.4060
17981TIP3    H275435   1.447   0.686   0.275 -0.2648  1.0421  0.2060
17982TIP3   OH275436   1.360   5.634   4.471  0.6190 -0.0838 -0.1570
17982TIP3    H175437   1.270   5.639   4.504  0.5652 -0.1017 -0.3014
17982TIP3    H275438   1.403   5.711   4.508  0.4131  0.1906 -0.4807
17983TIP3   OH275439   6.573   0.460   0.353  0.2399 -0.0471 -0.2961
17983TIP3    H175440   6.528   0.425   0.430 -0.5333  1.0940 -0.2050
17983TIP3    H275441   6.601   0.383   0.304  0.0300 -0.7827  0.7190
17984TIP3   OH275442   5.180   4.391   3.949 -0.0603  0.0523 -0.1164
17984TIP3    H175443   5.251   4.362   3.892 -1.0385  0.9572 -1.8447
17984TIP3    H275444   5.200   4.482   3.968 -1.1330  0.5553 -1.2674
17985TIP3   OH275445   1.584   0.220  16.043  0.1302  0.0693  0.1337
17985TIP3    H175446   1.620   0.228  15.955 -0.0640 -2.4355 -0.2122
17985TIP3    H275447   1.661   0.217  16.101  0.3151 -0.2661 -0.1322
17986TIP3   OH275448   0.363   2.376  13.904  0.0571 -0.2470 -0.6699
17986TIP3    H175449   0.354   2.312  13.833 -0.9126  0.0046 -0.7903
17986TIP3    H275450   0.297   2.443  13.884 -0.9602 -0.7046  1.0274
17987TIP3   OH275451   6.114   5.621   5.906  0.2304 -0.1680  0.5547
17987TIP3    H175452   6.172   5.636   5.981 -0.5772 -1.2515  1.4182
17987TIP3    H275453   6.064   5.543   5.930  0.5098 -0.9878 -1.4703
17988TIP3   OH275454   4.034   3.623  13.977  0.4644 -0.1376  0.2618
17988TIP3    H175455   4.009   3.547  14.029  1.8460  0.7665  2.3130
17988TIP3    H275456   4.124   3.604  13.949  0.2290  0.0184 -0.6258
17989TIP3   OH275457   0.873   0.700   2.254  0.4827 -0.0757 -0.1973
17989TIP3    H175458   0.816   0.659   2.319 -0.0965  1.8452  0.5457
17989TIP3    H275459   0.872   0.640   2.179 -0.6842 -1.1698  0.6855
17990TIP3   OH275460   0.469   1.184   0.244  0.5663 -0.1934 -0.4148
17990TIP3    H175461   0.497   1.232   0.165 -2.4823  0.5739 -1.0979
17990TIP3    H275462   0.403   1.123   0.213  0.3591 -0.9003  1.3603
17991TIP3   OH275463   6.313   5.162   5.571 -0.7074  0.9416 -0.1222
17991TIP3    H175464   6.381   5.222   5.540  1.2115 -0.7014  0.7232
17991TIP3    H275465   6.287   5.196   5.656 -0.3225  1.1155 -0.0740
17992TIP3   OH275466   5.520   2.059   3.858 -0.2600  0.0171  0.5214
17992TIP3    H175467   5.508   1.981   3.913 -0.5161  1.2281  2.2176
17992TIP3    H275468   5.604   2.095   3.884  0.4781 -0.3986 -1.1975
17993TIP3   OH275469   6.665   6.599  15.105 -0.5251  0.4236  0.0556
17993TIP3    H175470   6.704   6.603  15.193 -0.4667  0.7402  0.0148
17993TIP3    H275471   6.620   6.515  15.103  1.5012 -0.6821 -0.4568
17994TIP3   OH275472   4.636   1.930  15.819  0.6977 -0.3352  0.2442
17994TIP3    H175473   4.722   1.950  15.783 -0.1037  1.0165 -0.9718
17994TIP3    H275474   4.601   1.862  15.761  1.3348 -1.6154  1.3335
17995TIP3   OH275475   4.247   3.587   0.280 -0.0967 -0.4429 -0.3767
17995TIP3    H175476   4.193   3.562   0.356  2.0666 -2.1070  0.6697
17995TIP3    H275477   4.276   3.504   0.243  0.1121  0.4003 -2.1231
17996TIP3   OH275478   3.909   3.541   3.393 -0.0027 -0.6328 -0.7032
17996TIP3    H175479   3.921   3.535   3.299  0.4244 -1.2181 -0.6164
17996TIP3    H275480   3.951   3.462   3.428  0.2827 -0.1736  0.0138
17997TIP3   OH275481   5.583   0.676  13.572  0.4517 -0.2172  0.6785
17997TIP3    H175482   5.593   0.592  13.528  0.2683  0.4255 -0.6123
17997TIP3    H275483   5.584   0.741  13.501  2.4090  1.0197  1.7970
17998TIP3   OH275484   3.879   1.927   1.008 -0.3387 -0.4712 -0.2035
17998TIP3    H175485   3.804   1.983   1.024 -0.2857  0.8563 -4.0125
17998TIP3    H275486   3.948   1.961   1.064 -1.9698 -0.4338  1.8121
17999TIP3   OH275487   0.863   1.997  17.118  0.1989  0.2212 -0.0036
17999TIP3    H175488   0.936   2.035  17.070  1.9128 -2.2403  0.5207
17999TIP3    H275489   0.879   2.021  17.209  0.2961 -0.2291  0.0990
18000TIP3   OH275490   1.311   5.865  16.753  0.6844  0.4386 -0.1376
18000TIP3    H175491   1.381   5.803  16.773 -0.1764 -0.1036  1.1940
18000TIP3    H275492   1.240   5.811  16.719  0.6615  0.9205 -0.8734
18001TIP3   OH275493   3.893   3.151  13.347 -0.2122  0.3003 -0.3595
18001TIP3    H175494   3.988   3.156  13.345 -0.2225  0.1758 -1.3658
18001TIP3    H275495   3.863   3.236  13.315 -0.4524  0.5580  0.5178
18002TIP3   OH275496   3.496   6.404   2.424  0.6762 -0.3803 -0.1698
18002TIP3    H175497   3.553   6.440   2.356  1.3884 -1.4298 -0.1463
18002TIP3    H275498   3.531   6.440   2.506  0.9049 -0.5027 -0.2132
18003TIP3   OH275499   3.932   6.406  13.504 -0.0839 -0.0735  0.3258
18003TIP3    H175500   3.966   6.323  13.539 -0.3605 -1.6228 -2.8784
18003TIP3    H275501   3.862   6.379  13.445  0.8655  2.3572 -1.9767
18004TIP3   OH275502   2.749   4.357  12.706  0.0197 -0.2980  0.2180
18004TIP3    H175503   2.667   4.325  12.743  1.3913 -1.9360  1.8976
18004TIP3    H275504   2.744   4.333  12.613 -2.0597  1.0626 -0.0758
18005TIP3   OH275505   4.395   5.594  14.126 -0.4727  0.4716  0.4227
18005TIP3    H175506   4.381   5.517  14.182 -2.8139  1.8894  1.9041
18005TIP3    H275507   4.310   5.609  14.085  0.2857  1.5424 -0.7875
18006TIP3   OH275508   4.058   6.441  13.028  0.0259 -0.0144  0.1655
18006TIP3    H175509   4.109   6.518  13.051  2.0112 -1.2150 -0.1715
18006TIP3    H275510   4.054   6.442  12.933 -2.0577  0.9871  0.2238
18007TIP3   OH275511   4.463   2.617  12.769  0.3734 -0.5882  0.0100
18007TIP3    H175512   4.412   2.665  12.835 -1.6260 -0.9941 -1.1861
18007TIP3    H275513   4.487   2.535  12.813  0.6321 -0.0633  0.8464
18008TIP3   OH275514   2.785   4.168  13.186 -0.5904  0.3531  0.1548
18008TIP3    H175515   2.805   4.262  13.185  2.3986 -0.1586  2.7655
18008TIP3    H275516   2.820   4.135  13.104  0.4780  1.1526  0.2807
18009TIP3   OH275517   3.402   1.719   0.209 -0.6352  0.1575 -0.0863
18009TIP3    H175518   3.311   1.696   0.229 -0.8121 -0.2399 -1.3018
18009TIP3    H275519   3.409   1.811   0.234 -1.2012  0.0313  0.5650
18010TIP3   OH275520   4.049   5.495  10.964  0.0036 -0.2388 -0.6415
18010TIP3    H175521   4.033   5.413  11.010  0.1938 -0.9122 -1.7624
18010TIP3    H275522   3.997   5.488  10.884 -0.6305  1.0843 -0.3607
18011TIP3   OH275523   2.799   3.429   3.013 -0.2435 -0.4872  0.1379
18011TIP3    H175524   2.866   3.497   3.012  0.9193 -1.5594  2.1675
18011TIP3    H275525   2.753   3.441   3.096 -0.3434 -1.8667  0.2970
18012TIP3   OH275526   5.730   2.742   3.380  0.3828 -0.4959 -0.6869
18012TIP3    H175527   5.726   2.657   3.337 -0.4603 -0.0369 -1.5507
18012TIP3    H275528   5.675   2.799   3.325 -0.8187  0.0838  1.0659
18013TIP3   OH275529   1.773   1.779  15.528 -0.0051 -0.2394  0.0008
18013TIP3    H175530   1.731   1.865  15.528  0.7411  0.1560  1.9105
18013TIP3    H275531   1.702   1.717  15.512 -0.5342  0.7340 -1.4749
18014TIP3   OH275532   4.985   3.556  16.303 -0.3830  0.6610  0.3359
18014TIP3    H175533   4.899   3.543  16.342 -1.1621  1.9569 -0.8702
18014TIP3    H275534   4.966   3.580  16.212  1.2577  0.8725  0.0355
18015TIP3   OH275535   2.251   6.024   1.514  0.5363 -0.4271  0.0645
18015TIP3    H175536   2.240   6.115   1.542 -0.2169 -1.0088  1.7290
18015TIP3    H275537   2.279   6.030   1.423  0.6283  1.4766  0.2037
18016TIP3   OH275538   4.669   6.068  15.041 -0.0292  0.4890 -0.4203
18016TIP3    H175539   4.755   6.025  15.032 -0.0257  0.2188  0.8364
18016TIP3    H275540   4.691   6.160  15.057  0.0673  0.2710  0.7938
18017TIP3   OH275541   5.291   5.094  11.545 -0.3226  0.7719 -0.1756
18017TIP3    H175542   5.212   5.128  11.503 -0.5008  0.3760 -0.1553
18017TIP3    H275543   5.259   5.045  11.621  0.0089  1.6635  0.5494
18018TIP3   OH275544   3.457   6.466  11.195 -0.2382 -0.2431  0.6133
18018TIP3    H175545   3.446   6.510  11.110 -1.7023 -2.1570 -0.2396
18018TIP3    H275546   3.455   6.372  11.173  1.1804 -0.7512  2.5672
18019TIP3   OH275547   0.289   3.711  11.977 -0.0063  0.1720 -0.2543
18019TIP3    H175548   0.256   3.797  11.953  0.6352  0.0777 -1.4810
18019TIP3    H275549   0.292   3.662  11.895 -0.0386 -0.9153  0.3744
18020TIP3   OH275550   6.773   0.728   5.540  0.4588  0.1236 -0.3870
18020TIP3    H175551   6.775   0.817   5.505 -0.7871 -0.8429 -3.0853
18020TIP3    H275552   6.698   0.727   5.599  0.4797  0.8681 -0.3457
18021TIP3   OH275553   2.071   2.170  13.090 -0.1730  0.2205  0.9649
18021TIP3    H175554   2.124   2.093  13.073 -0.6077  0.4078 -1.4080
18021TIP3    H275555   2.002   2.140  13.148 -1.1395 -1.5482 -1.0224
18022TIP3   OH275556   0.879   1.304  14.371 -0.6105  0.3826 -0.0481
18022TIP3    H175557   0.869   1.352  14.289 -0.9640  1.1022  0.4169
18022TIP3    H275558   0.974   1.302  14.386 -0.6007  0.9710 -0.0409
18023TIP3   OH275559   6.751   4.135   4.837  0.3936 -0.2182  0.0859
18023TIP3    H175560   6.708   4.180   4.909 -0.7185 -2.0204  0.5638
18023TIP3    H275561   6.692   4.147   4.763  0.2608 -0.5930  0.1300
18024TIP3   OH275562   5.295   1.852  16.503  0.4545  0.2945  0.2309
18024TIP3    H175563   5.350   1.803  16.564  0.7932 -0.9577 -1.0526
18024TIP3    H275564   5.320   1.819  16.417 -1.5651  0.4884 -0.4479
18025TIP3   OH275565   3.743   6.528  14.796 -0.2991 -0.3223 -0.6315
18025TIP3    H175566   3.793   6.447  14.788 -0.2019 -0.4616  1.1334
18025TIP3    H275567   3.801   6.595  14.759  1.2706 -0.4642  1.4896
18026TIP3   OH275568   2.832   6.745  13.000  0.1398  0.7336 -0.2337
18026TIP3    H175569   2.817   6.839  13.010 -2.4954  0.3298 -0.0419
18026TIP3    H275570   2.834   6.731  12.906  1.9317  1.1729 -0.2717
18027TIP3   OH275571   5.440   6.008   2.185  0.2042  0.2580 -0.0124
18027TIP3    H175572   5.394   6.056   2.254  0.1910  1.3765 -0.7905
18027TIP3    H275573   5.502   5.952   2.232 -0.8801 -0.1435  0.9711
18028TIP3   OH275574   4.306   3.512  13.254  0.1367  0.3755 -0.2963
18028TIP3    H175575   4.221   3.548  13.230  0.7430 -0.2332 -3.6756
18028TIP3    H275576   4.300   3.419  13.230  2.2061  0.6468 -2.1078
18029TIP3   OH275577   5.337   0.118   3.050 -0.0684  0.1531 -0.0891
18029TIP3    H175578   5.325   0.106   3.144 -1.1666 -0.5094 -0.3054
18029TIP3    H275579   5.248   0.125   3.015  0.2557 -1.3121 -1.2929
18030TIP3   OH275580   3.719   5.438   3.678  0.5601  0.4681  0.2158
18030TIP3    H175581   3.673   5.436   3.762  1.5820  0.7522  0.7809
18030TIP3    H275582   3.735   5.346   3.658 -0.7786  0.3267 -0.2849
18031TIP3   OH275583   2.684   4.112  15.465 -0.5659 -0.5448 -0.0775
18031TIP3    H175584   2.717   4.201  15.448 -0.7913  0.1126  2.7112
18031TIP3    H275585   2.648   4.084  15.380 -2.2206  2.7690 -0.5775
18032TIP3   OH275586   1.431   4.852   1.268 -0.3797 -0.0745 -0.1381
18032TIP3    H175587   1.395   4.763   1.261  0.2819 -0.3001 -0.7198
18032TIP3    H275588   1.365   4.907   1.226  0.6574 -0.6862 -2.6747
18033TIP3   OH275589   3.746   4.709  11.287  0.1834  0.5862 -0.6502
18033TIP3    H175590   3.743   4.783  11.226 -1.0254  1.1203  0.0284
18033TIP3    H275591   3.692   4.642  11.245 -0.7240  0.9867 -0.1479
18034TIP3   OH275592   4.119   3.398   5.131 -0.5548  0.4802 -0.0092
18034TIP3    H175593   4.099   3.436   5.217  0.7648 -0.4324  0.7199
18034TIP3    H275594   4.214   3.403   5.124 -0.4337 -1.8162 -0.2994
18035TIP3   OH275595   4.182   4.851  14.492 -0.0754  0.4120  0.4175
18035TIP3    H175596   4.195   4.926  14.434 -1.0364 -0.2980 -0.7506
18035TIP3    H275597   4.108   4.876  14.548  0.1300  0.6539  0.5802
18036TIP3   OH275598   1.991   2.246   5.755  0.0695 -0.4917 -1.0266
18036TIP3    H175599   2.068   2.252   5.812  0.4032  0.1114 -1.5439
18036TIP3    H275600   2.024   2.260   5.667 -0.8794  1.6038 -1.0923
18037TIP3   OH275601   3.155   0.971   3.517  0.0561  0.2343 -0.2929
18037TIP3    H175602   3.120   0.929   3.596 -0.4205  1.9371  0.4300
18037TIP3    H275603   3.229   0.916   3.492 -1.6197 -2.0270 -0.4256
18038TIP3   OH275604   3.231   5.578  16.583 -0.1231 -0.0583 -0.0448
18038TIP3    H175605   3.173   5.605  16.512  1.0502 -0.0218 -0.9980
18038TIP3    H275606   3.221   5.646  16.649  0.0758  0.8211 -0.9096
18039TIP3   OH275607   4.448   1.042  11.663  0.2198 -0.4486  0.0256
18039TIP3    H175608   4.456   0.947  11.653 -1.5358 -0.6096 -0.0771
18039TIP3    H275609   4.385   1.068  11.596  0.9663  0.8487 -0.1879
18040TIP3   OH275610   5.588   3.791  14.959 -0.1630  0.0815 -0.2795
18040TIP3    H175611   5.559   3.741  15.035 -0.5377  2.7693  1.3960
18040TIP3    H275612   5.673   3.753  14.935  0.2356 -0.3851  1.8315
18041TIP3   OH275613   2.426   4.903  13.979  0.3406  0.5299 -0.4673
18041TIP3    H175614   2.519   4.910  13.956  0.5078  0.5766  0.2306
18041TIP3    H275615   2.422   4.830  14.040  0.3166  2.3223  1.7096
18042TIP3   OH275616   0.791   3.446   2.377 -0.2246  0.2298 -0.1370
18042TIP3    H175617   0.825   3.361   2.407 -2.5475 -1.2479 -1.4371
18042TIP3    H275618   0.725   3.469   2.442  0.0868  0.8098 -0.0290
18043TIP3   OH275619   3.854   0.286   5.111 -0.1925 -0.6371 -0.0180
18043TIP3    H175620   3.786   0.220   5.123  0.7378 -1.3366  1.5652
18043TIP3    H275621   3.892   0.267   5.025 -2.0870 -0.1327 -0.9836
18044TIP3   OH275622   3.756   5.278  11.859 -0.4154  0.0265  0.2315
18044TIP3    H175623   3.682   5.335  11.837 -0.1988  0.3108  0.2299
18044TIP3    H275624   3.778   5.301  11.949  0.0782  0.3946  0.0179
18045TIP3   OH275625   1.029   0.031   3.248 -0.0413 -0.8026  0.2497
18045TIP3    H175626   1.117   0.027   3.210  0.4064 -0.2811  1.2122
18045TIP3    H275627   1.034   0.103   3.310 -1.7388  0.5580 -1.1569
18046TIP3   OH275628   4.337   6.795  12.948  0.2565 -0.7442 -0.1488
18046TIP3    H175629   4.310   6.791  13.040 -0.4207  2.6247 -0.1220
18046TIP3    H275630   4.419   6.746  12.945  0.7041 -0.2523  2.4337
18047TIP3   OH275631   2.043   4.680   1.321 -1.1090 -0.3172 -0.2411
18047TIP3    H175632   2.009   4.735   1.391 -1.0310 -1.0425  0.3815
18047TIP3    H275633   2.115   4.731   1.283  1.3014 -1.4217  2.6670
18048TIP3   OH275634   6.813   1.116   5.726  0.3785  0.0690  0.3751
18048TIP3    H175635   6.830   1.022   5.730  0.7176  0.1042 -0.1444
18048TIP3    H275636   6.720   1.123   5.704  0.8628 -0.1645 -1.8294
18049TIP3   OH275637   2.209   1.389  12.003 -0.0058  0.2437  0.0097
18049TIP3    H175638   2.296   1.365  12.033 -1.3648 -0.9473  3.2083
18049TIP3    H275639   2.219   1.478  11.968  2.2856  0.5364  1.3346
18050TIP3   OH275640   5.852   6.816   2.335  0.1789  0.1461 -0.0710
18050TIP3    H175641   5.928   6.851   2.290  0.3058  0.7955  0.6346
18050TIP3    H275642   5.878   6.811   2.427  0.0749 -1.5724 -0.1159
18051TIP3   OH275643   4.388   1.357  14.872  0.4523 -0.6471  0.1333
18051TIP3    H175644   4.445   1.285  14.900  1.1156 -0.2509 -0.1739
18051TIP3    H275645   4.371   1.406  14.952  1.8312  0.1213 -0.0147
18052TIP3   OH275646   2.794   2.410  12.250  0.2482  0.4849 -1.1167
18052TIP3    H175647   2.760   2.386  12.164 -0.7374 -0.5018 -0.4599
18052TIP3    H275648   2.788   2.330  12.302  0.7377  1.0992 -0.0902
18053TIP3   OH275649   0.565   3.383   4.706  0.0462 -0.2336  0.5945
18053TIP3    H175650   0.540   3.405   4.616  0.9609  0.2061  0.4342
18053TIP3    H275651   0.581   3.289   4.705  0.5168 -0.1524  0.1736
18054TIP3   OH275652   6.662   0.397  12.737  0.0324 -0.0989 -0.4681
18054TIP3    H175653   6.687   0.306  12.749  1.7908  0.2771 -1.0719
18054TIP3    H275654   6.692   0.419  12.649  1.4079  1.6091  0.3980
18055TIP3   OH275655   5.654   6.702   2.950 -0.0155 -0.5865  0.2608
18055TIP3    H175656   5.602   6.782   2.937  1.4298  0.5319  1.1017
18055TIP3    H275657   5.614   6.637   2.892 -2.2328  0.2766  0.7811
18056TIP3   OH275658   6.482   4.783   3.974  0.3230 -0.0569 -0.1753
18056TIP3    H175659   6.523   4.745   4.051  0.0960 -0.4346 -0.2413
18056TIP3    H275660   6.434   4.859   4.007  0.2888 -0.1729  0.0437
18057TIP3   OH275661   0.059   5.287   5.229  0.3658 -0.3896 -0.0941
18057TIP3    H175662   0.141   5.319   5.193  0.8673 -2.0459 -0.4409
18057TIP3    H275663  -0.006   5.306   5.162  0.7950 -0.7734 -0.6212
18058TIP3   OH275664   2.197   5.457   1.532  0.1837  0.3917  0.1781
18058TIP3    H175665   2.154   5.381   1.492 -0.3142  1.2606 -0.9801
18058TIP3    H275666   2.128   5.501   1.582  0.8020 -0.6804  2.0071
18059TIP3   OH275667   3.296   6.285  17.068 -0.5052 -0.0284  0.1577
18059TIP3    H175668   3.212   6.242  17.083 -0.1253 -0.5149  0.9624
18059TIP3    H275669   3.284   6.335  16.988 -1.6175  0.0509  0.3689
18060TIP3   OH275670   4.397   4.624  13.836 -0.4433 -0.4541  0.2678
18060TIP3    H175671   4.370   4.595  13.749  1.9453 -0.5467 -0.4786
18060TIP3    H275672   4.320   4.668  13.871 -1.7226 -1.1771 -1.5483
18061TIP3   OH275673   1.205   1.822   1.237 -0.0921  0.3261 -0.6525
18061TIP3    H175674   1.183   1.757   1.304 -0.2760  0.5060 -0.5377
18061TIP3    H275675   1.201   1.774   1.155  1.7179 -0.2963 -0.3971
18062TIP3   OH275676   2.639   4.597   0.799 -0.0220  0.3663  0.2644
18062TIP3    H175677   2.672   4.582   0.710 -0.3858 -1.4543  0.4147
18062TIP3    H275678   2.710   4.570   0.856 -1.3635 -2.7052  0.5707
18063TIP3   OH275679   0.089   5.737   1.362 -0.4247  0.6249 -0.5233
18063TIP3    H175680   0.149   5.685   1.308 -0.0211  2.0711 -1.4965
18063TIP3    H275681   0.147   5.781   1.425 -0.5186  1.5955 -1.1113
18064TIP3   OH275682   5.081   2.178   4.959 -0.1121  0.4817  0.3892
18064TIP3    H175683   5.165   2.135   4.976  0.7167  2.0710  0.3758
18064TIP3    H275684   5.050   2.205   5.045  0.3091  1.5602  0.2133
18065TIP3   OH275685   2.516   3.017   0.704 -0.0062  0.1601 -0.0995
18065TIP3    H175686   2.485   3.094   0.657 -2.1774 -0.9524 -0.5383
18065TIP3    H275687   2.489   3.031   0.795  2.1183  1.2118  0.4033
18066TIP3   OH275688   3.111   2.621   0.613  0.3519  0.5581 -0.5681
18066TIP3    H175689   3.041   2.607   0.677  0.8372 -1.0155 -0.3417
18066TIP3    H275690   3.160   2.695   0.646 -0.8055  1.2509 -0.3720
18067TIP3   OH275691   2.563   0.543  13.062 -0.1337 -0.3506  0.4059
18067TIP3    H175692   2.487   0.583  13.018  1.9681  3.1629 -0.1949
18067TIP3    H275693   2.548   0.560  13.155 -0.0671  0.3573  0.2889
18068TIP3   OH275694   1.339   4.973   2.224  0.4010  0.1349 -0.3201
18068TIP3    H175695   1.325   4.954   2.317 -2.7691 -0.1547 -0.8003
18068TIP3    H275696   1.336   4.887   2.181  1.7038  0.2798 -0.7326
18069TIP3   OH275697   2.897   6.711  11.692 -0.4614  0.0545  0.1116
18069TIP3    H175698   2.921   6.621  11.714 -0.5236  0.2733  1.0906
18069TIP3    H275699   2.919   6.762  11.770 -4.2983  0.2395  1.1626
18070TIP3   OH275700   2.380   4.447  13.291 -0.4813 -0.7818 -0.0462
18070TIP3    H175701   2.390   4.397  13.210  1.9903 -0.8634  0.2930
18070TIP3    H275702   2.298   4.496  13.278  0.6365  0.3685 -3.2093
18071TIP3   OH275703   0.654   0.761  13.346 -0.7524 -0.2524 -0.1116
18071TIP3    H175704   0.713   0.831  13.321 -0.7219 -0.5271 -0.8204
18071TIP3    H275705   0.705   0.681  13.335 -0.8030 -0.3945  0.6454
18072TIP3   OH275706   2.347   3.480  10.503  0.7321 -0.6294  0.0518
18072TIP3    H175707   2.364   3.466  10.596 -0.0896  2.6547  0.7764
18072TIP3    H275708   2.394   3.561  10.482  1.9213 -1.9824 -2.7314
18073TIP3   OH275709   3.527   5.056  14.490 -0.0120  0.2918  0.7333
18073TIP3    H175710   3.431   5.052  14.490 -0.0526 -1.6703 -3.9286
18073TIP3    H275711   3.554   4.971  14.524  0.0375 -0.1759 -0.4679
18074TIP3   OH275712   1.282   3.426  12.335 -0.9477 -0.2360 -0.2505
18074TIP3    H175713   1.342   3.364  12.293 -0.9779 -0.8755  0.6460
18074TIP3    H275714   1.196   3.384  12.329 -0.9626 -0.2998  0.3954
18075TIP3   OH275715   0.133   4.842  15.979 -0.1217  0.1046 -0.2923
18075TIP3    H175716   0.124   4.925  16.026  2.0987  0.5726 -0.6159
18075TIP3    H275717   0.198   4.793  16.029 -0.1298 -0.7289 -1.0801
18076TIP3   OH275718   1.916   3.781   5.478  0.3285  0.3454 -0.1689
18076TIP3    H175719   1.994   3.836   5.469  1.3347 -0.4971  2.5831
18076TIP3    H275720   1.900   3.747   5.391  1.6056  2.4516 -1.2704
18077TIP3   OH275721   0.055   6.245   1.793 -0.1270 -0.3503  0.3051
18077TIP3    H175722   0.075   6.152   1.805  0.3183 -0.0322  2.1780
18077TIP3    H275723   0.131   6.280   1.748 -0.0361 -0.7521  0.1377
18078TIP3   OH275724   1.079   5.869  14.364  0.9809  0.4381  0.1783
18078TIP3    H175725   1.065   5.880  14.270  0.1500 -1.7758  0.0265
18078TIP3    H275726   1.035   5.945  14.403  1.0658  1.2042 -1.1858
18079TIP3   OH275727   1.501   2.609  15.125  0.1140 -0.4797 -0.2773
18079TIP3    H175728   1.547   2.526  15.114 -1.5725 -1.1955 -2.2256
18079TIP3    H275729   1.447   2.618  15.046 -0.7943  1.7915  0.5398
18080TIP3   OH275730   6.209   0.413   2.463  0.3219  0.0299  0.4284
18080TIP3    H175731   6.168   0.467   2.396  1.0330 -0.8826 -0.7723
18080TIP3    H275732   6.293   0.454   2.479  1.2317 -1.1485 -1.1109
18081TIP3   OH275733   2.134   2.718   4.766  0.5635  0.5965  0.0556
18081TIP3    H175734   2.203   2.748   4.707 -1.3870  1.7586 -1.6789
18081TIP3    H275735   2.106   2.798   4.812 -0.7687  0.4545 -0.4869
18082TIP3   OH275736   3.945   1.637  16.043 -0.1460 -0.3057 -0.1814
18082TIP3    H175737   3.959   1.654  15.950 -0.1532  0.4603 -0.0484
18082TIP3    H275738   3.939   1.542  16.049  1.3936 -0.4610 -0.7510
18083TIP3   OH275739   6.203   1.586   4.326  0.1978  0.1053  0.6309
18083TIP3    H175740   6.264   1.658   4.312  2.8125 -1.3148  3.9034
18083TIP3    H275741   6.116   1.626   4.319  1.5585  3.1943  0.6711
18084TIP3   OH275742   0.214   3.455  12.540  0.4708 -0.1100 -0.0469
18084TIP3    H175743   0.227   3.542  12.504 -1.2022 -0.3433 -1.2630
18084TIP3    H275744   0.247   3.396  12.472  2.6993 -0.4262  1.2592
18085TIP3   OH275745   2.450   3.983   5.250 -0.2277 -0.2758  0.0412
18085TIP3    H175746   2.415   4.022   5.330 -1.1599 -0.9654 -0.0359
18085TIP3    H275747   2.434   4.050   5.182  0.9256  0.4765  0.4942
18086TIP3   OH275748   4.706   2.871  16.374  0.3395  0.5826  0.4987
18086TIP3    H175749   4.644   2.806  16.410  0.5430  1.5327  2.6444
18086TIP3    H275750   4.652   2.947  16.355  0.2463  0.1106 -1.2184
18087TIP3   OH275751   0.491   1.300   2.223  0.4269 -0.3490  1.0054
18087TIP3    H175752   0.427   1.314   2.153  0.9533  0.4985  0.6782
18087TIP3    H275753   0.551   1.234   2.189  0.4018 -0.2868  0.8406
18088TIP3   OH275754   2.143   0.750  13.350 -0.4418  0.4846 -0.5521
18088TIP3    H175755   2.193   0.681  13.392 -0.1815 -0.7818 -2.8263
18088TIP3    H275756   2.206   0.797  13.295 -1.0822  1.0135 -0.8533
18089TIP3   OH275757   3.949   3.488   4.955 -0.6833  0.2168  0.2226
18089TIP3    H175758   4.010   3.457   5.021 -2.3682 -0.5614  1.4530
18089TIP3    H275759   3.985   3.572   4.926  1.7200 -0.9205 -0.1690
18090TIP3   OH275760   4.386   1.749   4.290  0.1654  0.3182 -0.2457
18090TIP3    H175761   4.377   1.814   4.220  0.8022 -0.3411 -0.9391
18090TIP3    H275762   4.441   1.791   4.355  0.9910  0.2836 -0.9219
18091TIP3   OH275763   3.894   0.628  16.263 -0.1703  0.6373  0.2521
18091TIP3    H175764   3.977   0.665  16.291  0.8080  0.5102 -2.4273
18091TIP3    H275765   3.851   0.698  16.214  0.4205 -0.7635 -2.3438
18092TIP3   OH275766   6.582   4.940  11.892  0.4792 -0.0995  0.2472
18092TIP3    H175767   6.626   4.918  11.974  1.1747 -0.0516 -0.1037
18092TIP3    H275768   6.654   4.951  11.829  0.0166  0.8922 -0.1223
18093TIP3   OH275769   3.490   4.262  11.849  0.1033 -0.3867 -0.1818
18093TIP3    H175770   3.519   4.346  11.884 -1.3019 -0.0353  0.1770
18093TIP3    H275771   3.486   4.205  11.926  2.1565 -1.1196 -0.5924
18094TIP3   OH275772   0.442   5.554  12.519  0.4945 -0.3082 -0.0575
18094TIP3    H175773   0.354   5.592  12.522  0.3103 -0.6008 -1.3996
18094TIP3    H275774   0.443   5.490  12.590  0.7386  2.0114  2.1140
18095TIP3   OH275775   3.271   5.686   0.752  0.3403  0.0736 -0.0896
18095TIP3    H175776   3.200   5.730   0.705  0.6235 -0.1351 -0.7151
18095TIP3    H275777   3.351   5.725   0.716  0.5274  1.2027  1.4829
18096TIP3   OH275778   1.692   4.095  11.298  0.1453  0.2094  0.8174
18096TIP3    H175779   1.639   4.045  11.360 -0.0883  1.4409  1.6109
18096TIP3    H275780   1.639   4.097  11.218 -1.4205  2.1277  1.8463
18097TIP3   OH275781   2.981   6.346   4.175 -0.0280  0.0822 -0.1567
18097TIP3    H175782   3.066   6.317   4.143  0.0274 -1.3592  1.2336
18097TIP3    H275783   2.934   6.374   4.097  1.6366  0.6652 -0.9573
18098TIP3   OH275784   3.569   6.363   0.998  0.4330 -0.1268 -0.5386
18098TIP3    H175785   3.551   6.323   0.913 -0.5505 -2.2850  0.6606
18098TIP3    H275786   3.659   6.336   1.018  1.0655  1.2987 -1.3668
18099TIP3   OH275787   0.076   6.190  12.347 -0.7024 -0.1240  0.0933
18099TIP3    H175788   0.064   6.149  12.433 -2.0230  0.3902  0.1630
18099TIP3    H275789   0.106   6.118  12.291 -3.2663 -1.3042  0.1527
18100TIP3   OH275790   5.444   0.338   3.410  0.2019 -0.0970 -0.6473
18100TIP3    H175791   5.496   0.387   3.474 -0.9719 -0.0415  0.2968
18100TIP3    H275792   5.470   0.247   3.422 -0.7807 -0.2209  0.6894
18101TIP3   OH275793   0.100   2.763   1.078 -0.0372  0.2110  0.1264
18101TIP3    H175794   0.106   2.709   1.156 -0.6057 -0.3582 -0.2182
18101TIP3    H275795   0.189   2.768   1.045  0.2400  0.6398  0.9330
18102TIP3   OH275796   1.229   2.246  12.527  0.1729 -0.2713  0.4321
18102TIP3    H175797   1.307   2.286  12.489  0.2505 -1.0711 -0.2696
18102TIP3    H275798   1.242   2.253  12.622  1.9269 -1.9895  0.3378
18103TIP3   OH275799   1.939   4.425  14.512 -0.2123 -0.3202 -0.4319
18103TIP3    H175800   2.027   4.456  14.491  0.4523 -0.4033  2.0819
18103TIP3    H275801   1.922   4.355  14.449  0.7810  0.9179 -2.0930
18104TIP3   OH275802   3.757   0.642  11.967 -0.3622  0.2415  0.0970
18104TIP3    H175803   3.759   0.547  11.978 -0.1403  0.0246 -1.7190
18104TIP3    H275804   3.831   0.674  12.018  1.2384 -0.8021 -1.5444
18105TIP3   OH275805   3.203   1.464  12.474 -0.4062 -0.4476 -0.2293
18105TIP3    H175806   3.145   1.499  12.407 -0.6190  0.4840  0.4345
18105TIP3    H275807   3.194   1.369  12.467 -1.9870 -0.3080 -0.1591
18106TIP3   OH275808   1.684   0.821   2.378  0.5784  0.0395 -0.2834
18106TIP3    H175809   1.593   0.796   2.365  0.2413  0.4072  1.3426
18106TIP3    H275810   1.682   0.890   2.444  1.8322  1.7580 -1.9676
18107TIP3   OH275811   5.710   5.701  14.359 -0.1612  0.0214 -1.3083
18107TIP3    H175812   5.702   5.716  14.265 -0.0062  0.4453 -1.2524
18107TIP3    H275813   5.799   5.666  14.370  0.3320  1.3131 -1.1459
18108TIP3   OH275814   4.530   3.765   0.770  0.6872 -0.3050  0.2710
18108TIP3    H175815   4.441   3.787   0.797  0.7493 -0.6044  0.7305
18108TIP3    H275816   4.583   3.777   0.849  0.7908 -1.6875  0.4238
18109TIP3   OH275817   0.736   3.678  14.967 -0.7687 -0.3488 -0.4768
18109TIP3    H175818   0.799   3.716  14.906  0.8308 -0.4639  1.0456
18109TIP3    H275819   0.651   3.709  14.937  0.3488  3.0704 -0.2563
18110TIP3   OH275820   3.782   1.995   1.311 -0.3245 -0.0679 -0.8225
18110TIP3    H175821   3.717   1.936   1.348  1.1350 -1.2205 -0.0076
18110TIP3    H275822   3.829   2.029   1.387 -0.5367  1.3965 -1.3485
18111TIP3   OH275823   1.934   3.330   0.760  0.6801  0.4625  0.6250
18111TIP3    H175824   1.903   3.266   0.696 -0.7622 -2.2388  3.8795
18111TIP3    H275825   1.860   3.391   0.770  0.6967  0.5663  0.1239
18112TIP3   OH275826   5.738   6.635  16.447 -0.8126  0.1795 -0.1514
18112TIP3    H175827   5.779   6.631  16.361  2.7867 -1.2710  1.5568
18112TIP3    H275828   5.705   6.547  16.462 -0.2358  0.0732  0.5076
18113TIP3   OH275829   1.556   6.054  15.667 -0.4597  0.1095  0.1771
18113TIP3    H175830   1.475   6.074  15.620 -0.4734  0.3181  0.2864
18113TIP3    H275831   1.605   6.137  15.667 -0.8891  0.3784  1.3568
18114TIP3   OH275832   5.108   5.117   1.495  0.1018 -0.2363 -0.6712
18114TIP3    H175833   5.064   5.036   1.520  0.0947 -0.6202 -1.8980
18114TIP3    H275834   5.043   5.185   1.507 -0.4805 -0.6574 -1.3854
18115TIP3   OH275835   5.415   6.641  15.031 -0.2319  0.6386 -0.4506
18115TIP3    H175836   5.332   6.601  15.058  0.7760 -0.0282  1.8071
18115TIP3    H275837   5.440   6.594  14.952 -2.0424  0.9335 -1.2363
18116TIP3   OH275838   4.233   5.501  12.060 -0.5588  0.0742 -0.1395
18116TIP3    H175839   4.272   5.417  12.037 -1.4346 -0.6119  0.8416
18116TIP3    H275840   4.287   5.566  12.014  3.0935 -0.6650  2.8280
18117TIP3   OH275841   4.744   1.278   2.806 -0.3530  0.0869  0.0027
18117TIP3    H175842   4.746   1.225   2.727 -1.3980  0.1091 -0.0453
18117TIP3    H275843   4.672   1.242   2.858 -2.0184  2.3344 -0.6668
18118TIP3   OH275844   3.851   1.089   4.682 -0.0838 -0.7594 -0.2032
18118TIP3    H175845   3.877   1.163   4.626 -0.1167 -0.6418 -0.0616
18118TIP3    H275846   3.916   1.021   4.662  0.4051 -0.4248  0.2339
18119TIP3   OH275847   5.082   3.819   2.747  0.3291 -0.1513  0.2820
18119TIP3    H175848   5.089   3.818   2.843  3.2686 -1.0819  0.1091
18119TIP3    H275849   5.147   3.883   2.719 -2.6080  2.4164 -1.0403
18120TIP3   OH275850   6.812   0.159   4.166 -0.3886 -0.1612 -0.1963
18120TIP3    H175851   6.745   0.190   4.106 -1.1813  1.2645  1.3794
18120TIP3    H275852   6.889   0.214   4.146 -0.5580  0.1101 -0.1027
18121TIP3   OH275853   5.584   4.309  16.859 -0.0247  0.0426  0.4044
18121TIP3    H175854   5.583   4.386  16.916  0.6090  0.5318 -0.2328
18121TIP3    H275855   5.676   4.283  16.856  0.0384  0.3933 -0.8823
18122TIP3   OH275856   1.506   3.482   2.873 -0.0777  0.4103  0.6128
18122TIP3    H175857   1.569   3.436   2.928  0.1160  0.8132  0.7308
18122TIP3    H275858   1.424   3.434   2.884  0.6316 -1.2571 -0.9960
18123TIP3   OH275859   4.434   3.422   1.388 -0.4232  0.2993 -0.0376
18123TIP3    H175860   4.339   3.427   1.390 -0.4661 -0.1233 -0.9421
18123TIP3    H275861   4.453   3.330   1.369  0.1630  0.3737  0.1912
18124TIP3   OH275862   2.617   3.247   3.682 -0.3241  0.2766 -0.6347
18124TIP3    H175863   2.603   3.297   3.602 -1.2563  1.0106 -0.0115
18124TIP3    H275864   2.577   3.162   3.664  0.7655 -0.0777 -1.4805
18125TIP3   OH275865   6.149   0.012   1.503  0.2996 -0.6604  0.0462
18125TIP3    H175866   6.112  -0.074   1.523 -0.5619 -0.1259  0.8079
18125TIP3    H275867   6.096   0.044   1.431 -1.0704  0.3101  1.4542
18126TIP3   OH275868   1.231   0.662  12.033  0.1884  0.2877 -0.0299
18126TIP3    H175869   1.230   0.601  12.106  0.5970  0.2723 -0.0352
18126TIP3    H275870   1.302   0.724  12.053 -1.1715  1.6494  0.7009
18127TIP3   OH275871   1.406   0.481   2.442 -0.3224 -0.1280 -0.1782
18127TIP3    H175872   1.496   0.450   2.427 -0.1508 -0.1206  0.8283
18127TIP3    H275873   1.352   0.402   2.441 -0.0047 -0.3918  1.4652
18128TIP3   OH275874   6.087   3.174   2.210  1.0371 -0.8495 -0.1303
18128TIP3    H175875   6.071   3.241   2.144  2.6801 -0.5258 -0.2221
18128TIP3    H275876   6.020   3.108   2.194  0.3849  0.0179 -1.0459
18129TIP3   OH275877   4.530   6.364  13.305  0.0826  0.1907 -0.3593
18129TIP3    H175878   4.563   6.274  13.307 -1.0564 -0.2178  1.3616
18129TIP3    H275879   4.564   6.404  13.385 -1.1490  0.6486 -0.0506
18130TIP3   OH275880   2.063   2.089   1.406  0.5391  0.1145  0.7024
18130TIP3    H175881   2.047   2.049   1.492  2.0289 -0.1407  0.8639
18130TIP3    H275882   2.013   2.170   1.408 -1.5273 -1.1165  0.8375
18131TIP3   OH275883   1.497   1.396   4.564 -0.0577 -0.2035  0.5679
18131TIP3    H175884   1.452   1.377   4.482 -0.8773  2.2191  0.4338
18131TIP3    H275885   1.429   1.432   4.621  0.6907 -1.0741  2.0291
18132TIP3   OH275886   5.506   5.213  14.983  0.4647 -0.2753  0.2437
18132TIP3    H175887   5.485   5.137  15.037 -1.7931  0.8096  0.9360
18132TIP3    H275888   5.553   5.272  15.042  0.8368 -0.4534  0.1295
18133TIP3   OH275889   6.631   6.320  16.113  0.2996 -0.4242  0.3454
18133TIP3    H175890   6.617   6.406  16.152 -1.5787 -0.7103  0.3197
18133TIP3    H275891   6.602   6.330  16.022  3.5355 -0.0863 -0.7387
18134TIP3   OH275892   4.082   1.876   3.078 -0.0530 -0.8552 -0.3129
18134TIP3    H175893   4.168   1.836   3.066  0.8051  1.1864 -1.2444
18134TIP3    H275894   4.090   1.962   3.038 -1.5291  0.6601  2.5297
18135TIP3   OH275895   3.928   1.678   4.083 -0.7300 -1.0041 -0.3578
18135TIP3    H175896   3.918   1.730   4.162  1.2986 -2.9396  1.2310
18135TIP3    H275897   3.917   1.740   4.011 -0.6989  1.1329  1.4556
18136TIP3   OH275898   4.930   4.285   3.913 -0.3515  0.0241  0.9331
18136TIP3    H175899   5.008   4.330   3.945  0.0504 -0.9268  1.3118
18136TIP3    H275900   4.932   4.200   3.957 -1.1482 -0.3276  0.2967
18137TIP3   OH275901   4.491   0.475   4.955 -0.0367  0.2808 -0.7662
18137TIP3    H175902   4.426   0.461   5.023  0.5965 -0.4159 -0.3032
18137TIP3    H275903   4.494   0.392   4.907 -1.1447  1.0640 -2.2328
18138TIP3   OH275904   4.681   0.461  14.584  0.2068 -0.2233  0.0562
18138TIP3    H175905   4.680   0.458  14.680 -1.0456 -0.0610  0.0489
18138TIP3    H275906   4.596   0.498  14.560  0.2801 -0.8098 -1.1395
18139TIP3   OH275907   5.206   5.920   0.921  0.0837  0.0855  0.2502
18139TIP3    H175908   5.231   5.952   0.835 -1.5578 -1.6814 -0.9037
18139TIP3    H275909   5.119   5.955   0.937  0.0438 -0.2621  0.8467
18140TIP3   OH275910   1.658   5.091   0.888  0.3561  0.4388 -0.5610
18140TIP3    H175911   1.623   5.045   0.812  1.4456  0.3989 -1.0407
18140TIP3    H275912   1.723   5.032   0.925  0.5684  0.8940 -0.1994
18141TIP3   OH275913   0.657   5.666   4.965  0.6108  0.1008  0.0195
18141TIP3    H175914   0.568   5.632   4.973  1.5893 -2.6827 -0.5004
18141TIP3    H275915   0.654   5.723   4.888 -0.6744 -0.0761 -0.0817
18142TIP3   OH275916   5.373   6.186  17.151  0.2844 -0.7552 -0.4350
18142TIP3    H175917   5.441   6.121  17.171 -0.5655 -0.6327  3.2062
18142TIP3    H275918   5.293   6.135  17.142  0.1875 -0.5276 -0.8394
18143TIP3   OH275919   6.421   3.053   1.205  0.6118 -0.4907 -0.1729
18143TIP3    H175920   6.501   3.023   1.161 -0.1282 -2.5394 -0.2029
18143TIP3    H275921   6.352   2.997   1.169 -0.5611  0.0814  1.1343
18144TIP3   OH275922   0.486   1.638   6.646  0.6934  0.1488  0.4153
18144TIP3    H175923   0.507   1.694   6.572  0.3521  0.4119  0.5154
18144TIP3    H275924   0.423   1.575   6.612 -2.4847  2.6735  1.4146
18145TIP3   OH275925   6.166   5.552  13.469  0.1385  0.1155 -0.3049
18145TIP3    H175926   6.136   5.640  13.496 -0.7764 -0.4270  0.4900
18145TIP3    H275927   6.180   5.559  13.375 -1.2545  0.7407 -0.4700
18146TIP3   OH275928   6.065   0.379   5.409  0.6379  0.2738  0.3833
18146TIP3    H175929   6.113   0.412   5.485 -1.7439  1.5174  1.3868
18146TIP3    H275930   6.021   0.301   5.441  1.3047 -0.4057 -0.3219
18147TIP3   OH275931   0.878   2.939   4.788  0.8946  0.1758  0.4785
18147TIP3    H175932   0.847   2.850   4.805  0.9919  0.1014  0.2712
18147TIP3    H275933   0.806   2.995   4.816 -0.2014 -0.0634 -1.7025
18148TIP3   OH275934   5.099   3.846   3.740 -0.1754 -0.6638  0.2863
18148TIP3    H175935   5.144   3.763   3.755  0.1022 -0.4061  0.9020
18148TIP3    H275936   5.157   3.912   3.777  0.4290 -0.0137 -1.7612
18149TIP3   OH275937   5.955   6.343  16.193  0.6005 -0.0539  0.2781
18149TIP3    H175938   6.003   6.294  16.259  1.3761  0.4735  0.1163
18149TIP3    H275939   5.990   6.432  16.199 -0.7257  0.4619  0.5134
18150TIP3   OH275940   2.940   5.206   3.753  0.0554  0.3640  0.0226
18150TIP3    H175941   2.941   5.122   3.799 -2.2486 -0.3751 -1.1864
18150TIP3    H275942   2.883   5.262   3.806  0.9052  0.8943  0.3764
18151TIP3   OH275943   4.731   0.393   6.121 -0.3062 -0.4682 -0.5037
18151TIP3    H175944   4.824   0.405   6.102 -0.2222  1.0752  0.7815
18151TIP3    H275945   4.725   0.396   6.216 -1.3574 -3.2066 -0.4170
18152TIP3   OH275946   3.058   6.312  13.773  0.2523  0.1799  0.5498
18152TIP3    H175947   3.046   6.355  13.688  1.0921  2.0456  1.3668
18152TIP3    H275948   3.019   6.225  13.761 -0.7834  0.8798 -1.3517
18153TIP3   OH275949   3.664   0.526  14.041  0.4575  0.0414 -0.1823
18153TIP3    H175950   3.594   0.483  13.993 -0.2965  2.7578 -1.6202
18153TIP3    H275951   3.636   0.522  14.133 -0.2338 -1.2902 -0.4390
18154TIP3   OH275952   5.473   0.089   1.537 -0.5171 -0.4737  0.3645
18154TIP3    H175953   5.538   0.058   1.600  0.8291  0.3074 -0.6259
18154TIP3    H275954   5.495   0.044   1.456  0.5837  1.9461 -0.7225
18155TIP3   OH275955   5.959   2.534  11.024 -0.0445 -0.5707 -0.1836
18155TIP3    H175956   5.896   2.603  11.003  0.7499 -0.2217 -1.5038
18155TIP3    H275957   5.985   2.500  10.939  1.5311 -0.7168  0.3454
18156TIP3   OH275958   2.631   5.440  12.316 -0.3281 -0.3349  0.5392
18156TIP3    H175959   2.646   5.471  12.227  1.1969  0.8075  1.1646
18156TIP3    H275960   2.704   5.381  12.334  1.1171  1.8308  2.0759
18157TIP3   OH275961   0.875   2.273   4.792  0.3312  0.0743  0.5536
18157TIP3    H175962   0.837   2.342   4.847 -0.3632 -0.7106  1.0749
18157TIP3    H275963   0.834   2.193   4.824 -1.3410 -0.2302 -2.2162
18158TIP3   OH275964   1.065   5.917  10.496 -0.4650  0.0247 -0.1976
18158TIP3    H175965   1.004   5.990  10.501 -0.0809  0.2673  1.0969
18158TIP3    H275966   1.108   5.915  10.581  2.1376  0.5348 -1.4128
18159TIP3   OH275967   3.299   6.473   2.817 -0.3694  0.5859 -0.3763
18159TIP3    H175968   3.386   6.475   2.856 -0.4265  0.7830 -0.2553
18159TIP3    H275969   3.309   6.425   2.735 -0.4014 -0.5524  0.2708
18160TIP3   OH275970   3.168   2.088   4.110  0.6082 -0.1146  0.6740
18160TIP3    H175971   3.118   2.067   4.031 -0.3203  0.5409  1.0876
18160TIP3    H275972   3.254   2.047   4.095  0.2660 -0.4461 -0.4381
18161TIP3   OH275973   3.319   6.631   3.554 -0.4194 -0.2237  0.2629
18161TIP3    H175974   3.377   6.583   3.495  0.2157  0.6429  0.1785
18161TIP3    H275975   3.248   6.663   3.498 -1.6204 -2.2543  0.5569
18162TIP3   OH275976   2.433   1.341   4.350 -0.1346  0.3680  0.1572
18162TIP3    H175977   2.462   1.432   4.340 -2.2180  1.0054 -0.3327
18162TIP3    H275978   2.363   1.346   4.415  0.2578 -1.0218  0.7042
18163TIP3   OH275979   0.034   3.627  16.606 -0.3878 -0.1999 -0.0187
18163TIP3    H175980   0.058   3.558  16.668 -1.0354  1.1906  1.8495
18163TIP3    H275981  -0.056   3.651  16.631  0.1713  1.9759  0.0184
18164TIP3   OH275982   5.327   1.488   0.897 -0.1716 -0.1609  0.5016
18164TIP3    H175983   5.353   1.491   0.989  0.0499 -2.1454  0.5093
18164TIP3    H275984   5.380   1.557   0.855 -1.4332  1.8629  2.1113
18165TIP3   OH275985   5.059   1.425  14.258 -0.0831  0.1651  0.5264
18165TIP3    H175986   5.108   1.505  14.276  0.5183 -0.2051  0.5494
18165TIP3    H275987   5.116   1.354  14.288 -0.2441 -0.3227 -0.2928
18166TIP3   OH275988   3.225   0.453   3.177  0.1084 -0.0683 -0.5807
18166TIP3    H175989   3.289   0.501   3.229  0.1549 -1.5328  0.7376
18166TIP3    H275990   3.222   0.500   3.094  2.3273  0.4822 -0.3829
18167TIP3   OH275991   0.173   4.268  16.021  0.5742 -0.5883  0.1544
18167TIP3    H175992   0.208   4.179  16.032  0.6838 -0.4126  1.3696
18167TIP3    H275993   0.089   4.266  16.068  0.3142 -0.2108 -0.3003
18168TIP3   OH275994   1.562   0.214   1.873  0.0807  0.4734 -0.4396
18168TIP3    H175995   1.577   0.255   1.787  1.8490  1.5241  0.3437
18168TIP3    H275996   1.648   0.182   1.899 -0.8906 -1.9303 -0.0896
18169TIP3   OH275997   5.172   3.720  10.925  0.0518  0.2585  0.2877
18169TIP3    H175998   5.249   3.671  10.896  0.1393 -0.4881  1.7845
18169TIP3    H275999   5.207   3.806  10.949  0.2485  0.2871 -0.0881
18170TIP3   OH276000   5.979   3.401  13.600 -0.5382 -0.4965 -0.6608
18170TIP3    H176001   6.000   3.433  13.513  2.3059  2.6658  1.0642
18170TIP3    H276002   6.049   3.340  13.621 -0.7510 -0.6008 -0.2441
18171TIP3   OH276003   1.708   4.793   1.215  0.5832 -0.3621  0.3405
18171TIP3    H176004   1.703   4.726   1.283  1.4366 -0.0489  0.7185
18171TIP3    H276005   1.617   4.805   1.186  0.4009 -1.5060  0.4344
18172TIP3   OH276006   4.489   6.664   1.757 -0.0384  0.8610  0.2894
18172TIP3    H176007   4.553   6.700   1.696 -1.2529  0.8347 -1.0404
18172TIP3    H276008   4.473   6.734   1.820  0.4933  1.2520 -0.0103
18173TIP3   OH276009   6.766   1.992  16.105  0.0198 -0.2724  0.2132
18173TIP3    H176010   6.808   1.921  16.153  1.9765  1.2885  0.9043
18173TIP3    H276011   6.809   1.992  16.019  1.0600  0.9632  0.7184
18174TIP3   OH276012   0.269   3.194  16.843 -0.2443  0.1901 -0.3249
18174TIP3    H176013   0.222   3.121  16.884 -1.5048  0.9335 -0.4459
18174TIP3    H276014   0.359   3.184  16.874 -0.6135 -0.8460  0.4457
18175TIP3   OH276015   3.399   5.365   4.543  0.1323  0.1501 -0.0764
18175TIP3    H176016   3.468   5.426   4.567 -0.0848  0.1270  0.6386
18175TIP3    H276017   3.322   5.395   4.593 -0.2557 -0.0715 -0.5348
18176TIP3   OH276018   1.140   5.470  13.355  0.3168 -0.1263 -0.1050
18176TIP3    H176019   1.178   5.445  13.439 -0.0851 -0.1052  0.0781
18176TIP3    H276020   1.207   5.445  13.291 -0.0707 -1.6824  0.0729
18177TIP3   OH276021   5.271   5.710  11.781  0.2022  0.3487  0.1844
18177TIP3    H176022   5.339   5.656  11.821 -0.7570  0.2656  1.7395
18177TIP3    H276023   5.317   5.788  11.750  0.9157  0.5404  1.7077
18178TIP3   OH276024   5.761   0.145   1.989  0.0974  0.1859 -0.0382
18178TIP3    H176025   5.760   0.225   2.043 -0.2221  0.3421 -0.2735
18178TIP3    H276026   5.722   0.078   2.046 -0.3802  0.3852 -0.1259
18179TIP3   OH276027   1.423   6.507  14.724  0.7426  0.4062 -0.2665
18179TIP3    H176028   1.421   6.442  14.653  1.9714  0.1413 -0.0830
18179TIP3    H276029   1.354   6.569  14.703 -0.9012 -1.3411 -0.0966
18180TIP3   OH276030   6.663   4.519  15.564  0.0508  0.6606  0.6442
18180TIP3    H176031   6.647   4.441  15.511  0.1526  1.0981 -0.0511
18180TIP3    H276032   6.589   4.524  15.624  0.3064 -0.2527  1.0464
18181TIP3   OH276033   2.948   1.751   2.351  0.2255 -0.4173 -0.5268
18181TIP3    H176034   3.011   1.787   2.414  0.3051 -0.7162 -0.4379
18181TIP3    H276035   2.969   1.658   2.346 -1.5820 -0.9154  1.0820
18182TIP3   OH276036   3.672   0.017   2.198  0.6347 -0.2533  0.2796
18182TIP3    H176037   3.585   0.044   2.169  0.9777 -2.2281 -2.8530
18182TIP3    H276038   3.731   0.079   2.155  0.8411  0.9850  2.2731
18183TIP3   OH276039   1.811   3.733   3.126  0.2675 -0.3985  0.0937
18183TIP3    H176040   1.830   3.639   3.114 -0.3018 -0.6468  1.0672
18183TIP3    H276041   1.885   3.765   3.177  1.2872  0.0519 -1.6226
18184TIP3   OH276042   3.935   6.033   1.308 -0.1846 -0.1882  0.6393
18184TIP3    H176043   3.962   5.944   1.285  1.6591 -0.1612  2.5074
18184TIP3    H276044   3.940   6.035   1.404  1.1791  2.2957  0.5568
18185TIP3   OH276045   5.615   1.795   0.996  0.0819  0.3566 -0.9661
18185TIP3    H176046   5.683   1.860   1.015 -0.9050  0.5087  2.4106
18185TIP3    H276047   5.659   1.711   1.006 -0.3983  0.4305  2.3939
18186TIP3   OH276048   2.539   0.437  13.976 -0.3691  0.4573 -0.4744
18186TIP3    H176049   2.597   0.422  13.901  0.2629 -1.3789  0.3639
18186TIP3    H276050   2.589   0.496  14.033 -0.5175  1.1994 -1.1073
18187TIP3   OH276051   6.187   4.763  15.575 -0.1065 -0.2092  0.2427
18187TIP3    H176052   6.254   4.695  15.572 -0.2396 -0.2877 -1.5576
18187TIP3    H276053   6.182   4.796  15.485 -1.1547  1.0936  0.7574
18188TIP3   OH276054   5.497   5.589   4.689 -0.4146 -0.0093  0.1065
18188TIP3    H176055   5.505   5.588   4.593  1.3916  0.6676  0.2331
18188TIP3    H276056   5.461   5.503   4.710 -1.4201  0.0535 -1.2089
18189TIP3   OH276057   5.564   6.261  15.952  0.1568 -0.6479 -0.1621
18189TIP3    H176058   5.651   6.236  15.985  0.1984 -1.2554 -0.7111
18189TIP3    H276059   5.560   6.355  15.964 -0.0950 -0.9355  2.1817
18190TIP3   OH276060   6.398   5.976  16.486 -0.7602  0.7514  0.1413
18190TIP3    H176061   6.303   5.964  16.488 -0.8267  1.2769  0.1892
18190TIP3    H276062   6.411   6.059  16.441 -0.2632  0.1010 -0.9271
18191TIP3   OH276063   2.862   0.831  16.769  0.2098 -0.3420 -0.2102
18191TIP3    H176064   2.914   0.893  16.822 -1.7552 -0.1598  1.5556
18191TIP3    H276065   2.822   0.772  16.833  0.7001 -2.4226 -1.7665
18192TIP3   OH276066   5.368   6.451  15.395  0.2641  0.3687  0.0167
18192TIP3    H176067   5.344   6.486  15.481  0.3445 -0.3923  0.3523
18192TIP3    H276068   5.293   6.397  15.369  1.0396 -0.9547  0.4754
18193TIP3   OH276069   5.166   4.606  11.611  0.5565  0.4934 -0.0533
18193TIP3    H176070   5.259   4.611  11.587  0.7749 -0.9055  0.4298
18193TIP3    H276071   5.130   4.538  11.554 -0.3765  1.6054 -0.8194
18194TIP3   OH276072   5.657   6.536  13.890 -0.4406 -0.0669  0.2864
18194TIP3    H176073   5.681   6.549  13.798 -0.6003  0.1586  0.2775
18194TIP3    H276074   5.635   6.624  13.922  1.6601  0.1977  1.1277
18195TIP3   OH276075   0.580   1.979   0.544  0.4628 -0.1011  0.1983
18195TIP3    H176076   0.600   1.986   0.637 -1.9931 -1.0671  0.8390
18195TIP3    H276077   0.606   2.064   0.508  1.6787  0.1988  1.6799
18196TIP3   OH276078   4.264   1.998  14.638  0.4007  0.2051  0.4530
18196TIP3    H176079   4.357   1.998  14.657  0.6828  0.2284 -0.8565
18196TIP3    H276080   4.240   2.090  14.627  0.7746  0.0670 -1.7021
18197TIP3   OH276081   0.927   1.107  15.011 -0.1666 -0.2735  0.1435
18197TIP3    H176082   0.946   1.201  14.999  1.1394 -0.2925  1.9497
18197TIP3    H276083   0.843   1.095  14.966  0.2256  1.5044 -1.1544
18198TIP3   OH276084   4.869   1.206  16.589  0.1391  0.4954  0.8789
18198TIP3    H176085   4.796   1.267  16.592 -1.7104 -1.6157  0.3588
18198TIP3    H276086   4.895   1.203  16.497  1.9190  2.3504  1.2678
18199TIP3   OH276087   4.510   0.810   5.562  0.1824 -0.0856  0.3314
18199TIP3    H176088   4.508   0.902   5.589  0.2312 -0.0724  0.2891
18199TIP3    H276089   4.525   0.813   5.468  2.0132 -0.1933  0.6118
18200TIP3   OH276090   2.008   0.135   3.301  1.0102 -0.5724 -0.4579
18200TIP3    H176091   2.073   0.065   3.290  0.5260 -1.5098  2.3577
18200TIP3    H276092   2.060   0.216   3.302  2.1022 -1.2754  1.2703
18201TIP3   OH276093   0.190   1.131  15.488  0.1254  0.1303  0.2001
18201TIP3    H176094   0.166   1.168  15.404 -0.4749 -0.2787  0.1821
18201TIP3    H276095   0.127   1.169  15.550 -2.0124 -2.5615 -0.1838
18202TIP3   OH276096   5.525   4.842  17.172  0.3327 -0.8632 -0.2202
18202TIP3    H176097   5.461   4.787  17.218  0.7715 -1.0658  0.1529
18202TIP3    H276098   5.498   4.837  17.081  0.3172 -1.6429 -0.1808
18203TIP3   OH276099   1.194   2.607   3.141  0.0914  0.0405 -0.4711
18203TIP3    H176100   1.272   2.663   3.133  1.3709 -1.7840 -1.1909
18203TIP3    H276101   1.182   2.572   3.053 -1.6951  0.4684 -0.4061
18204TIP3   OH276102   4.263   6.240  15.041  0.3215 -0.4591 -0.3677
18204TIP3    H176103   4.348   6.285  15.041 -0.0978  0.4055  1.4257
18204TIP3    H276104   4.234   6.246  15.132 -1.3237 -1.4148 -0.8197
18205TIP3   OH276105   0.887   2.071  12.491 -0.2822  0.2119  0.0988
18205TIP3    H176106   0.941   2.060  12.413 -0.8652 -1.8523 -0.0619
18205TIP3    H276107   0.923   2.147  12.535  1.2819  0.2527 -1.1981
18206TIP3   OH276108   0.415   2.921   0.755  0.1952  0.3800  0.3770
18206TIP3    H176109   0.505   2.947   0.777 -0.0763  2.3658 -0.7693
18206TIP3    H276110   0.416   2.909   0.660 -0.8739  0.8922  0.2935
18207TIP3   OH276111   1.029   3.369   2.982  0.3141 -0.8035 -0.4692
18207TIP3    H176112   1.064   3.298   3.037 -0.1306 -0.1019  0.7419
18207TIP3    H276113   0.949   3.396   3.027  0.5341  0.5315 -0.8760
18208TIP3   OH276114   2.425   5.243  12.625  0.5561 -0.0294 -0.0580
18208TIP3    H176115   2.450   5.296  12.701  1.1177  0.1279 -0.3462
18208TIP3    H276116   2.400   5.158  12.662 -1.5320  0.8011  0.5135
18209TIP3   OH276117   0.839   0.614   0.770 -0.3217  0.4146 -0.6322
18209TIP3    H176118   0.841   0.520   0.752 -1.4934  0.2894 -0.1506
18209TIP3    H276119   0.918   0.630   0.821  0.0605 -0.2503 -1.0048
18210TIP3   OH276120   2.512   1.513   1.165 -0.5177 -0.0826 -1.1725
18210TIP3    H176121   2.516   1.425   1.202  0.2585  0.7356  0.7432
18210TIP3    H276122   2.427   1.547   1.193  0.0227  0.4984 -0.2283
18211TIP3   OH276123   1.746   1.560  11.829 -0.2679 -0.1474  0.7149
18211TIP3    H176124   1.827   1.570  11.778 -0.3819 -1.5033  0.2418
18211TIP3    H276125   1.688   1.628  11.794 -0.1678 -0.7358 -0.6480
18212TIP3   OH276126   4.946   0.637  14.163  0.6712 -0.7000  0.0386
18212TIP3    H176127   5.010   0.708  14.153 -0.4494  0.3384  0.1130
18212TIP3    H276128   4.890   0.644  14.085 -1.7149  0.8544  1.8382
18213TIP3   OH276129   4.678   3.856   4.077  0.0551 -0.0869 -0.2019
18213TIP3    H176130   4.599   3.823   4.034 -1.5262  1.2599  1.5755
18213TIP3    H276131   4.720   3.779   4.115 -1.2718 -0.6130  0.2064
18214TIP3   OH276132   4.881   2.454   1.154  0.6494 -0.2731  0.3641
18214TIP3    H176133   4.821   2.518   1.116  0.5659 -0.0190  0.9061
18214TIP3    H276134   4.885   2.383   1.091  1.8120  0.8863 -0.9037
18215TIP3   OH276135   4.889   4.709  15.964 -0.1177 -0.2390  0.1064
18215TIP3    H176136   4.920   4.791  15.924 -0.4800  0.9594  2.2492
18215TIP3    H276137   4.947   4.642  15.927  0.4836  1.0310 -1.3264
18216TIP3   OH276138   5.437   3.653  13.214  0.3793  0.0011 -0.0038
18216TIP3    H176139   5.425   3.589  13.143 -1.1962  0.3284 -0.0435
18216TIP3    H276140   5.349   3.686  13.232  0.7834  0.0138  2.0364
18217TIP3   OH276141   1.005   0.073  13.572  0.4195 -0.8080  0.2400
18217TIP3    H176142   0.956   0.153  13.553  1.7495  0.1386  0.6998
18217TIP3    H276143   0.973   0.044  13.657  0.3940 -0.3981  0.3690
18218TIP3   OH276144   1.447   1.475  15.700 -0.0072 -0.1732 -0.4570
18218TIP3    H176145   1.455   1.460  15.794  0.9559  0.0326 -0.4989
18218TIP3    H276146   1.354   1.463  15.681 -0.1132 -0.7461  0.4267
18219TIP3   OH276147   4.988   1.559  12.291  0.7187 -0.0582 -0.3941
18219TIP3    H176148   4.914   1.617  12.314  0.7075 -0.2021 -0.0582
18219TIP3    H276149   5.060   1.592  12.345  0.5683 -0.6959  0.1985
18220TIP3   OH276150   3.143   4.854  14.940 -0.0210  0.7546 -0.4544
18220TIP3    H176151   3.192   4.772  14.932 -0.0725  0.4734  1.6351
18220TIP3    H276152   3.114   4.874  14.851 -0.7272 -1.9473 -0.8839
18221TIP3   OH276153   3.211   3.689  12.868 -0.3122 -0.3061  0.5366
18221TIP3    H176154   3.134   3.633  12.868  0.7535 -1.8101  0.4660
18221TIP3    H276155   3.282   3.632  12.838  1.3728  0.2572  3.2908
18222TIP3   OH276156   5.760   4.349   0.565 -0.0439  0.0181 -0.1097
18222TIP3    H176157   5.766   4.445   0.565  0.0316  0.0182  0.3650
18222TIP3    H276158   5.785   4.324   0.654 -0.4778 -0.4176 -0.1105
18223TIP3   OH276159   1.861   0.304   4.497  0.5836 -0.2070  0.4153
18223TIP3    H176160   1.940   0.342   4.458  1.7039 -0.3015  2.5496
18223TIP3    H276161   1.886   0.283   4.587 -2.0341  0.2728  1.2918
18224TIP3   OH276162   0.735   0.769   1.056 -0.0082 -1.0144  0.2443
18224TIP3    H176163   0.737   0.858   1.021  1.4331 -1.2767 -0.3897
18224TIP3    H276164   0.647   0.759   1.091  0.2180  1.1385  1.5577
18225TIP3   OH276165   2.042   5.987  11.146  0.1799  0.4103  0.7031
18225TIP3    H176166   2.072   6.057  11.087 -0.6169  0.6429  0.5630
18225TIP3    H276167   2.112   5.978  11.210  0.5792  0.8914  0.3425
18226TIP3   OH276168   5.171   2.836   2.950 -0.4555 -0.0354 -0.7628
18226TIP3    H176169   5.140   2.924   2.930  1.7947  1.3679  1.6543
18226TIP3    H276170   5.235   2.817   2.880  0.5014  1.0611 -0.1967
18227TIP3   OH276171   5.667   2.879   2.869 -0.8619 -0.2344 -0.4277
18227TIP3    H176172   5.638   2.842   2.785  0.3505  0.1057 -1.0038
18227TIP3    H276173   5.617   2.960   2.878 -3.8458 -2.1408  1.0317
18228TIP3   OH276174   5.602   6.457   4.524 -0.6867  0.2732  0.6242
18228TIP3    H176175   5.572   6.367   4.529  0.2625 -0.0737  0.1382
18228TIP3    H276176   5.606   6.487   4.615 -1.0004 -0.1652  0.7805
18229TIP3   OH276177   1.521   3.775   2.873  0.3297  0.3576 -0.0209
18229TIP3    H176178   1.464   3.852   2.882  1.5394  1.2908 -0.1554
18229TIP3    H276179   1.469   3.712   2.823  0.1219  1.9588 -1.8824
18230TIP3   OH276180   5.163   1.389  12.139 -0.3411 -0.6480 -0.1872
18230TIP3    H176181   5.083   1.436  12.117  1.2460  1.7727 -1.0061
18230TIP3    H276182   5.218   1.454  12.181  1.0216 -2.4111  0.8204
18231TIP3   OH276183   0.758   2.694  12.475  0.1387 -0.5278 -0.3805
18231TIP3    H176184   0.768   2.711  12.569 -1.2696 -2.1913  0.0894
18231TIP3    H276185   0.691   2.626  12.470  0.6101 -0.8554 -2.5735
18232TIP3   OH276186   4.007   4.765  15.364  0.3434  0.2558  0.0065
18232TIP3    H176187   4.043   4.853  15.375  0.0606  0.4035 -0.2428
18232TIP3    H276188   3.922   4.769  15.408  0.2437  0.1622 -0.1792
18233TIP3   OH276189   2.235   2.210  11.983 -0.0049 -0.1954  0.0499
18233TIP3    H176190   2.310   2.188  11.928  0.7798  0.2881  0.9020
18233TIP3    H276191   2.166   2.236  11.922  0.4600 -0.8320 -0.7432
18234TIP3   OH276192   6.075   3.458  15.591 -0.6470 -0.1495  0.0615
18234TIP3    H176193   6.101   3.434  15.502 -0.5033  1.5752 -0.3767
18234TIP3    H276194   5.983   3.432  15.597 -0.3963 -1.1435 -0.2543
18235TIP3   OH276195   6.489   5.562   3.450  0.3810  0.5106  0.4489
18235TIP3    H176196   6.545   5.627   3.407  1.0890 -0.4605 -0.1258
18235TIP3    H276197   6.523   5.556   3.539  0.4371  0.7804  0.4472
18236TIP3   OH276198   2.462   4.669  12.229 -0.0633 -0.2331  0.4650
18236TIP3    H176199   2.476   4.594  12.287 -0.1903  0.9802  2.1039
18236TIP3    H276200   2.515   4.650  12.152 -0.6624 -2.3449  0.5468
18237TIP3   OH276201   1.713   0.968   4.156  0.1787  0.0456 -0.5308
18237TIP3    H176202   1.731   1.013   4.073 -0.9416 -0.4143 -1.0265
18237TIP3    H276203   1.624   0.994   4.179  0.3698 -0.0888  0.3668
18238TIP3   OH276204   4.994   0.780  12.711  0.2655 -0.6781 -0.5421
18238TIP3    H176205   4.950   0.865  12.724  3.3552  0.8111  0.7252
18238TIP3    H276206   4.934   0.731  12.655 -1.9218  2.0936 -0.7763
18239TIP3   OH276207   6.580   0.886  10.509 -0.3923 -0.3984  0.3831
18239TIP3    H176208   6.505   0.896  10.567  0.9670  0.8969  1.9913
18239TIP3    H276209   6.656   0.885  10.567  0.8362 -2.0320 -1.1769
18240TIP3   OH276210   5.048   5.307  11.843  0.2464  0.0220  0.1424
18240TIP3    H176211   5.137   5.299  11.879  0.6735  2.1505 -0.3696
18240TIP3    H276212   5.040   5.233  11.783  0.9066 -1.3955  1.7445
18241TIP3   OH276213   6.615   3.810   1.510 -0.7132  1.0158 -0.6256
18241TIP3    H176214   6.660   3.863   1.576  1.1850 -1.0682 -0.2082
18241TIP3    H276215   6.522   3.830   1.523 -0.1198  3.3171  0.2931
18242TIP3   OH276216   1.018   2.011  14.578  0.3882  0.4374 -0.1900
18242TIP3    H176217   1.017   1.941  14.644  1.2316 -0.0320 -0.6626
18242TIP3    H276218   0.948   2.070  14.605  1.8395  1.1853  2.1365
18243TIP3   OH276219   4.531   1.865  14.751  0.1386  0.2026 -0.0024
18243TIP3    H176220   4.494   1.889  14.836 -1.4308  1.2357 -0.9459
18243TIP3    H276221   4.513   1.771  14.743  2.0963 -0.3475  1.6556
18244TIP3   OH276222   3.412   0.312  11.037  0.4009 -0.4127 -0.5982
18244TIP3    H176223   3.330   0.264  11.032  0.6573 -0.8869 -0.2271
18244TIP3    H276224   3.389   0.402  11.014 -0.1048 -0.6763 -1.1352
18245TIP3   OH276225   5.303   2.916   4.510  0.3710  0.2711  0.2088
18245TIP3    H176226   5.234   2.900   4.445  0.3389  0.6873  0.1434
18245TIP3    H276227   5.304   2.835   4.563 -1.2855  0.8752  1.2310
18246TIP3   OH276228   1.280   1.898   2.775  0.3692  0.2803  0.1774
18246TIP3    H176229   1.333   1.955   2.719  2.3232  0.4684  2.1575
18246TIP3    H276230   1.322   1.812   2.767  0.4370  0.2305  1.0492
18247TIP3   OH276231   2.329   0.347  16.220  0.0727 -0.3937 -0.2435
18247TIP3    H176232   2.403   0.354  16.159 -0.5791 -1.5189 -1.1858
18247TIP3    H276233   2.338   0.423  16.277  1.6341 -0.2109 -0.7123
18248TIP3   OH276234   3.592   1.366  13.044 -0.0899 -0.3777 -0.1999
18248TIP3    H176235   3.608   1.440  13.102  1.2260 -1.0469  0.3132
18248TIP3    H276236   3.555   1.298  13.101 -0.5729 -0.3925 -0.5217
18249TIP3   OH276237   0.056   3.904   1.433 -0.6996  0.1097  0.4124
18249TIP3    H176238  -0.024   3.858   1.460 -1.1387 -0.1974 -1.3033
18249TIP3    H276239   0.092   3.849   1.363 -0.0145  1.2214 -0.1228
18250TIP3   OH276240   3.418   6.623  13.816 -0.1334 -0.3762 -0.3167
18250TIP3    H176241   3.388   6.534  13.800 -1.9137  0.3387 -1.1712
18250TIP3    H276242   3.384   6.645  13.903  1.6099 -1.0335  0.5579
18251TIP3   OH276243   4.947   5.770  14.732  0.4085  0.1811  0.1718
18251TIP3    H176244   5.004   5.693  14.743 -0.4449 -0.4324  0.4204
18251TIP3    H276245   5.000   5.833  14.684  1.2319 -0.4533  0.2354
18252TIP3   OH276246   3.476   3.402  16.855 -0.4266  0.0299  0.5430
18252TIP3    H176247   3.548   3.349  16.889  0.1896  0.1606 -0.5162
18252TIP3    H276248   3.519   3.482  16.823 -1.1734  0.5526  0.8417
18253TIP3   OH276249   1.100   0.868  10.973 -0.0894  0.5854 -0.1322
18253TIP3    H176250   1.109   0.922  11.052  2.2929  1.2549 -0.8079
18253TIP3    H276251   1.185   0.826  10.964 -0.7203 -0.3700 -1.7212
18254TIP3   OH276252   4.433   4.223   1.721  0.0325 -0.0317  0.2340
18254TIP3    H176253   4.413   4.143   1.673  1.0631  0.1968 -0.5933
18254TIP3    H276254   4.412   4.293   1.660 -0.8060  0.3371  0.9374
18255TIP3   OH276255   6.614   5.228  15.329  0.3703 -0.5347 -0.1155
18255TIP3    H176256   6.615   5.312  15.374  0.7153 -0.4185 -0.3405
18255TIP3    H276257   6.677   5.174  15.378 -1.1978 -1.2543  1.1578
18256TIP3   OH276258   6.172   2.480   1.518 -0.0675  1.0573 -0.3368
18256TIP3    H176259   6.078   2.464   1.528  0.2887  0.5363  2.3685
18256TIP3    H276260   6.197   2.428   1.441 -1.6921 -0.0677 -0.1262
18257TIP3   OH276261   3.009   4.820   5.425  0.0532 -0.1812 -0.5042
18257TIP3    H176262   2.956   4.742   5.410 -0.7771  0.9416 -4.0363
18257TIP3    H276263   3.094   4.798   5.388 -0.0961  0.4225 -1.2385
18258TIP3   OH276264   4.088   1.884   4.723  0.0419 -0.3876 -0.1884
18258TIP3    H176265   3.997   1.909   4.737 -0.5732 -1.0111 -2.8006
18258TIP3    H276266   4.091   1.791   4.744  0.3512 -0.1075  1.0310
18259TIP3   OH276267   5.553   2.047  16.816 -0.5670 -0.1302 -0.2320
18259TIP3    H176268   5.541   2.053  16.721 -0.7785 -0.6702 -0.2394
18259TIP3    H276269   5.549   2.138  16.846 -0.0861  0.0767 -0.7883
18260TIP3   OH276270   3.014   3.510  12.012  0.2221  0.3095 -0.3331
18260TIP3    H176271   3.072   3.443  12.047 -0.7209 -0.6297 -0.5224
18260TIP3    H276272   3.019   3.500  11.917  0.2086  0.6203 -0.3667
18261TIP3   OH276273   5.951   3.057   4.769 -0.3537 -0.0447  0.1840
18261TIP3    H176274   6.000   3.139   4.769 -1.5134  0.6711  0.9888
18261TIP3    H276275   5.979   3.012   4.849  0.3357 -0.4766 -0.2933
18262TIP3   OH276276   2.286   2.501  12.829  0.5470 -0.1049 -0.5017
18262TIP3    H176277   2.281   2.578  12.773  2.2378 -0.2784 -0.9275
18262TIP3    H276278   2.351   2.445  12.787  4.1462  1.0836  3.1357
18263TIP3   OH276279   5.392   2.760  15.991  0.0598 -0.5059  0.0119
18263TIP3    H176280   5.478   2.760  15.948 -0.2044  0.3919 -0.5290
18263TIP3    H276281   5.407   2.808  16.073 -0.0458  0.1734 -0.3561
18264TIP3   OH276282   0.076   6.761  11.878 -0.6890  0.0222 -0.1136
18264TIP3    H176283   0.129   6.773  11.800 -0.4226 -0.4079 -0.0035
18264TIP3    H276284   0.071   6.666  11.889 -1.0225  0.0713  0.1885
18265TIP3   OH276285   2.655   2.148   5.425  0.0835  0.2963  0.4391
18265TIP3    H176286   2.689   2.137   5.336  3.2082  0.2305  1.5856
18265TIP3    H276287   2.565   2.177   5.412  0.1253 -0.7717 -2.7352
18266TIP3   OH276288   1.231   5.577  17.149 -0.1503  0.0580  0.3733
18266TIP3    H176289   1.179   5.497  17.140 -0.0742 -0.1986  2.0791
18266TIP3    H276290   1.180   5.645  17.105 -0.0408 -0.9852 -1.4246
18267TIP3   OH276291   3.556   6.098   5.674 -0.4410  0.4533  0.3286
18267TIP3    H176292   3.569   6.151   5.752  1.8565  0.3858  0.0313
18267TIP3    H276293   3.528   6.012   5.708  1.6232  0.0862  1.1541
18268TIP3   OH276294   5.659   0.902   3.929 -0.1700 -0.5677 -0.0390
18268TIP3    H176295   5.652   0.959   3.852  0.5529 -1.7094 -0.9783
18268TIP3    H276296   5.753   0.889   3.941 -0.2761 -0.3042  1.1188
18269TIP3   OH276297   0.571   4.780  15.789  0.0804  0.1552  0.2096
18269TIP3    H176298   0.573   4.824  15.703  0.4695  0.9372  0.6123
18269TIP3    H276299   0.591   4.689  15.770 -1.8095 -0.0912 -0.7787
18270TIP3   OH276300   3.963   5.001   3.487  0.7811  0.0094  0.4336
18270TIP3    H176301   4.049   5.041   3.475  0.8047 -0.0510  0.4062
18270TIP3    H276302   3.980   4.907   3.492  0.6590 -0.0405 -0.1020
18271TIP3   OH276303   5.391   4.972  15.770  0.6850 -0.1020 -0.0653
18271TIP3    H176304   5.420   5.055  15.732  0.2405 -0.9317 -2.2965
18271TIP3    H276305   5.454   4.907  15.739 -0.0256 -0.8892  0.1081
18272TIP3   OH276306   1.682   4.800   2.044 -0.2627  0.0383  0.0002
18272TIP3    H176307   1.597   4.756   2.034 -0.0782 -0.2702 -0.2115
18272TIP3    H276308   1.672   4.852   2.123 -0.2058 -1.0428  0.7297
18273TIP3   OH276309   3.879   4.425  16.185  0.2034  0.1602  0.1177
18273TIP3    H176310   3.930   4.489  16.236  0.3117 -0.7508  1.1645
18273TIP3    H276311   3.918   4.428  16.098  1.7000 -0.1299  0.7634
18274TIP3   OH276312   3.793   0.096   6.157 -0.4526  0.0752 -0.4445
18274TIP3    H176313   3.807   0.031   6.089 -0.0008 -0.3268  0.0307
18274TIP3    H276314   3.702   0.124   6.146 -1.5686 -2.7329  1.1690
18275TIP3   OH276315   5.694   4.905  15.008  0.5759  0.6111 -0.1424
18275TIP3    H176316   5.622   4.962  15.034 -1.1773 -0.6131 -2.1643
18275TIP3    H276317   5.725   4.942  14.925  0.5439 -0.3730 -0.5952
18276TIP3   OH276318   4.929   1.178   3.680  0.0195 -0.6242  0.3449
18276TIP3    H176319   4.835   1.173   3.694 -0.0331 -0.0461  0.1982
18276TIP3    H276320   4.958   1.086   3.682 -0.4466 -0.7588  1.0217
18277TIP3   OH276321   1.958   3.404  13.718 -0.9711 -0.2338  1.0919
18277TIP3    H176322   1.989   3.493  13.698 -2.8611  0.2460  0.2308
18277TIP3    H276323   1.869   3.416  13.750 -1.2864 -1.8325  0.8448
18278TIP3   OH276324   4.951   2.417  12.541  0.0760 -0.1244 -0.8374
18278TIP3    H176325   4.914   2.333  12.568  0.3495  0.4400  1.4634
18278TIP3    H276326   4.877   2.477  12.541  0.2366  0.0820 -0.3674
18279TIP3   OH276327   1.952   2.603   1.998 -0.4671  0.2027 -0.1630
18279TIP3    H176328   2.036   2.640   1.975 -0.4980 -0.4781 -1.4256
18279TIP3    H276329   1.919   2.658   2.070  1.7708 -0.5109  1.4543
18280TIP3   OH276330   2.978   4.875  10.764 -0.6182  0.2814  0.4372
18280TIP3    H176331   3.025   4.857  10.682  0.4890  0.3512  1.0353
18280TIP3    H276332   2.901   4.818  10.761 -1.5109  1.5428 -1.4291
18281TIP3   OH276333   1.362   1.956  16.915  0.5951  0.0508  0.4948
18281TIP3    H176334   1.438   1.929  16.967  1.0226 -0.7904 -0.5478
18281TIP3    H276335   1.312   1.876  16.902  1.1926 -0.0277 -1.5220
18282TIP3   OH276336   5.857   3.745   1.307 -0.4364 -0.1259  0.7975
18282TIP3    H176337   5.848   3.839   1.295 -2.9303 -0.5020 -0.4924
18282TIP3    H276338   5.768   3.711   1.303  0.5342 -2.7118 -0.1296
18283TIP3   OH276339   2.120   3.177   2.630  0.5528 -0.7362  0.1877
18283TIP3    H176340   2.061   3.223   2.570 -0.3182  0.2025  1.7038
18283TIP3    H276341   2.207   3.207   2.606  0.1322  0.3977  0.0078
18284TIP3   OH276342   0.955   0.215   5.986  0.1478 -0.2324  0.0936
18284TIP3    H176343   0.999   0.280   5.931 -1.4206 -1.3414 -2.5694
18284TIP3    H276344   0.912   0.266   6.055  0.9505  1.3070 -0.5285
18285TIP3   OH276345   1.432   3.821  15.946 -0.3116 -0.3469 -0.2790
18285TIP3    H176346   1.357   3.762  15.935 -0.0709 -0.3011 -2.3332
18285TIP3    H276347   1.508   3.763  15.950 -0.5262 -0.5126  3.4720
18286TIP3   OH276348   1.874   2.564  15.300 -0.2398 -0.1984 -0.1944
18286TIP3    H176349   1.958   2.591  15.339 -0.5500 -1.2553  1.2658
18286TIP3    H276350   1.884   2.469  15.286 -2.6238 -1.1709  3.8612
18287TIP3   OH276351   1.408   0.571   1.502 -0.1632  0.7780 -0.0058
18287TIP3    H176352   1.367   0.577   1.415 -1.3232  0.8550  0.5347
18287TIP3    H276353   1.428   0.662   1.524  2.2644  0.5554 -1.1764
18288TIP3   OH276354   3.443   1.529  15.564  0.1453  0.3478 -0.4274
18288TIP3    H176355   3.458   1.569  15.478 -0.7612 -0.5852 -1.0307
18288TIP3    H276356   3.415   1.602  15.619  1.8826  1.1758 -0.5976
18289TIP3   OH276357   6.093   5.295   0.354  0.0367 -0.6370  0.4068
18289TIP3    H176358   6.136   5.261   0.433  1.6626  0.4131  0.0112
18289TIP3    H276359   6.153   5.362   0.322 -1.5384  0.2876 -0.6581
18290TIP3   OH276360   1.708   2.785  14.964 -0.1943  0.1242  0.5692
18290TIP3    H176361   1.704   2.690  14.980 -0.0318  0.1169  0.5700
18290TIP3    H276362   1.714   2.793  14.869 -0.4957  0.1447  0.5508
18291TIP3   OH276363   2.421   1.510   2.651  0.3613 -0.3810 -0.3128
18291TIP3    H176364   2.500   1.553   2.618 -0.5538  1.8334  0.2572
18291TIP3    H276365   2.406   1.551   2.736 -1.5128 -0.6276 -0.5129
18292TIP3   OH276366   3.515   3.371  10.578 -0.0579  0.0295 -0.2409
18292TIP3    H176367   3.458   3.333  10.511 -0.3572 -0.6164  0.3842
18292TIP3    H276368   3.579   3.422  10.528 -0.4437 -0.2310 -1.0081
18293TIP3   OH276369   6.790   2.252   3.160  0.0708 -0.4757  0.3230
18293TIP3    H176370   6.821   2.340   3.139 -0.0893 -1.1502 -3.0619
18293TIP3    H276371   6.725   2.264   3.229 -1.2436  2.2596 -1.3295
18294TIP3   OH276372   1.206   0.347  13.200  0.2812 -0.1802  0.2181
18294TIP3    H176373   1.212   0.291  13.122  1.5074 -0.1413  0.2665
18294TIP3    H276374   1.297   0.372  13.218 -0.1923  1.3892  0.5163
18295TIP3   OH276375   0.539   3.120  16.908  0.7464 -0.0213 -0.0265
18295TIP3    H176376   0.583   3.191  16.955  0.6511  1.7045 -2.4279
18295TIP3    H276377   0.594   3.105  16.831 -1.0767 -0.1190 -1.3382
18296TIP3   OH276378   1.701   3.354   1.722 -0.2892 -0.7253 -0.2521
18296TIP3    H176379   1.607   3.364   1.708 -0.4814 -1.5972  0.3484
18296TIP3    H276380   1.742   3.411   1.657 -1.2675  1.7053  1.1709
18297TIP3   OH276381   5.003   6.456  11.483  0.7363 -0.0208  0.0132
18297TIP3    H176382   5.095   6.479  11.488  0.9493 -1.1777  2.1822
18297TIP3    H276383   4.985   6.445  11.390  2.6015  0.8792 -0.4695
18298TIP3   OH276384   1.013   0.990  15.275 -0.4989  0.2315 -0.1228
18298TIP3    H176385   0.972   1.076  15.289  1.1817  1.2478 -1.2401
18298TIP3    H276386   0.983   0.963  15.189 -0.3785  0.0613 -0.1104
18299TIP3   OH276387   4.008   6.504  14.521 -0.5723 -0.4463  0.5060
18299TIP3    H176388   3.964   6.572  14.573 -1.5300 -2.1020  1.9069
18299TIP3    H276389   4.101   6.517  14.537 -0.7020  0.9371  0.2315
18300TIP3   OH276390   3.423   6.566   2.142 -0.3285 -0.3970  0.2618
18300TIP3    H176391   3.407   6.660   2.137  0.1802 -0.2665  1.0553
18300TIP3    H276392   3.335   6.527   2.143 -0.5380  0.0248 -0.7294
18301TIP3   OH276393   0.892   1.169  12.040  0.1817 -0.2236  0.5550
18301TIP3    H176394   0.920   1.247  12.088  2.2908 -0.6044  0.0119
18301TIP3    H276395   0.945   1.170  11.960 -1.4077 -1.0007 -0.5286
18302TIP3   OH276396   2.836   1.705   0.944  0.0265  0.2056  0.4438
18302TIP3    H176397   2.803   1.741   1.027 -0.8624 -0.9687  0.6126
18302TIP3    H276398   2.769   1.641   0.917  1.1869 -0.7425 -0.2421
18303TIP3   OH276399   5.879   5.031   2.609  0.4354 -0.2857 -0.5820
18303TIP3    H176400   5.857   4.951   2.658  2.6693 -0.5423  0.0642
18303TIP3    H276401   5.812   5.094   2.636 -0.3906 -1.4449  0.1574
18304TIP3   OH276402   1.982   5.236   5.541 -0.3888  0.4115 -0.5487
18304TIP3    H176403   1.911   5.299   5.530 -1.1728 -0.2073  0.8139
18304TIP3    H276404   1.952   5.178   5.611  0.1916 -1.6533 -1.9470
18305TIP3   OH276405   4.548   2.485  17.062 -0.3077 -0.3501  0.2668
18305TIP3    H176406   4.626   2.469  17.115  0.4266  1.1775 -0.3195
18305TIP3    H276407   4.520   2.573  17.088 -2.1473 -1.0683  0.8402
18306TIP3   OH276408   0.802   4.305   2.341 -0.3559  0.0259  0.5117
18306TIP3    H176409   0.895   4.295   2.360 -0.5098 -1.1491  0.6566
18306TIP3    H276410   0.787   4.251   2.264 -0.5238  1.7895 -0.7298
18307TIP3   OH276411   2.885   4.061  11.423  0.0705  0.1281 -0.4972
18307TIP3    H176412   2.799   4.091  11.453  0.8996  2.2165 -0.1169
18307TIP3    H276413   2.873   4.045  11.330 -1.0312 -0.7737 -0.2186
18308TIP3   OH276414   2.919   1.935  11.269 -0.0801  0.1831 -0.3832
18308TIP3    H176415   2.945   2.015  11.314  0.4848  1.0463 -2.2087
18308TIP3    H276416   2.980   1.868  11.301  3.1604  1.7346 -3.0718
18309TIP3   OH276417   1.009   4.419  14.877  0.4026 -0.4284  0.4969
18309TIP3    H176418   1.056   4.343  14.910 -0.6849 -1.3843 -0.0984
18309TIP3    H276419   1.064   4.452  14.806  0.3683 -1.3073  0.0504
18310TIP3   OH276420   6.813   1.739  13.956  0.0600  0.3143  0.5855
18310TIP3    H176421   6.895   1.747  13.906 -0.7865 -0.7356 -1.0103
18310TIP3    H276422   6.758   1.682  13.903 -0.3957 -1.9650  3.3871
18311TIP3   OH276423   1.739   2.370  15.532 -0.9881 -0.5021  0.6143
18311TIP3    H176424   1.783   2.453  15.511  0.1482 -0.9096  1.3371
18311TIP3    H276425   1.650   2.381  15.499 -0.0352 -0.0950 -1.9122
18312TIP3   OH276426   0.869   5.401  13.359  0.1074  0.5381  0.2524
18312TIP3    H176427   0.959   5.430  13.341 -0.2129  1.0945 -0.4645
18312TIP3    H276428   0.814   5.474  13.332 -0.6997 -0.5992 -1.2458
18313TIP3   OH276429   2.926   5.375  13.497  0.2895  0.3712  0.3351
18313TIP3    H176430   2.873   5.343  13.569 -0.5095 -1.9655 -1.2229
18313TIP3    H276431   2.875   5.356  13.418  2.3194  0.3361 -1.0329
18314TIP3   OH276432   1.769   2.173   4.759 -0.2395 -0.0792 -0.1303
18314TIP3    H176433   1.803   2.226   4.830 -0.2771 -0.5382  0.2333
18314TIP3    H276434   1.690   2.132   4.795  0.3404 -1.1707 -0.0729
18315TIP3   OH276435   4.327   5.190  15.004 -0.9227  0.6746 -0.1817
18315TIP3    H176436   4.409   5.169  14.960  0.7533  1.1509  2.5959
18315TIP3    H276437   4.278   5.108  15.004 -0.4125  0.3600 -1.8018
18316TIP3   OH276438   1.275   2.849  14.695 -0.3010 -0.8452  0.1550
18316TIP3    H176439   1.324   2.823  14.772 -2.1311 -2.0982  0.9428
18316TIP3    H276440   1.257   2.942  14.708  1.7332 -0.3919 -0.1078
18317TIP3   OH276441   2.065   2.695   1.055 -0.6087  0.2310 -0.1699
18317TIP3    H176442   2.083   2.729   1.143 -1.6951  0.5984 -0.0755
18317TIP3    H276443   1.979   2.653   1.063  0.0488 -1.2415 -0.6478
18318TIP3   OH276444   0.580   6.654   3.485  0.5467  0.3227 -0.6007
18318TIP3    H176445   0.655   6.684   3.434  1.3962 -0.3708  0.2208
18318TIP3    H276446   0.528   6.602   3.424  0.3018  1.4780 -1.3916
18319TIP3   OH276447   5.215   1.946  14.500 -0.5362  0.2329 -0.7045
18319TIP3    H176448   5.272   2.020  14.521  1.0212 -1.3557  0.8497
18319TIP3    H276449   5.128   1.974  14.527  0.4461  0.5642  2.3289
18320TIP3   OH276450   5.111   1.755   0.227  0.7437 -0.0499 -0.1815
18320TIP3    H176451   5.180   1.690   0.242  1.5627  1.0504  0.8747
18320TIP3    H276452   5.071   1.728   0.144  1.5509 -1.4819 -0.1243
18321TIP3   OH276453   4.472   1.498   6.244 -0.0143 -0.3869 -0.3319
18321TIP3    H176454   4.477   1.578   6.296  2.4645 -0.1549 -0.8205
18321TIP3    H276455   4.381   1.494   6.214 -0.6572  1.1954  1.3158
18322TIP3   OH276456   0.017   5.459   1.101 -0.0477  0.6779  0.3838
18322TIP3    H176457  -0.023   5.389   1.152 -0.6825  1.8816  1.5773
18322TIP3    H276458  -0.001   5.436   1.010  0.4231 -1.0931  0.7276
18323TIP3   OH276459   3.712   3.254   5.199 -0.1863  0.6520  0.6117
18323TIP3    H176460   3.714   3.171   5.152  0.9408  1.1404 -0.2311
18323TIP3    H276461   3.707   3.320   5.130  0.1046  1.3170  1.2239
18324TIP3   OH276462   4.446   1.093  12.029 -0.3396  0.2741  0.1487
18324TIP3    H176463   4.416   1.004  12.045  1.3021 -0.2755  0.1869
18324TIP3    H276464   4.541   1.087  12.022 -0.2320  1.9563 -0.2690
18325TIP3   OH276465   3.599   3.829  11.633 -0.2604 -0.0237  0.2467
18325TIP3    H176466   3.528   3.854  11.692 -0.4250 -1.0952  0.5209
18325TIP3    H276467   3.590   3.734  11.624 -0.1822  0.1242 -1.4429
18326TIP3   OH276468   3.284   0.452   5.165 -0.3236 -1.0533  0.4252
18326TIP3    H176469   3.281   0.358   5.149  0.2136 -1.0207  0.0948
18326TIP3    H276470   3.334   0.487   5.090 -1.2689 -0.4035  0.0887
18327TIP3   OH276471   4.758   3.673   3.395  0.2032 -0.0827 -0.6900
18327TIP3    H176472   4.792   3.706   3.478  0.6882 -0.5883 -0.6800
18327TIP3    H276473   4.828   3.691   3.332  0.2427 -0.5609 -0.7918
18328TIP3   OH276474   5.177   6.346  16.483  0.0395 -0.2293 -0.1950
18328TIP3    H176475   5.264   6.369  16.453  0.4993 -1.4664  0.1735
18328TIP3    H276476   5.164   6.255  16.456 -1.4916  0.2101 -1.0428
18329TIP3   OH276477   2.191   1.611   2.065 -0.1102 -0.0232  0.3728
18329TIP3    H176478   2.112   1.660   2.089  0.3762  0.0839  1.8088
18329TIP3    H276479   2.158   1.532   2.024 -0.9804 -0.0592  1.1245
18330TIP3   OH276480   5.141   1.133   2.927  0.6196 -0.0085  0.2972
18330TIP3    H176481   5.215   1.075   2.945  1.4360  0.9337  0.0520
18330TIP3    H276482   5.086   1.127   3.005 -0.3195 -2.5872 -0.5068
18331TIP3   OH276483   2.576   4.009   6.317 -0.3206 -0.0968 -0.4360
18331TIP3    H176484   2.540   4.063   6.247  0.7976 -1.2680 -1.9648
18331TIP3    H276485   2.669   4.030   6.319 -0.1861 -0.7038  0.1193
18332TIP3   OH276486   0.040   5.079   0.252  0.4282 -0.0026  0.5824
18332TIP3    H176487   0.040   5.081   0.348  0.7852 -0.1610  0.5884
18332TIP3    H276488   0.129   5.051   0.229  0.3553  0.0738  0.2043
18333TIP3   OH276489   1.431   1.352   4.306  0.2984 -0.1667  0.3345
18333TIP3    H176490   1.350   1.397   4.284 -0.3968 -2.5924 -2.4036
18333TIP3    H276491   1.488   1.365   4.231  1.6013 -0.3804  1.2667
18334TIP3   OH276492   4.836   2.311  14.827  0.2251  0.6077 -0.1195
18334TIP3    H176493   4.782   2.300  14.905 -0.1873  1.1553 -0.3287
18334TIP3    H276494   4.781   2.360  14.766 -0.3474 -1.8202 -1.6534
18335TIP3   OH276495   1.297   4.903   2.497 -0.5076  0.3283  0.2051
18335TIP3    H176496   1.280   4.846   2.572 -0.8940  0.3360  0.1251
18335TIP3    H276497   1.320   4.987   2.535 -2.0985  0.7285  0.3106
18336TIP3   OH276498   4.451   6.703   2.191  0.2802 -0.7579 -0.0269
18336TIP3    H176499   4.384   6.648   2.231 -1.1787 -0.9261 -2.5980
18336TIP3    H276500   4.524   6.643   2.171 -0.0782 -1.1803 -0.0616
18337TIP3   OH276501   0.964   0.988   0.201  0.0059 -0.7214 -0.3192
18337TIP3    H176502   0.950   0.941   0.118  0.3951  1.3242 -1.5917
18337TIP3    H276503   0.876   1.015   0.228  0.2019  1.9245 -2.1264
18338TIP3   OH276504   6.606   4.389  15.960  0.0112 -0.3163 -0.3277
18338TIP3    H176505   6.641   4.477  15.942 -0.8015 -0.3953 -2.4677
18338TIP3    H276506   6.574   4.394  16.050 -0.1035  1.6304 -0.4501
18339TIP3   OH276507   5.857   1.169  16.006 -0.0051  0.0670  0.2472
18339TIP3    H176508   5.937   1.159  15.955 -0.1321 -1.2438  0.2894
18339TIP3    H276509   5.793   1.113  15.963  0.2297 -2.0669  2.5154
18340TIP3   OH276510   0.311   0.323  11.437 -0.4019 -0.2611  0.3849
18340TIP3    H176511   0.283   0.393  11.495  1.2829 -0.1759  1.1112
18340TIP3    H276512   0.406   0.326  11.439 -0.3081 -0.3675 -2.2661
18341TIP3   OH276513   2.879   6.504   3.653 -0.2662  0.5092  0.7610
18341TIP3    H176514   2.800   6.553   3.673 -0.6579  0.3800 -0.4469
18341TIP3    H276515   2.921   6.552   3.582  0.3143  0.1289  0.8393
18342TIP3   OH276516   3.640   3.537  11.487 -0.0329 -0.0814 -0.1150
18342TIP3    H176517   3.548   3.551  11.462 -0.0500  0.2504  0.1264
18342TIP3    H276518   3.649   3.442  11.495 -0.4175 -0.0994  0.0974
18343TIP3   OH276519   1.614   0.387   1.637 -0.7764 -0.1984  0.0302
18343TIP3    H176520   1.523   0.418   1.631 -0.5372  0.2048 -1.5213
18343TIP3    H276521   1.658   0.427   1.562  0.2350 -1.9585 -0.3218
18344TIP3   OH276522   1.100   2.977   1.206 -0.4386  0.4215 -0.1475
18344TIP3    H176523   1.118   2.926   1.127  1.4727  2.1157 -0.8513
18344TIP3    H276524   1.100   2.912   1.276  5.3772 -0.3480 -0.5477
18345TIP3   OH276525   6.522   4.211  13.952 -0.2991  0.0344 -0.6439
18345TIP3    H176526   6.518   4.306  13.963 -2.0600 -0.0390 -0.5146
18345TIP3    H276527   6.546   4.178  14.039 -2.7871  0.1876  0.1408
18346TIP3   OH276528   3.534   0.214  14.156 -0.0760 -0.9552  0.4430
18346TIP3    H176529   3.522   0.186  14.066  0.7615 -1.0419  0.3535
18346TIP3    H276530   3.466   0.280  14.170 -0.1153 -0.8352 -0.2975
18347TIP3   OH276531   0.379   3.847   0.528  0.3707  0.0137  0.3865
18347TIP3    H176532   0.372   3.776   0.592  0.6143 -0.0833  0.3011
18347TIP3    H276533   0.289   3.881   0.521  0.4362  0.3851  1.1975
18348TIP3   OH276534   1.205   6.561  13.929  0.2793 -0.7890  0.2367
18348TIP3    H176535   1.264   6.621  13.884  1.1401 -1.1155  0.9320
18348TIP3    H276536   1.250   6.538  14.010  0.0167 -2.4974 -0.0971
18349TIP3   OH276537   5.270   4.793   2.638  0.0291  0.0658  0.3236
18349TIP3    H176538   5.246   4.768   2.549  2.2366 -1.1919  0.0177
18349TIP3    H276539   5.219   4.734   2.694 -1.3218  0.8219 -0.1077
18350TIP3   OH276540   5.608   5.555  12.603 -0.0849 -0.4835 -0.1230
18350TIP3    H176541   5.553   5.581  12.529  0.3495 -0.9312 -0.6040
18350TIP3    H276542   5.552   5.498  12.655 -0.6535  0.4495  0.3172
18351TIP3   OH276543   4.556   2.250  12.222  0.0957  0.6905 -0.0688
18351TIP3    H176544   4.644   2.228  12.252  0.2090  0.4027 -0.6047
18351TIP3    H276545   4.534   2.181  12.160 -0.5519  0.7020  0.1463
18352TIP3   OH276546   1.823   0.191  13.017  0.2386  0.4969  0.3392
18352TIP3    H176547   1.831   0.121  12.952 -0.0611  1.3625 -0.6570
18352TIP3    H276548   1.753   0.162  13.075 -0.5857  0.4316 -0.6714
18353TIP3   OH276549   5.269   0.042  15.967 -0.6081 -0.7670 -0.4843
18353TIP3    H176550   5.228   0.067  15.884 -1.2302 -1.8145 -0.4948
18353TIP3    H276551   5.362   0.036  15.946 -0.8137 -1.4804 -1.2240
18354TIP3   OH276552   6.732   3.968   3.755 -0.3061  0.1471 -0.2107
18354TIP3    H176553   6.779   3.920   3.687  2.2644  1.9781  0.2221
18354TIP3    H276554   6.766   3.933   3.837  0.7393  1.8390  0.1052
18355TIP3   OH276555   1.121   4.508   4.849  0.1399  0.0900 -0.3773
18355TIP3    H176556   1.086   4.419   4.858 -0.2570  0.2481 -0.3731
18355TIP3    H276557   1.111   4.547   4.936 -0.9937  0.6188 -0.7294
18356TIP3   OH276558   0.356   5.804   4.153  0.2283 -0.2686  0.8537
18356TIP3    H176559   0.442   5.819   4.116  0.2022 -0.4472  0.7188
18356TIP3    H276560   0.373   5.769   4.241  0.2889  0.4054  1.1138
18357TIP3   OH276561   6.618   1.949  16.997  0.0981  0.4950 -0.0584
18357TIP3    H176562   6.532   1.975  17.029  0.1150 -1.4964  1.6915
18357TIP3    H276563   6.680   1.991  17.057  0.3518  1.3067 -0.8648
18358TIP3   OH276564   2.247   5.824  15.987 -0.4338  0.1184  0.1086
18358TIP3    H176565   2.241   5.914  16.018 -1.4151  0.0358  0.1843
18358TIP3    H276566   2.295   5.777  16.056 -0.0713  0.5424  0.1453
18359TIP3   OH276567   1.071   1.009  16.311 -0.3652  0.3357  0.7261
18359TIP3    H176568   1.129   0.968  16.248  0.5768  1.6468  0.7321
18359TIP3    H276569   1.111   0.992  16.396 -0.8238 -0.1009  0.8620
18360TIP3   OH276570   4.054   4.445   3.661  0.7050  0.4285 -0.2207
18360TIP3    H176571   4.147   4.470   3.661  0.5273  1.1558  1.1071
18360TIP3    H276572   4.029   4.446   3.753  0.1620 -2.8297 -0.2607
18361TIP3   OH276573   4.722   0.056   0.201  0.0591  0.6767  0.2374
18361TIP3    H176574   4.779  -0.001   0.149 -0.4288 -0.8147  1.2993
18361TIP3    H276575   4.767   0.066   0.285 -0.8532  0.1359  0.8018
18362TIP3   OH276576   4.884   2.795   4.423  0.7885 -0.0886  0.5368
18362TIP3    H176577   4.922   2.718   4.467  2.2868  1.3272  1.7945
18362TIP3    H276578   4.954   2.827   4.366  0.0310  0.1079 -0.2868
18363TIP3   OH276579   5.718   4.639  15.463  0.1908 -0.5203  0.0313
18363TIP3    H176580   5.772   4.665  15.538  1.5762  0.0324 -1.1275
18363TIP3    H276581   5.775   4.652  15.387 -1.5803  0.0501 -1.2229
18364TIP3   OH276582   0.181   3.385   4.333  0.2229  0.1182  0.1497
18364TIP3    H176583   0.194   3.294   4.360 -0.1959 -0.6603 -2.1910
18364TIP3    H276584   0.114   3.381   4.264  1.0114  2.0609 -0.7785
18365TIP3   OH276585   2.876   5.354   1.688  0.1584  0.5737 -0.3064
18365TIP3    H176586   2.793   5.307   1.697  0.6181  0.2504  2.6344
18365TIP3    H276587   2.931   5.294   1.638 -0.5300 -0.3065 -0.0302
18366TIP3   OH276588   3.221   6.728   3.322 -0.7303  0.2728 -0.1195
18366TIP3    H176589   3.314   6.753   3.326 -0.7191 -0.0236  1.9315
18366TIP3    H276590   3.211   6.689   3.235  0.9712  0.6839 -0.5255
18367TIP3   OH276591   0.774   6.649   2.782  0.2149  0.6507 -0.2674
18367TIP3    H176592   0.774   6.716   2.851 -0.0099  1.7120 -1.2952
18367TIP3    H276593   0.681   6.629   2.768  0.2483  0.6481 -0.4787
18368TIP3   OH276594   5.634   3.154  13.336  0.2071  0.5027 -0.3643
18368TIP3    H176595   5.653   3.077  13.391  1.1473  1.1733  0.2639
18368TIP3    H276596   5.548   3.185  13.366  0.3950  0.4390  0.2309
18369TIP3   OH276597   6.316   3.506   5.372 -0.2194 -0.1605 -0.0365
18369TIP3    H176598   6.229   3.524   5.409 -0.0137 -0.7445  0.7204
18369TIP3    H276599   6.375   3.510   5.447  0.3325 -0.3505 -0.4660
18370TIP3   OH276600   4.526   0.565  13.021 -0.1030 -0.4596 -0.2063
18370TIP3    H176601   4.586   0.618  13.074 -0.2757  0.5969 -1.0391
18370TIP3    H276602   4.440   0.580  13.061 -0.3678  1.0422 -1.3009
18371TIP3   OH276603   4.736   0.957   1.086 -0.3061  0.3980 -0.0597
18371TIP3    H176604   4.693   0.876   1.113  1.9900 -0.7608  0.2760
18371TIP3    H276605   4.691   0.983   1.006  0.4289 -2.4861 -1.4596
18372TIP3   OH276606   1.551   3.845  13.012 -0.8276  0.0411 -0.1607
18372TIP3    H176607   1.462   3.880  13.009 -0.2963  1.3189 -1.6041
18372TIP3    H276608   1.540   3.750  13.008 -2.1191  0.2049 -0.5563
18373TIP3   OH276609   6.644   4.565   0.102  0.0876  0.6818 -0.3418
18373TIP3    H176610   6.720   4.623   0.104  1.0163 -0.2150 -4.4294
18373TIP3    H276611   6.673   4.485   0.145  0.5257  1.3530  0.6261
18374TIP3   OH276612   5.935   5.905   4.249  0.2229  0.3305 -0.3802
18374TIP3    H176613   5.855   5.855   4.263  0.7649 -0.7909 -1.2407
18374TIP3    H276614   5.934   5.927   4.156  0.1641  1.6470 -0.0872
18375TIP3   OH276615   6.126   2.943   4.577  0.6670  0.2043 -0.0885
18375TIP3    H176616   6.035   2.927   4.601  0.4250 -2.0644 -2.3853
18375TIP3    H276617   6.173   2.945   4.661 -1.4051  1.0485  1.0909
18376TIP3   OH276618   6.387   5.409   0.513  0.3070 -0.8086  0.2031
18376TIP3    H176619   6.404   5.452   0.429 -0.1398 -0.6735  0.1848
18376TIP3    H276620   6.458   5.345   0.521  0.8814 -0.1859  0.1558
18377TIP3   OH276621   5.962   4.942  10.967 -0.2960  0.4430  0.3116
18377TIP3    H176622   5.902   4.873  10.937  0.4948  0.0220 -0.3294
18377TIP3    H276623   5.981   4.993  10.888  1.3474 -0.3161  0.1976
18378TIP3   OH276624   0.265   2.044   4.311 -0.1904  0.0191 -0.3144
18378TIP3    H176625   0.281   2.053   4.217  0.6528 -0.4232 -0.2173
18378TIP3    H276626   0.328   1.979   4.340 -0.6718 -0.0909  0.5042
18379TIP3   OH276627   4.525   0.765  11.599 -0.5879  0.0302 -0.0993
18379TIP3    H176628   4.535   0.759  11.693  0.1340  1.3573 -0.0780
18379TIP3    H276629   4.441   0.723  11.581 -1.2804  0.7941  1.2690
18380TIP3   OH276630   4.199   5.522  15.354 -0.0516  0.4390  0.3328
18380TIP3    H176631   4.173   5.586  15.422 -0.8829 -1.6274  2.0099
18380TIP3    H276632   4.182   5.437  15.394  2.6025 -0.8887 -1.2773
18381TIP3   OH276633   6.076   2.061  14.159  0.3061 -0.0000 -0.1599
18381TIP3    H176634   6.025   2.086  14.236 -0.5637 -0.3376 -0.6165
18381TIP3    H276635   6.119   2.142  14.131  2.2869 -0.2984  1.8822
18382TIP3   OH276636   0.012   2.219  13.382  0.2213  0.5258  0.2090
18382TIP3    H176637  -0.038   2.192  13.305  0.3138  2.8174 -0.7093
18382TIP3    H276638   0.079   2.152  13.393 -1.7153 -1.4497  0.1651
18383TIP3   OH276639   1.502   4.597   3.176  0.0095  0.0484  0.0051
18383TIP3    H176640   1.476   4.588   3.267  2.7874 -1.5558  0.7154
18383TIP3    H276641   1.513   4.691   3.163 -1.9659  0.4165  0.8232
18384TIP3   OH276642   5.414   4.558   0.593 -0.3376  0.1254 -0.1706
18384TIP3    H176643   5.489   4.612   0.615 -0.6922  0.6549 -0.2521
18384TIP3    H276644   5.424   4.540   0.500 -1.8499  2.6600 -0.8846
18385TIP3   OH276645   6.588   4.958  17.051 -0.1842 -0.4896  0.2009
18385TIP3    H176646   6.643   4.905  16.992 -0.1380  0.1667 -0.3535
18385TIP3    H276647   6.558   5.031  16.996 -2.4390 -1.3804  0.2057
18386TIP3   OH276648   1.522   3.957   6.551 -0.2412  0.3414  0.1746
18386TIP3    H176649   1.466   4.033   6.537 -1.0840 -0.0630  1.2795
18386TIP3    H276650   1.476   3.905   6.616  0.7231 -0.7214  0.0266
18387TIP3   OH276651   3.424   1.902   4.232 -0.0464  0.2633  0.1874
18387TIP3    H176652   3.463   1.837   4.173  0.3688  0.9822 -0.3408
18387TIP3    H276653   3.497   1.928   4.289 -0.0615  0.7232 -0.0078
18388TIP3   OH276654   2.954   6.233   1.595  1.0345 -0.4280  0.4376
18388TIP3    H176655   2.995   6.319   1.606 -1.5064  1.0538 -1.0939
18388TIP3    H276656   2.880   6.235   1.656 -0.7724 -0.3285 -1.6917
18389TIP3   OH276657   4.163   4.824   6.308  0.0688 -0.8695 -0.4780
18389TIP3    H176658   4.136   4.743   6.353 -0.2040 -0.5428 -0.0450
18389TIP3    H276659   4.177   4.887   6.379  0.7187 -0.6667 -0.7910
18390TIP3   OH276660   6.737   4.862  16.638  0.8386 -0.2488  0.2177
18390TIP3    H176661   6.720   4.955  16.656 -1.1313 -0.3704 -0.8293
18390TIP3    H276662   6.755   4.859  16.544  0.4582 -0.9857  0.1649
18391TIP3   OH276663   6.299   0.544   5.322  0.2208 -0.1896 -0.0447
18391TIP3    H176664   6.383   0.546   5.274  1.1867 -0.0453  1.6103
18391TIP3    H276665   6.258   0.463   5.294  1.4226 -0.8136 -0.0358
18392TIP3   OH276666   4.053   1.655   3.751 -0.1995 -0.0546  0.2553
18392TIP3    H176667   4.094   1.701   3.679 -0.9367 -0.2213 -0.2744
18392TIP3    H276668   3.985   1.714   3.783 -0.0969 -0.1174  0.6012
18393TIP3   OH276669   0.720   3.468   4.296 -0.6725  0.0168 -0.0914
18393TIP3    H176670   0.680   3.407   4.358 -0.3099 -1.2733 -1.1183
18393TIP3    H276671   0.646   3.513   4.256 -0.9576 -0.0060  0.4042
18394TIP3   OH276672   1.426   3.365   4.748 -0.3492  0.2930 -0.4376
18394TIP3    H176673   1.409   3.272   4.766 -1.0856  0.4879 -0.1120
18394TIP3    H276674   1.363   3.412   4.802  1.5243  1.0685  1.1368
18395TIP3   OH276675   4.152   2.095   2.909 -0.2239  0.1960 -0.1200
18395TIP3    H176676   4.217   2.035   2.872 -1.2715 -0.8375 -0.3174
18395TIP3    H276677   4.168   2.178   2.864  1.6992  0.2672  0.6661
18396TIP3   OH276678   2.722   5.960   4.733  0.7118 -0.4085  0.8285
18396TIP3    H176679   2.796   5.914   4.772  1.3386  0.1616  0.3174
18396TIP3    H276680   2.759   6.040   4.697  0.3037 -1.3015 -1.6790
18397TIP3   OH276681   1.887   2.059  11.562  0.2272  0.0518 -0.6618
18397TIP3    H176682   1.911   1.996  11.494  1.3412 -0.7739  0.4820
18397TIP3    H276683   1.971   2.095  11.592 -0.3545  1.5198 -0.7710
18398TIP3   OH276684   1.474   6.044   5.605  0.0583  0.2117  0.2758
18398TIP3    H176685   1.379   6.046   5.618 -0.2525  0.6710 -1.9234
18398TIP3    H276686   1.487   5.984   5.532  1.4923  0.0605  0.6422
18399TIP3   OH276687   2.005   3.596  14.675 -0.0836 -0.0747 -0.0272
18399TIP3    H176688   2.022   3.536  14.748  0.2177  0.5722  0.4341
18399TIP3    H276689   1.935   3.554  14.625 -0.2074 -0.5727  0.5695
18400TIP3   OH276690   3.677   6.299   3.385  0.4983 -0.3178 -0.0164
18400TIP3    H176691   3.691   6.316   3.291  0.3105  0.2840  0.0593
18400TIP3    H276692   3.582   6.311   3.396  0.7662  1.3649  0.5907
18401TIP3   OH276693   5.597   0.857  16.911 -0.0050  0.4629  0.3490
18401TIP3    H176694   5.688   0.883  16.924  0.7773 -1.1206 -1.6726
18401TIP3    H276695   5.585   0.861  16.816 -2.1351  0.9237  0.6268
18402TIP3   OH276696   1.340   0.862   0.039  0.0989 -0.2542  0.1291
18402TIP3    H176697   1.408   0.888  -0.023  1.8322 -0.5388  1.8384
18402TIP3    H276698   1.270   0.826  -0.015  1.5813 -0.5346 -1.6471
18403TIP3   OH276699   1.651   6.387   3.687  0.5759  0.3953 -0.3404
18403TIP3    H176700   1.682   6.383   3.778 -1.6797  1.0497  0.4961
18403TIP3    H276701   1.695   6.314   3.643  0.3378 -1.0561  1.7347
18404TIP3   OH276702   3.320   5.669  13.997 -0.2284 -0.1331  0.1800
18404TIP3    H176703   3.255   5.734  14.024  3.6577  2.9545  2.6481
18404TIP3    H276704   3.351   5.699  13.912  0.6783  0.5979  0.7583
18405TIP3   OH276705   6.751   4.606  16.930  0.1370 -0.7177 -0.1621
18405TIP3    H176706   6.808   4.604  17.006  1.4025 -0.3254 -1.0790
18405TIP3    H276707   6.810   4.622  16.856 -1.1898 -0.0394 -1.1026
18406TIP3   OH276708   4.540   0.387  17.198  0.3286  0.1364 -0.2062
18406TIP3    H176709   4.632   0.384  17.172  0.1780 -0.1120 -0.7243
18406TIP3    H276710   4.531   0.318  17.263  0.3025 -0.4461 -0.8270
18407TIP3   OH276711   6.745   3.107  16.730 -0.9266  0.5718  0.0713
18407TIP3    H176712   6.716   3.017  16.713 -0.3038  0.1881  1.0179
18407TIP3    H276713   6.780   3.136  16.646 -0.8063 -0.1917 -0.1512
18408TIP3   OH276714   0.143   3.664   1.331  0.1663 -0.4779  0.2239
18408TIP3    H176715   0.229   3.706   1.342 -0.0742  0.4721 -1.3634
18408TIP3    H276716   0.159   3.592   1.270 -0.0956 -0.5543  0.2461
18409TIP3   OH276717   4.939   2.007  15.090 -0.5485  0.1197 -0.1426
18409TIP3    H176718   5.020   2.023  15.138 -0.3065  0.3723 -0.6233
18409TIP3    H276719   4.962   2.025  14.999 -1.3343  0.9113 -0.1897
18410TIP3   OH276720   5.689   6.176  16.578  0.3510 -0.5142  0.4121
18410TIP3    H176721   5.703   6.270  16.590  0.8945 -0.4480 -0.7034
18410TIP3    H276722   5.625   6.153  16.646  1.3078  0.3630  1.6341
18411TIP3   OH276723   4.574   3.748   3.200 -0.1862  0.3412 -0.8319
18411TIP3    H176724   4.633   3.722   3.271 -0.9333 -1.9356 -0.9785
18411TIP3    H276725   4.621   3.726   3.120 -0.8585 -0.6742 -0.9618
18412TIP3   OH276726   2.862   3.986  13.541 -0.2524 -0.3264 -0.5438
18412TIP3    H176727   2.891   4.078  13.544 -1.5248  0.1403 -2.2162
18412TIP3    H276728   2.863   3.959  13.633  0.0435  1.3897 -0.0072
18413TIP3   OH276729   5.873   4.589  14.219 -0.6036  0.4960 -0.1267
18413TIP3    H176730   5.850   4.607  14.310 -0.7710  0.8070 -0.2294
18413TIP3    H276731   5.790   4.600  14.171 -0.1701  2.0032 -0.5521
18414TIP3   OH276732   4.410   1.784  10.841 -0.4159  0.3331 -0.0801
18414TIP3    H176733   4.492   1.824  10.873 -0.3718 -0.1127  0.3741
18414TIP3    H276734   4.357   1.773  10.920  0.2558 -2.0927  0.0728
18415TIP3   OH276735   2.781   2.867   2.499 -0.1647  0.2755 -0.0965
18415TIP3    H176736   2.766   2.789   2.445  0.4534  0.5796 -0.7112
18415TIP3    H276737   2.699   2.917   2.490 -0.7320 -0.5074  0.6516
18416TIP3   OH276738   0.465   5.310  14.327  0.2987  0.1384  0.0855
18416TIP3    H176739   0.399   5.379  14.336  0.9209  0.6774  0.6536
18416TIP3    H276740   0.549   5.357  14.333  0.7305 -0.6359  0.2173
18417TIP3   OH276741   4.772   4.742  11.823  0.3075  0.0118 -0.2616
18417TIP3    H176742   4.685   4.721  11.790  0.5456  1.2484 -1.6991
18417TIP3    H276743   4.826   4.752  11.745  1.8552 -1.1269  0.6200
18418TIP3   OH276744   0.372   3.740  12.841 -0.3620  0.0565  0.2498
18418TIP3    H176745   0.398   3.739  12.748  0.0856  0.6116  0.3680
18418TIP3    H276746   0.400   3.655  12.874  2.2505  0.9993  0.6216
18419TIP3   OH276747   5.332   6.722  10.726 -0.1865  0.1289  0.0264
18419TIP3    H176748   5.360   6.641  10.683 -1.7535 -0.8950  0.8817
18419TIP3    H276749   5.352   6.708  10.818  0.3936  1.1142  0.0629
18420TIP3   OH276750   4.135   6.474  16.266 -0.2142  0.1314  0.7493
18420TIP3    H176751   4.223   6.505  16.246 -0.5835  0.8096  0.1595
18420TIP3    H276752   4.095   6.546  16.314 -0.6141  0.0272  0.5736
18421TIP3   OH276753   1.181   2.055  17.156 -0.0044 -0.8239 -0.2378
18421TIP3    H176754   1.229   2.061  17.073  2.0316 -0.5033  0.9240
18421TIP3    H276755   1.229   1.990  17.207  0.1307  0.6329  1.5504
18422TIP3   OH276756   1.692   1.037   5.720  0.3401 -0.0241 -0.1789
18422TIP3    H176757   1.602   1.009   5.702  0.1526  1.8562 -2.3590
18422TIP3    H276758   1.746   0.975   5.671  0.1924 -0.2266 -0.0900
18423TIP3   OH276759   6.471   0.069   4.620  0.0476  0.2523 -0.3443
18423TIP3    H176760   6.456  -0.008   4.566  0.7622 -0.4697  0.4753
18423TIP3    H276761   6.397   0.069   4.682 -1.0499  1.3636 -1.6205
18424TIP3   OH276762   1.357   0.855  11.732  0.0717 -0.3441 -0.3797
18424TIP3    H176763   1.286   0.880  11.790  0.4817  0.5545 -0.2680
18424TIP3    H276764   1.381   0.767  11.761  0.2391  0.0741  0.7800
18425TIP3   OH276765   2.171   1.695  16.352 -0.1063 -0.3861  0.4285
18425TIP3    H176766   2.207   1.728  16.270  0.3262 -1.2114  0.2799
18425TIP3    H276767   2.193   1.762  16.417  1.2066 -0.6150  0.2269
18426TIP3   OH276768   5.885   4.233   4.119 -0.3243 -0.4321 -0.6589
18426TIP3    H176769   5.850   4.303   4.174 -0.1641 -0.8430 -0.0301
18426TIP3    H276770   5.915   4.167   4.181  2.8013  0.4706 -1.1312
18427TIP3   OH276771   0.793   5.254   4.208  0.4298  0.4229 -0.1723
18427TIP3    H176772   0.833   5.312   4.143 -1.4152  0.6836 -1.1236
18427TIP3    H276773   0.867   5.216   4.256  1.7072  2.9212 -0.0821
18428TIP3   OH276774   6.051   6.646  15.413 -0.2379 -0.0361  0.0285
18428TIP3    H176775   6.007   6.728  15.389 -1.2130 -1.1131 -1.9849
18428TIP3    H276776   6.001   6.611  15.486 -0.6497  0.4708 -0.0142
18429TIP3   OH276777   1.075   3.361   1.069  0.2232  0.7886 -0.2817
18429TIP3    H176778   1.133   3.296   1.029  0.4865 -0.1631  1.5894
18429TIP3    H276779   1.120   3.444   1.055  1.2051  0.2590 -0.3540
18430TIP3   OH276780   4.742   0.070   3.579  0.8567 -0.3276  0.0053
18430TIP3    H176781   4.806   0.127   3.534  0.4362  0.3889  0.3106
18430TIP3    H276782   4.693   0.130   3.635 -0.9599 -0.6708 -1.1946
18431TIP3   OH276783   6.348   6.061   6.439 -0.2437 -0.7435  0.3399
18431TIP3    H176784   6.287   6.123   6.400 -0.5365 -1.6611 -0.7046
18431TIP3    H276785   6.305   6.032   6.520  0.2632  1.0036  1.2617
18432TIP3   OH276786   4.356   0.402  13.356  0.9419 -0.7850  0.4954
18432TIP3    H176787   4.431   0.452  13.389  0.4907 -1.1773  2.1276
18432TIP3    H276788   4.326   0.452  13.280 -1.3449  3.0636  3.7612
18433TIP3   OH276789   3.452   4.122   3.702  0.5851  0.1593  0.4408
18433TIP3    H176790   3.458   4.132   3.607  1.4213 -1.3508  0.3050
18433TIP3    H276791   3.531   4.163   3.736  2.1774 -2.5413  0.1654
18434TIP3   OH276792   4.189   0.751   0.669 -0.3120  0.2223  0.8141
18434TIP3    H176793   4.151   0.821   0.617  2.2460  0.9698 -0.1073
18434TIP3    H276794   4.147   0.759   0.755 -1.9846  1.1600 -0.0619
18435TIP3   OH276795   1.894   1.516  14.121  0.5082  0.2044 -0.0183
18435TIP3    H176796   1.925   1.583  14.181  0.5193 -0.2735  0.5152
18435TIP3    H276797   1.949   1.440  14.139  1.0033  0.2866 -1.1565
18436TIP3   OH276798   2.539   1.952  13.133  0.5220  0.9037  0.4074
18436TIP3    H176799   2.604   1.993  13.191  0.8970  0.8193  0.0476
18436TIP3    H276800   2.541   2.005  13.054  2.9186 -1.3175 -1.1180
18437TIP3   OH276801   4.802   3.735  11.669 -0.3178 -0.1950 -0.3258
18437TIP3    H176802   4.878   3.790  11.648  0.6923 -1.1670  0.7402
18437TIP3    H276803   4.787   3.749  11.762  0.1433 -1.9686  0.0183
18438TIP3   OH276804   6.004   3.967  15.258 -0.1831 -0.4753 -0.3689
18438TIP3    H176805   6.078   3.932  15.308 -0.1553  0.2848  0.1256
18438TIP3    H276806   5.958   4.024  15.319  0.7451  1.6868 -1.6295
18439TIP3   OH276807   1.448   0.371  16.795 -0.1643 -0.0627 -0.3341
18439TIP3    H176808   1.370   0.397  16.746  0.3498 -0.1206 -1.1858
18439TIP3    H276809   1.432   0.403  16.884 -1.0920  0.0586 -0.5401
18440TIP3   OH276810   1.782   5.585   0.604 -0.3818 -0.4223 -0.1202
18440TIP3    H176811   1.870   5.560   0.577 -0.4424 -1.8529  0.9298
18440TIP3    H276812   1.731   5.504   0.597 -1.7214  0.4877 -1.1346
18441TIP3   OH276813   0.146   3.607  13.152 -0.0903 -0.3669  0.3708
18441TIP3    H176814   0.189   3.532  13.110  0.0731 -0.4945  0.7637
18441TIP3    H276815   0.056   3.577  13.168 -0.1411 -0.3324  0.1503
18442TIP3   OH276816   5.509   6.689  13.627  0.0627 -0.2648  0.6898
18442TIP3    H176817   5.593   6.719  13.593 -0.4382 -1.2270 -1.5156
18442TIP3    H276818   5.485   6.755  13.692  2.0704  0.5143  0.6814
18443TIP3   OH276819   4.111   4.447   1.903  0.5475 -0.1250  0.0151
18443TIP3    H176820   4.098   4.442   1.808 -0.0059  0.7839  0.0393
18443TIP3    H276821   4.105   4.357   1.933 -2.4743 -0.1175 -0.4120
18444TIP3   OH276822   5.090   1.038   1.721  0.4588 -0.1749 -0.3369
18444TIP3    H176823   5.001   1.064   1.695  0.5865  1.1525  0.4866
18444TIP3    H276824   5.077   0.963   1.778 -0.2613  0.9902  1.0629
18445TIP3   OH276825   3.311   3.277  16.330 -0.3475  0.1403 -0.1737
18445TIP3    H176826   3.257   3.332  16.387 -1.1144  0.9925 -1.6963
18445TIP3    H276827   3.250   3.243  16.265  0.3242 -1.6880  0.1176
18446TIP3   OH276828   0.177   5.277  16.734  0.0220 -0.0535  0.3546
18446TIP3    H176829   0.221   5.332  16.799  0.4997 -0.9730  0.8187
18446TIP3    H276830   0.192   5.321  16.651  1.8807 -0.3889  0.4949
18447TIP3   OH276831   2.392   2.560  14.937 -0.2275  0.2109 -0.4209
18447TIP3    H176832   2.371   2.481  14.887  0.9317 -1.2809  1.3655
18447TIP3    H276833   2.452   2.609  14.880  0.6988 -1.2312 -0.7125
18448TIP3   OH276834   3.772   3.314  11.200 -0.1649  0.1826 -0.1810
18448TIP3    H176835   3.681   3.344  11.192  0.1925  2.0283  2.1046
18448TIP3    H276836   3.815   3.383  11.250  1.9856 -1.7530  0.7144
18449TIP3   OH276837   4.072   1.263  16.561 -0.3000 -0.1235  0.0708
18449TIP3    H176838   4.066   1.192  16.497  1.9229 -0.5366  0.2968
18449TIP3    H276839   4.075   1.343  16.509  0.3529 -0.3930 -0.3139
18450TIP3   OH276840   3.486   5.943  16.640 -0.4864  0.0542 -0.4422
18450TIP3    H176841   3.467   5.862  16.592 -1.3194  0.6493 -1.1299
18450TIP3    H276842   3.454   5.926  16.729  0.6188 -0.8777 -0.2167
18451TIP3   OH276843   0.286   4.936  17.033  0.6151 -0.1352  0.0179
18451TIP3    H176844   0.269   4.951  16.940 -1.8213 -0.5809  0.3719
18451TIP3    H276845   0.325   5.018  17.063 -0.2182  0.6488 -0.9998
18452TIP3   OH276846   2.808   1.408   1.262 -0.0587  0.2939  0.2737
18452TIP3    H176847   2.731   1.419   1.206  1.1480  1.2175 -1.2322
18452TIP3    H276848   2.833   1.317   1.251 -1.3393 -0.1933  1.3085
18453TIP3   OH276849   2.619   0.327   2.398 -0.4431 -0.0697 -0.4705
18453TIP3    H176850   2.692   0.327   2.337 -0.5647  1.0881 -0.6178
18453TIP3    H276851   2.550   0.375   2.354 -1.4405 -1.4907 -0.4856
18454TIP3   OH276852   4.356   2.573   5.471  0.5597  0.2517  0.8013
18454TIP3    H176853   4.428   2.624   5.508  2.3774 -0.7232 -1.2441
18454TIP3    H276854   4.394   2.486   5.456 -0.6275  0.1015 -1.5387
18455TIP3   OH276855   4.828   5.722  12.187  0.2863  0.0298 -0.4932
18455TIP3    H176856   4.792   5.654  12.129 -2.0843  1.2904 -0.5535
18455TIP3    H276857   4.761   5.790  12.188  1.3418  1.0737  1.8987
18456TIP3   OH276858   6.627   5.968  12.317 -0.1942 -0.1652 -0.0438
18456TIP3    H176859   6.547   5.995  12.271 -0.6352  0.2625  0.9517
18456TIP3    H276860   6.624   6.016  12.400  0.7047 -0.7458  0.3328
18457TIP3   OH276861   5.826   2.705  11.186 -0.1320  0.2724  0.1604
18457TIP3    H176862   5.816   2.624  11.236  0.0107 -1.5634 -2.7264
18457TIP3    H276863   5.919   2.725  11.191  0.0219 -0.3796 -0.0832
18458TIP3   OH276864   1.705   4.196  16.533  0.2401 -0.0135 -0.2329
18458TIP3    H176865   1.637   4.262  16.523  0.4259  0.2592  0.3419
18458TIP3    H276866   1.698   4.143  16.453  0.0883  0.6882 -0.6830
18459TIP3   OH276867   4.675   5.322  15.574  0.0425 -0.5202 -0.1012
18459TIP3    H176868   4.686   5.391  15.508  0.8385 -2.2861 -1.8902
18459TIP3    H276869   4.663   5.369  15.656 -1.9984  1.7625 -1.6444
18460TIP3   OH276870   6.714   0.067   4.787 -0.4503  0.1251  0.6483
18460TIP3    H176871   6.711   0.155   4.826 -2.5687  0.2636  0.2100
18460TIP3    H276872   6.658   0.073   4.710 -1.2983 -1.8367  1.0948
18461TIP3   OH276873   6.121   3.068  12.308  0.0243  0.2320 -0.3460
18461TIP3    H176874   6.040   3.078  12.259  0.3328 -0.7471 -1.0885
18461TIP3    H276875   6.172   3.004  12.257  0.6391 -0.2825  0.8894
18462TIP3   OH276876   5.357   1.574  13.615 -1.0939  0.0600  0.1092
18462TIP3    H176877   5.411   1.496  13.625 -0.2193  0.2910 -2.4188
18462TIP3    H276878   5.404   1.642  13.663 -1.5795 -0.8260  1.8622
18463TIP3   OH276879   4.083   3.179   1.838  0.0134  0.8155 -0.1169
18463TIP3    H176880   4.069   3.241   1.909  0.6802  0.3151  0.4623
18463TIP3    H276881   4.149   3.118   1.872  0.4341  0.6471 -1.2167
18464TIP3   OH276882   4.909   2.099   5.812  0.2506 -0.0831  0.2728
18464TIP3    H176883   4.904   2.061   5.900 -0.8887  0.4801  0.4567
18464TIP3    H276884   4.957   2.181   5.823  0.7203 -0.3543  0.2511
18465TIP3   OH276885   3.633   2.159  16.242 -0.6059 -0.7904 -0.3233
18465TIP3    H176886   3.604   2.227  16.303 -1.5442 -0.1326 -1.4731
18465TIP3    H276887   3.601   2.077  16.281 -1.0858 -0.3897  0.1397
18466TIP3   OH276888   0.329   0.744  12.879  0.1342 -0.0773  0.5402
18466TIP3    H176889   0.297   0.807  12.815 -1.8685  1.4025  2.9142
18466TIP3    H276890   0.281   0.664  12.860 -1.4190  0.7274  0.9333
18467TIP3   OH276891   5.951   5.293   2.341 -0.3788 -0.5617  0.1922
18467TIP3    H176892   5.946   5.345   2.421 -1.9923 -0.6241  0.1450
18467TIP3    H276893   5.879   5.230   2.348 -1.1219  0.0350 -1.7257
18468TIP3   OH276894   3.142   4.581  15.871 -0.9121 -0.3001  0.7137
18468TIP3    H176895   3.183   4.631  15.941 -0.3264  0.8271 -0.4006
18468TIP3    H276896   3.213   4.567  15.807 -1.3854 -1.4624  0.4295
18469TIP3   OH276897   0.789   4.847   3.086  0.1177  0.4165 -0.1880
18469TIP3    H176898   0.761   4.850   3.178 -2.9416  0.0577 -1.0621
18469TIP3    H276899   0.811   4.938   3.065  2.4946  0.2304  1.3613
18470TIP3   OH276900   0.383   0.170   5.119  0.4041  0.1380 -0.5979
18470TIP3    H176901   0.388   0.074   5.118 -0.7816  0.0570  0.0280
18470TIP3    H276902   0.312   0.190   5.057 -0.0355  0.5526  0.0304
18471TIP3   OH276903   1.007   0.203  11.497  0.0866  0.2175  0.5204
18471TIP3    H176904   1.052   0.179  11.416  1.0023 -1.5389  1.5152
18471TIP3    H276905   1.077   0.224  11.558 -0.2432 -4.0503  2.5577
18472TIP3   OH276906   3.463   1.583   1.365  0.0974 -0.0650  0.3464
18472TIP3    H176907   3.513   1.557   1.288 -0.6511 -0.0322 -0.1529
18472TIP3    H276908   3.529   1.595   1.433  0.9927  2.0945 -0.8625
18473TIP3   OH276909   0.225   0.010  12.992  0.2878  0.3359  0.5223
18473TIP3    H176910   0.166  -0.001  13.066  0.4985 -0.0931  0.6271
18473TIP3    H276911   0.312   0.001  13.029  0.3943  0.1492  0.2279
18474TIP3   OH276912   0.476   0.772  11.458  0.0245 -0.4677  0.4058
18474TIP3    H176913   0.508   0.774  11.368  0.8511 -0.5394  0.6938
18474TIP3    H276914   0.493   0.683  11.488 -1.0542 -0.7022  0.3537
18475TIP3   OH276915   5.302   0.956   0.770  0.8907 -0.4861  0.0925
18475TIP3    H176916   5.223   0.930   0.724  0.5511  0.8374 -0.0837
18475TIP3    H276917   5.293   0.917   0.857 -0.8951  1.2628  0.7378
18476TIP3   OH276918   4.507   5.039   5.263  0.6568 -0.4646 -0.1783
18476TIP3    H176919   4.576   5.095   5.297  0.2535 -0.2948  0.3785
18476TIP3    H276920   4.475   4.992   5.341 -1.0764  0.7812 -0.1164
18477TIP3   OH276921   4.511   4.084   0.801  0.0450  0.0221 -0.1008
18477TIP3    H176922   4.547   4.063   0.887  1.9553 -0.3019 -0.9578
18477TIP3    H276923   4.433   4.029   0.793  0.3103 -0.5325  1.0974
18478TIP3   OH276924   5.126   1.217  13.128  0.3742 -0.3811  0.6926
18478TIP3    H176925   5.150   1.211  13.220  0.4000 -1.1319  0.6368
18478TIP3    H276926   5.130   1.127  13.095  1.4256  0.0242 -0.3112
18479TIP3   OH276927   0.874   6.782  10.943  0.1937 -0.1760 -0.5038
18479TIP3    H176928   0.924   6.701  10.934  1.4686  0.6397 -0.9397
18479TIP3    H276929   0.917   6.829  11.014  1.2742  1.3908 -2.1492
18480TIP3   OH276930   5.419   2.546  16.433 -0.0901  0.1718  0.4019
18480TIP3    H176931   5.399   2.623  16.379 -0.3803  0.4236  0.8682
18480TIP3    H276932   5.486   2.500  16.384  0.7836  1.2286  0.5879
18481TIP3   OH276933   0.263   6.085   4.981  0.4337  0.0211 -0.4151
18481TIP3    H176934   0.190   6.023   4.976  0.5458 -0.1861  0.3772
18481TIP3    H276935   0.221   6.171   4.990  0.2821  0.0016 -0.9366
18482TIP3   OH276936   0.984   0.643  15.325  0.6697 -0.0111 -0.0135
18482TIP3    H176937   1.032   0.712  15.370 -1.3857  0.0965  2.0568
18482TIP3    H276938   0.909   0.688  15.285  0.2912 -0.7748 -0.1628
18483TIP3   OH276939   5.145   5.385   5.146  0.0113  0.0659  0.1597
18483TIP3    H176940   5.174   5.314   5.088  1.7854 -0.6755  1.9236
18483TIP3    H276941   5.053   5.399   5.121  0.2310 -1.4029 -1.6450
18484TIP3   OH276942   3.773   1.113  14.981 -0.9120 -0.1810  0.0956
18484TIP3    H176943   3.695   1.060  14.963 -0.9027  0.2038 -1.1003
18484TIP3    H276944   3.792   1.157  14.898  2.6089 -2.9239 -0.6985
18485TIP3   OH276945   2.653   6.364  12.998  0.0261 -0.4166  0.1777
18485TIP3    H176946   2.598   6.319  13.062 -0.9299  1.8905  1.0511
18485TIP3    H276947   2.693   6.294  12.947 -2.0770 -2.2133  0.9019
18486TIP3   OH276948   1.069   0.378  16.080  0.4297  0.0363  0.3865
18486TIP3    H176949   1.056   0.415  16.168 -1.8774  1.6866 -0.6285
18486TIP3    H276950   1.036   0.444  16.020  1.6503 -1.2345 -1.7576
18487TIP3   OH276951   5.614   6.040  13.690  0.0186 -0.1290  0.1595
18487TIP3    H176952   5.608   6.018  13.784 -1.0428  0.1335  0.1566
18487TIP3    H276953   5.699   6.005  13.663  1.3768  1.7880  1.7492
18488TIP3   OH276954   4.404   4.547  16.673  0.7223  0.1454  0.6070
18488TIP3    H176955   4.423   4.520  16.763  1.4826 -3.0393 -0.4642
18488TIP3    H276956   4.321   4.504  16.652  1.3084 -0.3650 -0.7076
18489TIP3   OH276957   0.292   0.304  11.924 -0.1068  0.7443  0.8311
18489TIP3    H176958   0.289   0.224  11.977 -0.8869  0.7494  0.7997
18489TIP3    H276959   0.333   0.277  11.842 -0.5733  0.3212  0.7354
18490TIP3   OH276960   5.768   2.463  12.946  0.3900  0.6737 -0.3393
18490TIP3    H176961   5.678   2.432  12.954  0.3459  0.6355 -0.9589
18490TIP3    H276962   5.821   2.387  12.971  0.2729  0.2570 -1.3632
18491TIP3   OH276963   5.272   5.247  16.321 -0.8918 -0.5957 -0.1610
18491TIP3    H176964   5.220   5.234  16.242  2.1262 -1.2202 -2.1233
18491TIP3    H276965   5.344   5.303  16.294 -0.7914  0.6974  2.6225
18492TIP3   OH276966   6.782   0.854  11.457 -0.1764  0.2466 -0.4703
18492TIP3    H176967   6.792   0.789  11.387  0.3917 -0.1992  0.0271
18492TIP3    H276968   6.871   0.886  11.473 -0.5216  1.5900 -1.1276
18493TIP3   OH276969   5.887   2.200  15.857 -0.1318 -0.1084 -0.2446
18493TIP3    H176970   5.885   2.245  15.942 -0.8055  1.1909 -0.9385
18493TIP3    H276971   5.894   2.270  15.793 -1.3701 -0.9823 -1.3571
18494TIP3   OH276972   5.232   5.142   4.023 -0.5697 -0.1051 -0.3996
18494TIP3    H176973   5.209   5.053   4.052  0.2736 -0.6035 -1.2183
18494TIP3    H276974   5.320   5.133   3.985 -1.0767  0.7839 -1.8498
18495TIP3   OH276975   0.335   2.891   0.104 -0.1441  0.0243 -0.3656
18495TIP3    H176976   0.423   2.924   0.091  0.3629 -0.3081  1.9773
18495TIP3    H276977   0.297   2.948   0.171 -0.9483 -1.1520  0.2082
18496TIP3   OH276978   3.667   0.192  12.238  0.3460 -0.4356 -0.1536
18496TIP3    H176979   3.647   0.145  12.157 -0.5481 -0.7568  0.2497
18496TIP3    H276980   3.591   0.176  12.295  1.6618 -1.5705  1.3515
18497TIP3   OH276981   5.854   4.047  15.672 -0.5120  0.2540  0.3325
18497TIP3    H176982   5.869   4.140  15.690 -0.7434  0.0586  1.6273
18497TIP3    H276983   5.795   4.046  15.597 -0.1870  1.1503  0.0571
18498TIP3   OH276984   0.572   4.873  14.408 -0.0876 -0.2737 -0.1861
18498TIP3    H176985   0.636   4.817  14.452 -1.9831 -0.6931  2.1453
18498TIP3    H276986   0.544   4.935  14.475 -1.3213  0.6065 -1.4799
18499TIP3   OH276987   2.798   4.957   6.046 -0.0608 -0.0053 -0.0663
18499TIP3    H176988   2.878   4.926   6.088  0.8373  1.1034 -0.9172
18499TIP3    H276989   2.782   5.043   6.086 -0.3700  0.1340 -0.4823
18500TIP3   OH276990   0.018   1.270  13.586  0.0034  0.1376 -0.1718
18500TIP3    H176991   0.066   1.255  13.505 -1.1743 -2.0992 -0.4973
18500TIP3    H276992  -0.034   1.349  13.569  2.6831  1.9808 -0.1625
18501TIP3   OH276993   0.280   0.930   5.839  0.2213 -0.3859  0.1623
18501TIP3    H176994   0.290   0.945   5.933 -0.8335 -0.1711  0.2489
18501TIP3    H276995   0.188   0.907   5.828  0.4433 -0.8741 -0.7614
18502TIP3   OH276996   2.072   6.557   4.244  0.8333 -0.4460 -0.0589
18502TIP3    H176997   2.132   6.547   4.318 -2.2762 -0.5597  2.5951
18502TIP3    H276998   1.993   6.510   4.272 -0.8377  0.5203 -2.9945
18503TIP3   OH276999   3.801   6.389   3.780 -0.2805 -0.0485  0.1206
18503TIP3    H177000   3.712   6.425   3.778 -0.0326  0.5589 -0.2054
18503TIP3    H277001   3.847   6.437   3.711  0.3872 -0.1290  0.5109
18504TIP3   OH277002   0.303   3.703  17.203  0.5412 -0.0407  0.0549
18504TIP3    H177003   0.216   3.738  17.219 -0.3212 -1.9960 -0.1821
18504TIP3    H277004   0.323   3.728  17.113 -0.4783 -1.0061 -0.4444
18505TIP3   OH277005   6.387   4.793   2.394 -0.4181 -0.2499 -0.0551
18505TIP3    H177006   6.470   4.801   2.347 -0.6076 -1.1734 -0.5540
18505TIP3    H277007   6.333   4.739   2.337 -1.8839  1.5697 -0.4538
18506TIP3   OH277008   0.484   6.367  16.176  0.5730  0.6782  0.0296
18506TIP3    H177009   0.425   6.373  16.251  0.7121  0.8643  0.1248
18506TIP3    H277010   0.515   6.276  16.177  1.2321  0.9024  0.7024
18507TIP3   OH277011   1.977   2.929   0.014  0.2197 -0.0099  0.5482
18507TIP3    H177012   1.970   2.833   0.009 -2.7745  0.2202 -1.2954
18507TIP3    H277013   1.889   2.957   0.038 -0.3466  2.5235 -3.9259
18508TIP3   OH277014   0.874   3.864  14.817 -0.4757  0.1015 -0.2658
18508TIP3    H177015   0.965   3.838  14.803  0.4073  0.4446  4.1301
18508TIP3    H277016   0.877   3.926  14.890 -4.3868 -1.3725  1.3387
18509TIP3   OH277017   3.783   0.571   5.974  0.0395 -0.6308  0.4150
18509TIP3    H177018   3.815   0.657   5.945  0.0828 -0.7676  0.0568
18509TIP3    H277019   3.720   0.545   5.907 -0.8998 -0.3274  1.1509
18510TIP3   OH277020   0.540   0.361   4.328  0.0859  0.1727 -0.2074
18510TIP3    H177021   0.551   0.456   4.331 -2.7309  0.5550 -1.2311
18510TIP3    H277022   0.529   0.341   4.235 -1.4227 -0.9023  0.1834
18511TIP3   OH277023   0.686   6.627   1.949 -0.0139 -0.1240 -0.3437
18511TIP3    H177024   0.706   6.575   1.871 -0.1135 -2.1470  0.9473
18511TIP3    H277025   0.625   6.573   1.999 -0.8138  1.6267  0.6189
18512TIP3   OH277026   6.051   1.108  15.603 -0.0041  0.1112 -0.2914
18512TIP3    H177027   6.097   1.029  15.575  1.1986  0.2868  1.1767
18512TIP3    H277028   6.118   1.163  15.642 -1.2477  0.8674  0.8239
18513TIP3   OH277029   3.626   6.226   0.759 -0.4691  0.2073  0.0502
18513TIP3    H177030   3.561   6.296   0.749  0.7152  1.2590 -0.3529
18513TIP3    H277031   3.635   6.188   0.672 -1.5963 -0.9020  0.4019
18514TIP3   OH277032   6.574   6.519  12.580  0.0176  0.6345  0.1258
18514TIP3    H177033   6.512   6.592  12.591  0.8495  1.6244 -1.4385
18514TIP3    H277034   6.535   6.466  12.510 -0.4831 -0.3367  1.1220
18515TIP3   OH277035   3.121   2.959  15.948  0.5059  0.0752  0.2445
18515TIP3    H177036   3.172   2.966  16.028  2.6144 -0.7339 -0.9895
18515TIP3    H277037   3.084   3.046  15.934  0.3985  0.2975  1.9020
18516TIP3   OH277038   5.420   1.863  12.376 -0.6322  0.2641  0.1618
18516TIP3    H177039   5.367   1.797  12.332  0.6511 -0.8763  0.3049
18516TIP3    H277040   5.380   1.947  12.350 -1.5435 -0.5020 -0.9657
18517TIP3   OH277041   4.536   1.870   4.506  0.7761  0.2713  0.2938
18517TIP3    H177042   4.477   1.821   4.564 -1.1390 -0.8536 -2.5041
18517TIP3    H277043   4.510   1.961   4.517 -0.5105 -0.0699  0.2113
18518TIP3   OH277044   4.250   3.184   2.712 -0.6433  0.1078  0.5141
18518TIP3    H177045   4.318   3.214   2.773  0.5747 -1.1376 -0.2188
18518TIP3    H277046   4.203   3.264   2.689  0.7430  1.0399  0.8257
18519TIP3   OH277047   4.427   5.774   0.006  0.4201  0.3295 -0.2531
18519TIP3    H177048   4.450   5.715  -0.065  2.4125  0.8748 -0.0803
18519TIP3    H277049   4.441   5.862  -0.030 -0.6736  0.6673  0.1138
18520TIP3   OH277050   1.228   5.209   0.391  0.0333  0.9366  0.2102
18520TIP3    H177051   1.250   5.287   0.339  1.1724  1.5599  1.5790
18520TIP3    H277052   1.133   5.213   0.402  0.3290  3.6240  2.4887
18521TIP3   OH277053   2.429   4.933   0.024  0.3408  0.0504  0.0170
18521TIP3    H177054   2.346   4.980   0.032  0.7123  0.4973  1.2522
18521TIP3    H277055   2.406   4.853  -0.023 -0.5832  0.6923 -0.6524
18522TIP3   OH277056   2.020   0.082  11.908 -0.0703 -0.1349 -0.0710
18522TIP3    H177057   1.974  -0.002  11.913 -1.8501  0.7626 -0.7306
18522TIP3    H277058   2.063   0.080  11.822  2.0634 -1.4200  0.9893
18523TIP3   OH277059   2.100   1.094  15.333  0.2716  0.0732 -0.1665
18523TIP3    H177060   2.172   1.144  15.373  0.7887 -1.0809  0.3566
18523TIP3    H277061   2.034   1.086  15.402 -0.7957  1.9593 -0.9380
18524TIP3   OH277062   0.225   1.728  14.964  0.4557 -0.0894 -0.2397
18524TIP3    H177063   0.190   1.747  15.051 -0.7790  0.0660 -0.7557
18524TIP3    H277064   0.239   1.813  14.924  1.6072 -0.1455  0.0176
18525TIP3   OH277065   2.535   3.181  14.338 -0.2609  0.0867  0.1434
18525TIP3    H177066   2.463   3.215  14.284 -0.1778  0.8058  0.4819
18525TIP3    H277067   2.613   3.196  14.284 -0.4925 -1.9619 -0.8193
18526TIP3   OH277068   6.688   1.225  15.172 -0.3484 -0.0529 -0.5634
18526TIP3    H177069   6.666   1.168  15.098 -1.8070  1.4379 -1.3255
18526TIP3    H277070   6.768   1.270  15.145  0.0247 -0.7040 -0.5501
18527TIP3   OH277071   4.115   1.127   6.510 -0.0475  0.2265 -0.0328
18527TIP3    H177072   4.138   1.219   6.496 -1.0897  0.5716  0.4807
18527TIP3    H277073   4.116   1.089   6.422  1.1245  0.5398 -0.1740
18528TIP3   OH277074   4.821   1.614  15.626 -0.8457  0.3760  0.2155
18528TIP3    H177075   4.796   1.605  15.718 -2.2108 -0.1541 -0.1920
18528TIP3    H277076   4.742   1.648  15.583 -0.9144 -1.4434 -1.1298
18529TIP3   OH277077   6.554   4.272  11.353 -0.2935 -0.1073  0.2382
18529TIP3    H177078   6.559   4.257  11.258  0.5513  2.7205 -0.2165
18529TIP3    H277079   6.471   4.317  11.365 -0.3141 -0.3047  0.8218
18530TIP3   OH277080   1.772   6.729  16.122 -0.2382  0.2523 -0.3721
18530TIP3    H177081   1.773   6.660  16.188 -1.1199 -0.4166 -1.0449
18530TIP3    H277082   1.690   6.776  16.136  1.0632  2.1938  1.0975
18531TIP3   OH277083   3.523   0.317  15.290  0.1161 -0.0875 -0.1103
18531TIP3    H177084   3.518   0.347  15.381 -0.7360  2.0851 -0.8497
18531TIP3    H277085   3.521   0.221  15.297  1.9893 -0.0111  2.2567
18532TIP3   OH277086   6.142   1.537  11.922 -0.0790 -0.1541 -0.0410
18532TIP3    H177087   6.202   1.510  11.852 -1.2547 -1.4073 -0.5831
18532TIP3    H277088   6.146   1.465  11.985 -3.0184 -1.5596 -1.3557
18533TIP3   OH277089   6.765   2.621  15.074 -0.2751 -0.1545 -0.7734
18533TIP3    H177090   6.859   2.616  15.089 -0.3558  1.5804  0.5021
18533TIP3    H277091   6.728   2.550  15.126  0.2240  0.0996 -0.0604
18534TIP3   OH277092   0.148   4.342  13.362  0.1572 -0.0142  0.5172
18534TIP3    H177093   0.166   4.335  13.268  1.3827 -0.0717  0.7501
18534TIP3    H277094   0.094   4.266  13.382  1.2268 -0.8700  0.1665
18535TIP3   OH277095   2.643   2.815   5.999  0.1489  0.2774  0.4787
18535TIP3    H177096   2.676   2.883   6.057 -0.7703 -0.1550  1.5224
18535TIP3    H277097   2.719   2.790   5.946  0.4885  2.0932  0.0762
18536TIP3   OH277098   1.889   2.061  13.244 -0.0987  0.1469  0.3697
18536TIP3    H177099   1.805   2.020  13.225 -0.6746  0.1184  2.7776
18536TIP3    H277100   1.938   1.994  13.291  1.0920  0.3468 -0.5455
18537TIP3   OH277101   6.081   2.945  16.640  1.1564 -0.5222 -0.2972
18537TIP3    H177102   6.037   2.866  16.672  0.3726  0.2105  0.4521
18537TIP3    H277103   6.019   3.016  16.658  0.6771 -0.0877 -3.4890
18538TIP3   OH277104   0.718   5.870  14.431  0.7031  0.2093 -0.3209
18538TIP3    H177105   0.755   5.889  14.518 -0.4760  0.6671  0.0969
18538TIP3    H277106   0.730   5.776  14.420 -0.5742 -0.1351  1.0449
18539TIP3   OH277107   5.845   6.470   6.034  0.4488  0.1452 -0.2712
18539TIP3    H177108   5.756   6.460   6.067  0.7811 -0.4676  0.4436
18539TIP3    H277109   5.898   6.416   6.092  1.3235  0.7131 -0.5405
18540TIP3   OH277110   1.167   2.356   2.639 -0.0844 -0.4870  0.4394
18540TIP3    H177111   1.218   2.423   2.684 -2.6027  2.4328 -0.8685
18540TIP3    H277112   1.088   2.346   2.692 -0.8225 -0.6281 -0.6692
18541TIP3   OH277113   4.539   6.722  11.504 -0.0730 -0.4121  0.5121
18541TIP3    H177114   4.452   6.684  11.487  0.3873 -1.3082  0.0984
18541TIP3    H277115   4.596   6.678  11.441  0.1533  2.3831 -1.3120
18542TIP3   OH277116   3.079   2.425   5.429  0.7390  0.4496  0.3027
18542TIP3    H177117   3.147   2.380   5.377 -2.1006 -2.0646 -1.3775
18542TIP3    H277118   3.072   2.512   5.389  1.2740 -0.1162 -1.0433
18543TIP3   OH277119   3.915   0.170   0.737 -0.2699  0.5569  0.1466
18543TIP3    H177120   3.953   0.154   0.823 -0.8543  0.5221  0.4022
18543TIP3    H277121   3.980   0.222   0.691 -0.1599  0.9817  0.7781
18544TIP3   OH277122   4.373   6.180   3.025 -0.2545  0.0640  0.3036
18544TIP3    H177123   4.396   6.259   3.074 -2.3305 -0.2000  1.7858
18544TIP3    H277124   4.372   6.208   2.933 -1.7198  1.9808  0.8639
18545TIP3   OH277125   1.916   5.609  15.962 -0.1159  0.1316 -0.2272
18545TIP3    H177126   1.965   5.688  15.985 -0.2868 -0.1110  1.0545
18545TIP3    H277127   1.974   5.561  15.903  0.3951  0.7535 -0.2404
18546TIP3   OH277128   5.599   6.412   6.095 -0.3818  0.0327 -0.2829
18546TIP3    H177129   5.558   6.492   6.126  0.0948  0.4076 -0.6046
18546TIP3    H277130   5.586   6.348   6.165 -0.1189  0.6018  0.2778
18547TIP3   OH277131   6.706   3.899  15.298  0.0421 -0.3030 -0.4692
18547TIP3    H177132   6.695   3.849  15.379  0.8153  1.3514  0.6886
18547TIP3    H277133   6.798   3.887  15.275  0.4492  1.2335  0.2817
18548TIP3   OH277134   5.855   3.112  15.781 -0.0563  0.7977 -0.2907
18548TIP3    H177135   5.939   3.077  15.809  0.1651  0.4372 -1.3857
18548TIP3    H277136   5.820   3.155  15.859  1.4395  1.5403 -0.0166
18549TIP3   OH277137   5.765   3.919   5.480 -0.6840 -0.6701 -0.4606
18549TIP3    H177138   5.742   3.876   5.397 -0.6393 -1.7656  0.0805
18549TIP3    H277139   5.814   3.852   5.529 -1.1880 -0.2217  0.6729
18550TIP3   OH277140   5.293   0.827   3.356 -0.2105  0.3870  0.2227
18550TIP3    H177141   5.262   0.780   3.278  1.4553  0.0009 -0.2152
18550TIP3    H277142   5.347   0.898   3.322 -1.8308  2.0217  0.9310
18551TIP3   OH277143   5.491   5.894   3.547 -0.3304  0.4944  0.3168
18551TIP3    H177144   5.415   5.946   3.575 -1.8420 -2.5301  2.1416
18551TIP3    H277145   5.530   5.864   3.629  2.1035  0.9349 -0.6650
18552TIP3   OH277146   5.643   2.158  11.747  0.2554 -0.0295 -0.0577
18552TIP3    H177147   5.617   2.073  11.784  1.5092 -0.1435  0.5802
18552TIP3    H277148   5.688   2.202  11.819 -0.7056  1.3286 -0.2858
18553TIP3   OH277149   1.609   6.090   6.273 -0.0967  0.3250 -0.5907
18553TIP3    H177150   1.603   6.019   6.209  1.3074  0.3149 -0.7300
18553TIP3    H277151   1.665   6.155   6.230 -0.8480  1.2344 -0.2063
18554TIP3   OH277152   3.261   4.331  15.166 -0.3901 -0.6739  0.0701
18554TIP3    H177153   3.345   4.370  15.192 -2.6467  2.6134  2.9699
18554TIP3    H277154   3.256   4.250  15.216  1.2781 -1.1956 -0.5656
18555TIP3   OH277155   2.495   3.010   3.619 -0.5160 -0.0263  0.4061
18555TIP3    H177156   2.500   2.934   3.677 -1.2009 -1.1899 -1.0491
18555TIP3    H277157   2.411   3.051   3.639 -0.6934 -0.3533  0.3303
18556TIP3   OH277158   3.510   6.182   4.613  0.3489 -0.2491 -0.2523
18556TIP3    H177159   3.577   6.191   4.545  0.2749 -0.0545 -0.3026
18556TIP3    H277160   3.535   6.246   4.680  0.0507  0.0365 -0.4100
18557TIP3   OH277161   4.734   1.117   1.393  0.4007 -0.3606 -0.4308
18557TIP3    H177162   4.771   1.053   1.332  1.5924  1.3575 -1.5488
18557TIP3    H277163   4.639   1.104   1.385  0.5391 -0.3850 -2.4351
18558TIP3   OH277164   6.327   6.522   0.593  0.2459 -0.4580  0.4603
18558TIP3    H177165   6.281   6.593   0.637  0.9882 -1.3996  2.7829
18558TIP3    H277166   6.409   6.561   0.563  0.4188 -0.2142  1.2608
18559TIP3   OH277167   3.935   0.935   3.565  0.0607 -0.4569 -0.3339
18559TIP3    H177168   3.842   0.910   3.561  0.1681 -1.3705  2.3760
18559TIP3    H277169   3.934   1.030   3.556 -0.9000 -0.6669 -3.0888
18560TIP3   OH277170   2.336   2.918   3.288  0.2591 -0.3630  0.5047
18560TIP3    H177171   2.345   2.986   3.222  1.1921  0.0456  1.0450
18560TIP3    H277172   2.241   2.901   3.293  0.3143 -1.8602 -2.3940
18561TIP3   OH277173   3.038   4.995   3.915  0.0351  0.1320 -0.0869
18561TIP3    H177174   2.979   4.931   3.954 -0.4431  0.1345 -0.8074
18561TIP3    H277175   3.125   4.970   3.946 -0.2832 -0.1565  0.5849
18562TIP3   OH277176   0.902   4.429  16.248  0.4944 -0.2143  0.2055
18562TIP3    H177177   0.842   4.401  16.317 -0.6057  0.9400 -0.2497
18562TIP3    H277178   0.985   4.444  16.293 -0.3078  0.8960  1.3558
18563TIP3   OH277179   4.253   3.040  15.914  0.3280  0.3617 -0.1071
18563TIP3    H177180   4.241   2.959  15.865 -0.3624  0.8910 -0.8272
18563TIP3    H277181   4.167   3.061  15.950  0.5429  0.6738  0.2397
18564TIP3   OH277182   1.683   1.613  11.492  0.2398 -0.2413  0.4787
18564TIP3    H177183   1.638   1.636  11.410  1.4039  0.6956  0.0887
18564TIP3    H277184   1.614   1.576  11.547 -0.6583 -0.4569 -0.7549
18565TIP3   OH277185   4.582   4.447   0.962 -0.6708 -0.1003 -0.3759
18565TIP3    H177186   4.556   4.357   0.986 -0.8735  0.6756  2.4930
18565TIP3    H277187   4.677   4.449   0.973 -0.6298 -0.0156 -0.7195
18566TIP3   OH277188   0.837   6.049   5.905  0.3009 -0.3056  0.4654
18566TIP3    H177189   0.751   6.054   5.946 -0.1185 -1.2414 -0.2713
18566TIP3    H277190   0.859   5.956   5.905  0.7220 -0.2225 -0.5429
18567TIP3   OH277191   6.141   2.082   3.450 -0.4454  0.0359 -0.1134
18567TIP3    H177192   6.198   2.059   3.524  1.1500  1.1850 -0.9624
18567TIP3    H277193   6.137   2.177   3.451 -1.8160 -0.0064 -0.4877
18568TIP3   OH277194   1.817   5.086  14.082 -0.1393 -0.5868 -0.1623
18568TIP3    H177195   1.765   5.141  14.023  2.4549  0.2151 -1.7545
18568TIP3    H277196   1.831   5.005  14.035 -0.5645 -1.0983  0.5753
18569TIP3   OH277197   2.722   2.939   3.494  0.2526  0.3683  0.2680
18569TIP3    H177198   2.645   2.985   3.528  1.6613  2.3484  0.8638
18569TIP3    H277199   2.754   2.994   3.423  0.4811 -1.0153 -0.7318
18570TIP3   OH277200   3.484   2.730   0.123 -0.5202 -0.0385 -0.2833
18570TIP3    H177201   3.403   2.692   0.091 -0.9908  0.6552  0.0840
18570TIP3    H277202   3.491   2.814   0.078  1.2050 -1.1190 -2.1269
18571TIP3   OH277203   4.138   2.696  14.922  0.0467  0.0135 -0.1721
18571TIP3    H177204   4.065   2.733  14.971 -0.1835 -0.4515 -0.1670
18571TIP3    H277205   4.180   2.636  14.983  0.4313  0.2766 -0.1788
18572TIP3   OH277206   2.750   3.037   1.713 -0.2596 -0.5042  0.2673
18572TIP3    H177207   2.744   3.084   1.630  1.2512  0.2170  0.5620
18572TIP3    H277208   2.843   3.035   1.733 -0.6244 -0.5635  2.0125
18573TIP3   OH277209   6.345   6.293  11.696  0.2665  0.4245  0.1091
18573TIP3    H177210   6.363   6.208  11.655  2.6644  1.2646 -0.6772
18573TIP3    H277211   6.254   6.312  11.673  0.1199 -1.3130 -0.8266
18574TIP3   OH277212   6.429   5.781  13.747 -0.3518  0.0453 -0.2763
18574TIP3    H177213   6.341   5.805  13.777 -0.2710  0.0089 -0.0056
18574TIP3    H277214   6.471   5.744  13.825  0.3306  1.2202 -0.0653
18575TIP3   OH277215   3.957   1.503   0.379  0.2001  0.1474  0.3785
18575TIP3    H177216   3.968   1.472   0.289  0.6030  1.4990 -0.0575
18575TIP3    H277217   3.916   1.589   0.369 -3.0744 -1.1979  1.6515
18576TIP3   OH277218   6.451   0.823  15.391  0.1884 -0.0552  0.0279
18576TIP3    H177219   6.493   0.819  15.478 -0.0673  2.4241  0.2941
18576TIP3    H277220   6.462   0.735  15.355  4.8891  0.2591  0.4451
18577TIP3   OH277221   4.906   4.231   2.199  0.0632  0.1384  0.0639
18577TIP3    H177222   4.963   4.201   2.128 -0.3268 -0.8149  0.1464
18577TIP3    H277223   4.917   4.326   2.201  2.1279 -0.0984  0.5005
18578TIP3   OH277224   6.010   0.335   5.160  0.1225 -0.1611 -0.0089
18578TIP3    H177225   6.030   0.358   5.251  0.6977  1.3124 -0.4965
18578TIP3    H277226   5.987   0.418   5.118  0.3203 -0.7600 -1.3347
18579TIP3   OH277227   1.536   4.749  17.281 -0.6641 -0.7132 -0.3455
18579TIP3    H177228   1.481   4.709  17.213  1.0701 -0.9286 -1.6667
18579TIP3    H277229   1.536   4.686  17.352 -0.9985 -1.3384 -0.8918
18580TIP3   OH277230   3.806   4.424   2.922 -0.2291  0.2199 -0.4859
18580TIP3    H177231   3.742   4.478   2.969 -0.0867  0.8183 -0.9657
18580TIP3    H277232   3.770   4.418   2.833 -0.8312 -1.4488 -0.1312
18581TIP3   OH277233   6.533   5.170  11.592 -0.5847  0.4425  0.6628
18581TIP3    H177234   6.490   5.098  11.637 -0.5723  1.1969  1.9061
18581TIP3    H277235   6.625   5.162  11.614 -0.4662  0.3849  0.1623
18582TIP3   OH277236   2.631   6.064  14.812  0.3561  0.1054  0.4484
18582TIP3    H177237   2.557   6.032  14.761  0.3043  1.1883 -0.1723
18582TIP3    H277238   2.676   5.985  14.842  0.2916 -0.5490 -1.1404
18583TIP3   OH277239   1.320   0.840  13.640 -0.1836 -0.4253  0.0897
18583TIP3    H177240   1.230   0.809  13.638  0.1051 -1.2159 -0.6674
18583TIP3    H277241   1.362   0.789  13.709 -0.1702 -0.4406  0.0704
18584TIP3   OH277242   1.136   6.222  16.603  0.3863  0.7952 -0.5714
18584TIP3    H177243   1.058   6.249  16.652  0.1876 -0.0793 -0.3841
18584TIP3    H277244   1.102   6.199  16.516  0.4473  0.5244 -0.5253
18585TIP3   OH277245   6.344   1.085   5.061 -1.1803  0.0528  0.2971
18585TIP3    H177246   6.341   1.176   5.089 -0.0789  0.0049  0.6058
18585TIP3    H277247   6.348   1.035   5.142  0.2139 -0.1688  0.1055
18586TIP3   OH277248   1.186   4.768  13.665 -0.1823 -0.2125 -0.1787
18586TIP3    H177249   1.226   4.690  13.702 -0.4140 -0.6761 -0.9079
18586TIP3    H277250   1.123   4.796  13.731  0.1092 -0.4725  0.2113
18587TIP3   OH277251   4.730   2.834  13.992 -0.3113  0.1197  0.6497
18587TIP3    H177252   4.700   2.865  13.907 -0.3501  2.5316  1.5070
18587TIP3    H277253   4.768   2.911  14.034 -1.2427 -0.7571  3.2245
18588TIP3   OH277254   5.284   1.382   2.283 -0.1596 -0.7125 -0.1017
18588TIP3    H177255   5.275   1.340   2.369  1.6131 -1.0324 -0.0600
18588TIP3    H277256   5.360   1.439   2.292 -0.5750  0.0245 -1.1645
18589TIP3   OH277257   4.687   3.483  16.939 -0.0537 -0.1995  0.1935
18589TIP3    H177258   4.604   3.529  16.927  0.2724  0.8288  1.7313
18589TIP3    H277259   4.751   3.553  16.952  0.9125 -1.0097 -0.2131
18590TIP3   OH277260   0.175   0.500   3.509 -0.2938  0.0345 -0.0687
18590TIP3    H177261   0.267   0.473   3.518  0.5497  2.4054 -1.1048
18590TIP3    H277262   0.175   0.592   3.535 -2.2915  0.1963 -0.6104
18591TIP3   OH277263   3.439   1.100  15.828 -0.2349 -0.3312  0.3205
18591TIP3    H177264   3.527   1.070  15.851  0.1037  0.5540  0.2007
18591TIP3    H277265   3.453   1.158  15.753 -0.4372  3.2977  2.9730
18592TIP3   OH277266   2.036   6.408  16.367  0.4788 -0.1380 -0.3565
18592TIP3    H177267   2.041   6.315  16.348  0.5881  0.1312 -1.7257
18592TIP3    H277268   2.106   6.425  16.429 -1.2823 -1.4738  2.1036
18593TIP3   OH277269   3.433   2.893  12.584 -0.0901  0.0086  0.5275
18593TIP3    H177270   3.374   2.966  12.607 -0.2391 -0.4179  1.5180
18593TIP3    H277271   3.426   2.887  12.489 -1.9298 -0.2563  0.6589
18594TIP3   OH277272   5.647   1.287  15.571  0.8061  0.3288 -0.1369
18594TIP3    H177273   5.616   1.325  15.653  1.3154 -1.2370  0.7928
18594TIP3    H277274   5.699   1.211  15.597 -0.6520 -1.3425 -1.9863
18595TIP3   OH277275   5.012   3.036   1.058  0.3509 -0.0695 -1.3616
18595TIP3    H177276   4.932   3.016   1.008  0.5112  1.4503 -2.2419
18595TIP3    H277277   4.983   3.093   1.129  0.4870 -0.4080 -1.0314
18596TIP3   OH277278   5.300   1.046  13.682 -0.1564  0.2998  0.4708
18596TIP3    H177279   5.243   1.032  13.758 -0.1556 -0.1010  0.3999
18596TIP3    H277280   5.389   1.029  13.715  0.1677  3.1774  1.1686
18597TIP3   OH277281   2.487   6.530   0.517  0.3447 -0.4688 -0.5334
18597TIP3    H177282   2.576   6.540   0.483  0.4319 -0.3554 -0.2673
18597TIP3    H277283   2.477   6.600   0.581  0.7896 -1.7227  0.9608
18598TIP3   OH277284   6.228   3.862  15.669  0.1892 -0.1439 -0.6785
18598TIP3    H177285   6.142   3.837  15.703 -0.7588  0.1203 -2.7990
18598TIP3    H277286   6.280   3.783  15.675  0.4996  0.2396  2.6411
18599TIP3   OH277287   1.854   0.575   0.172 -0.0063 -0.1566  0.4842
18599TIP3    H177288   1.942   0.536   0.169 -0.3231 -0.8634  0.3226
18599TIP3    H277289   1.867   0.658   0.217  1.3517  1.3992 -2.6161
18600TIP3   OH277290   5.892   2.635   0.584  0.3138 -0.3848 -0.2093
18600TIP3    H177291   5.974   2.684   0.576 -0.2996  0.5353 -1.0977
18600TIP3    H277292   5.916   2.544   0.568  1.1357 -0.0911 -0.6464
18601TIP3   OH277293   5.969   0.234   3.070  0.1307 -0.1339  0.1165
18601TIP3    H177294   5.913   0.282   3.009  1.7703  0.1948 -1.1436
18601TIP3    H277295   6.004   0.160   3.019  1.9280  0.4404  0.4745
18602TIP3   OH277296   0.179   2.444   4.686  0.0579 -0.4289  0.4723
18602TIP3    H177297   0.231   2.394   4.624  0.8226 -1.1003  1.6225
18602TIP3    H277298   0.176   2.388   4.765 -0.6680  0.5075  1.1209
18603TIP3   OH277299   6.461   6.545  11.839  0.8144  0.0946 -0.0463
18603TIP3    H177300   6.507   6.512  11.762  0.7744 -0.5294  0.2039
18603TIP3    H277301   6.494   6.495  11.912 -1.3976 -1.4865 -0.0751
18604TIP3   OH277302   5.355   5.040   1.445  0.1340  0.8014  0.1361
18604TIP3    H177303   5.356   5.030   1.540 -2.7556 -0.8528  0.0647
18604TIP3    H277304   5.268   5.076   1.425  0.6583  1.0392 -1.8854
18605TIP3   OH277305   0.653   1.828  10.439  0.2715  0.5180 -0.4051
18605TIP3    H177306   0.729   1.790  10.484  1.5180 -0.1431 -2.9464
18605TIP3    H277307   0.676   1.920  10.428 -0.0162  0.6712  0.2491
18606TIP3   OH277308   6.230   0.070   4.749 -0.0146 -0.1667 -0.3832
18606TIP3    H177309   6.177   0.040   4.823  0.2247  0.2385 -0.0444
18606TIP3    H277310   6.169   0.075   4.676 -0.2869 -0.4179 -0.1727
18607TIP3   OH277311   6.264   3.983  12.093  0.5401 -0.1832  0.3701
18607TIP3    H177312   6.338   4.030  12.131 -0.1620  0.5038  0.9084
18607TIP3    H277313   6.270   4.000  11.999  0.5798  0.5857  0.5071
18608TIP3   OH277314   4.970   4.828   5.737 -0.3360 -0.0786 -0.7342
18608TIP3    H177315   4.897   4.889   5.748 -0.1011  0.2544 -1.0536
18608TIP3    H277316   5.048   4.882   5.737 -0.0368 -0.4971  0.2386
18609TIP3   OH277317   1.693   6.291  15.597 -0.0553  0.2167  0.1441
18609TIP3    H177318   1.775   6.242  15.591  0.4061  0.8235  1.4094
18609TIP3    H277319   1.699   6.358  15.528 -0.5747 -1.3066 -1.4151
18610TIP3   OH277320   3.377   6.695  16.775 -0.4323  0.5654 -0.0666
18610TIP3    H177321   3.455   6.695  16.720 -0.5102 -0.5714 -0.1883
18610TIP3    H277322   3.363   6.787  16.797  2.0162  0.5849  1.5192
18611TIP3   OH277323   5.034   5.640   3.914 -0.3627 -0.1727  0.4889
18611TIP3    H177324   5.029   5.722   3.962  2.6189  0.5345 -0.3075
18611TIP3    H277325   5.070   5.578   3.977  0.4740 -0.0598  0.1179
18612TIP3   OH277326   5.853   3.904   0.638 -0.4693  0.6227  0.3736
18612TIP3    H177327   5.862   3.993   0.604  2.6808 -0.3733 -1.6783
18612TIP3    H277328   5.815   3.854   0.566  0.9649 -0.3564  0.2691
18613TIP3   OH277329   1.508   2.863   4.944 -0.3697 -0.3538  0.0152
18613TIP3    H177330   1.531   2.785   4.996 -0.8121 -0.1171  0.5729
18613TIP3    H277331   1.561   2.855   4.865  0.6431 -0.4965  0.6961
18614TIP3   OH277332   3.941   6.593  15.374 -0.3644 -0.3040 -0.0346
18614TIP3    H177333   3.884   6.670  15.369 -1.9725 -1.4827 -0.4317
18614TIP3    H277334   3.972   6.580  15.284  0.6227  0.3990  0.2004
18615TIP3   OH277335   0.663   5.139  14.860 -0.5314 -0.2008 -0.3471
18615TIP3    H177336   0.752   5.133  14.893 -0.7412  2.4900  0.7966
18615TIP3    H277337   0.614   5.074  14.912  0.2382  0.1711  0.8535
18616TIP3   OH277338   6.153   4.620   3.518 -0.5875 -0.0797  0.4096
18616TIP3    H177339   6.157   4.581   3.431  0.7780  2.9279 -0.9297
18616TIP3    H277340   6.060   4.640   3.532 -0.4532  2.0459 -1.5795
18617TIP3   OH277341   0.357   1.949   1.535 -0.2423  0.2037 -0.0576
18617TIP3    H177342   0.347   1.855   1.543 -1.5707  0.3148 -0.2377
18617TIP3    H277343   0.323   1.984   1.617 -0.8661  0.5820 -0.4714
18618TIP3   OH277344   3.638   5.216   1.105  0.0419 -0.2068 -0.6248
18618TIP3    H177345   3.644   5.128   1.069 -0.0313 -1.6849  2.8318
18618TIP3    H277346   3.552   5.248   1.078 -1.1630 -2.3657  0.5738
18619TIP3   OH277347   4.563   0.780  16.679 -0.1049 -0.3144 -0.4520
18619TIP3    H177348   4.641   0.829  16.655  0.1045 -0.9900 -1.1628
18619TIP3    H277349   4.592   0.689  16.686 -1.0213 -0.7170 -1.7044
18620TIP3   OH277350   3.872   4.956   5.822  0.1701 -0.1191 -0.0534
18620TIP3    H177351   3.856   4.927   5.912 -1.2975 -1.3095 -0.6788
18620TIP3    H277352   3.863   5.052   5.826  0.4405 -0.1362  1.1191
18621TIP3   OH277353   4.422   1.693  13.169  0.5304 -0.6976 -0.9181
18621TIP3    H177354   4.362   1.654  13.105  0.2220  0.5088 -1.3864
18621TIP3    H277355   4.477   1.621  13.197  0.1929 -1.4028 -2.0160
18622TIP3   OH277356   2.178   0.965   0.899 -0.2412  0.2735  0.2122
18622TIP3    H177357   2.094   0.944   0.858 -0.2599  0.8554 -0.0416
18622TIP3    H277358   2.241   0.960   0.827 -0.1437  0.4084  0.2890
18623TIP3   OH277359   1.992   5.768  16.313  0.2408 -0.6115  0.1255
18623TIP3    H177360   1.913   5.805  16.352  0.3095 -1.0978  0.7331
18623TIP3    H277361   2.021   5.834  16.250 -0.2090 -0.0907  0.4655
18624TIP3   OH277362   4.938   1.403  15.514 -0.2603  0.1288  0.6498
18624TIP3    H177363   4.891   1.482  15.541 -0.4719 -0.3887  1.8158
18624TIP3    H277364   4.909   1.335  15.575  0.8393 -0.5586  0.4256
18625TIP3   OH277365   6.717   1.592   3.067 -0.1302 -0.2741  0.0135
18625TIP3    H177366   6.626   1.572   3.046  0.0171 -1.2654  0.3028
18625TIP3    H277367   6.766   1.516   3.035  0.7328  0.7432 -1.1812
18626TIP3   OH277368   0.249   3.311  11.172  0.0315 -0.3710 -0.2473
18626TIP3    H177369   0.260   3.347  11.260  1.2912 -2.8767  0.6843
18626TIP3    H277370   0.332   3.331  11.127 -0.3044  0.2204 -0.6060
18627TIP3   OH277371   1.697   3.706   0.002  0.3953  0.2145  0.1154
18627TIP3    H177372   1.671   3.703  -0.090 -2.4650  2.1224  0.7992
18627TIP3    H277373   1.781   3.752   0.002  0.6735 -0.2679 -1.5881
18628TIP3   OH277374   1.131   3.785  11.682  0.7106 -0.2221 -0.4284
18628TIP3    H177375   1.225   3.765  11.681  0.8272  0.3571 -1.2311
18628TIP3    H277376   1.101   3.764  11.593  0.2649  0.4814 -0.4478
18629TIP3   OH277377   5.648   4.525  13.415 -0.3866  0.0766 -0.0816
18629TIP3    H177378   5.649   4.563  13.503 -2.3108  0.6720 -0.3052
18629TIP3    H277379   5.664   4.600  13.357  0.0728 -0.1880 -0.3041
18630TIP3   OH277380   1.062   2.613   2.519 -0.2400 -0.1938 -0.5462
18630TIP3    H177381   1.077   2.519   2.526 -1.3940 -0.4575 -1.3343
18630TIP3    H277382   1.105   2.638   2.437 -1.7955 -0.4694 -1.4757
18631TIP3   OH277383   3.830   0.924   2.893 -0.2227  0.3425  0.2148
18631TIP3    H177384   3.854   1.004   2.846 -0.3117  1.3431  1.8309
18631TIP3    H277385   3.736   0.932   2.908 -0.3805 -0.4484 -0.2753
18632TIP3   OH277386   0.928   6.286  12.047 -0.3141 -0.0218 -0.0782
18632TIP3    H177387   0.934   6.203  12.001 -1.0160 -0.2762  0.2773
18632TIP3    H277388   0.847   6.279  12.099  0.4253  0.2654  1.1371
18633TIP3   OH277389   0.977   2.063   2.670  0.0965  0.0645  1.0269
18633TIP3    H177390   1.037   2.086   2.741 -0.0941  1.4580  0.7436
18633TIP3    H277391   0.958   2.145   2.626 -0.2374 -0.7050 -0.3013
18634TIP3   OH277392   3.995   2.945  15.840 -0.0001 -0.4541 -0.1427
18634TIP3    H177393   3.957   2.935  15.927  0.1569  0.0519 -0.0155
18634TIP3    H277394   3.941   2.889  15.784  0.3182 -1.3044  0.3920
18635TIP3   OH277395   4.003   2.890   4.466  0.2703 -0.3285 -0.2763
18635TIP3    H177396   4.086   2.865   4.506  0.6135  1.0320 -0.0984
18635TIP3    H277397   4.027   2.950   4.395 -0.5833  0.6012  0.1949
18636TIP3   OH277398   2.884   3.810  14.982  0.0826  0.0623 -0.1533
18636TIP3    H177399   2.910   3.797  14.891  1.1441 -0.1352  0.1742
18636TIP3    H277400   2.901   3.726  15.025 -0.8863  0.0008  0.1221
18637TIP3   OH277401   4.364   5.840   3.985 -0.6478 -0.7896  0.0067
18637TIP3    H177402   4.405   5.891   3.916 -0.9507  2.4113  2.0988
18637TIP3    H277403   4.428   5.773   4.008  1.3904  1.0796 -0.1317
18638TIP3   OH277404   2.579   1.593  12.204  0.8383 -0.5309  0.4723
18638TIP3    H177405   2.669   1.609  12.234  0.6342  3.4127 -0.7668
18638TIP3    H277406   2.570   1.647  12.126 -2.2640 -1.8031 -0.1028
18639TIP3   OH277407   2.877   6.214  13.227  0.6324 -0.0171  0.5939
18639TIP3    H177408   2.950   6.174  13.275  1.4376  0.3420 -0.3246
18639TIP3    H277409   2.911   6.228  13.139 -0.9891 -1.0716 -0.2150
18640TIP3   OH277410   2.585   2.574   3.202  0.0256  0.5897 -0.4545
18640TIP3    H177411   2.639   2.621   3.137  2.2107  1.3350  1.8361
18640TIP3    H277412   2.536   2.644   3.246  0.4338  0.3373  0.3971
18641TIP3   OH277413   3.952   1.654   1.568  0.1054 -0.3919 -0.1697
18641TIP3    H177414   4.038   1.695   1.563 -0.4334  0.8514  0.6119
18641TIP3    H277415   3.967   1.574   1.618  0.5770  0.4926  1.1406
18642TIP3   OH277416   3.898   1.259   1.677  0.0407  0.1164 -0.0191
18642TIP3    H177417   3.863   1.189   1.621 -2.1566  1.2268 -0.1135
18642TIP3    H277418   3.964   1.302   1.624  1.0235 -1.5303 -0.1646
18643TIP3   OH277419   5.728   5.082  16.918  0.0158  0.9007 -0.3168
18643TIP3    H177420   5.697   5.146  16.982 -0.7505 -0.2809  0.5120
18643TIP3    H277421   5.678   5.101  16.839 -0.6624  0.9163  0.1155
18644TIP3   OH277422   0.619   2.390  14.851  0.1160  0.0156 -0.3023
18644TIP3    H177423   0.531   2.352  14.859  0.0757  0.2957  0.7260
18644TIP3    H277424   0.620   2.432  14.766 -0.7520  0.0101 -0.3176
18645TIP3   OH277425   1.391   5.037  15.658 -0.1374  0.0720 -0.2131
18645TIP3    H177426   1.362   5.126  15.636 -1.0019 -0.0377  0.4729
18645TIP3    H277427   1.428   5.003  15.576 -1.4132  0.4280 -0.9493
18646TIP3   OH277428   4.234   1.822   6.010 -0.4008 -0.2042 -0.2130
18646TIP3    H177429   4.257   1.823   6.103 -0.2484  1.6516 -0.2599
18646TIP3    H277430   4.214   1.730   5.992 -0.9188 -0.5214  1.7767
18647TIP3   OH277431   1.692   1.791  13.675  0.0097 -0.4503 -0.0049
18647TIP3    H177432   1.639   1.856  13.630 -1.2317 -1.4653 -0.0471
18647TIP3    H277433   1.781   1.823  13.668 -0.5124  0.8813 -0.6358
18648TIP3   OH277434   4.200   2.292  16.837  0.3718  0.1909 -0.1798
18648TIP3    H177435   4.122   2.348  16.841 -0.0492 -0.3261 -0.9278
18648TIP3    H277436   4.226   2.280  16.928 -0.9290 -0.3285  0.1267
18649TIP3   OH277437   0.970   1.666  15.373 -0.1188  0.3509 -0.2947
18649TIP3    H177438   0.954   1.756  15.401 -2.5113 -0.6091  1.5649
18649TIP3    H277439   0.985   1.673  15.278 -3.5259  2.3709 -0.7649
18650TIP3   OH277440   2.207   1.039   0.208 -0.7481 -0.0341  0.3159
18650TIP3    H177441   2.225   1.125   0.246  3.2891 -0.9491  0.6927
18650TIP3    H277442   2.171   1.059   0.121 -0.7729  2.0400  0.7606
18651TIP3   OH277443   3.606   0.722   0.477  0.3183 -0.4226  0.6507
18651TIP3    H177444   3.664   0.649   0.452  1.1548  0.0425  1.2125
18651TIP3    H277445   3.661   0.778   0.532 -0.1324  0.9691 -0.2896
18652TIP3   OH277446   4.998   1.544   0.982  0.3870 -0.2174  0.1173
18652TIP3    H177447   5.059   1.543   1.056  0.1538 -2.1071  0.2926
18652TIP3    H277448   4.947   1.624   0.995  1.4253  0.2970  1.1160
18653TIP3   OH277449   2.582   0.970  13.104 -0.1462  0.0069 -0.1085
18653TIP3    H177450   2.596   1.018  13.023  1.3586  0.9100  0.6704
18653TIP3    H277451   2.625   1.023  13.171  0.9393 -2.0525  0.8774
18654TIP3   OH277452   2.704   3.190   0.073 -0.5018  0.1202 -0.3384
18654TIP3    H177453   2.706   3.220  -0.018 -1.0092 -1.2342 -0.8029
18654TIP3    H277454   2.632   3.128   0.077  0.6007 -1.1542  0.5652
18655TIP3   OH277455   2.835   5.670  14.479  0.0433 -0.2753 -0.7551
18655TIP3    H177456   2.852   5.763  14.467 -0.2856 -0.2164 -0.7585
18655TIP3    H277457   2.740   5.660  14.468  0.1040 -0.6435 -0.9749
18656TIP3   OH277458   2.387   4.363   0.418  0.5503 -0.2320 -0.1564
18656TIP3    H177459   2.342   4.281   0.399 -2.4123  1.1312  0.7792
18656TIP3    H277460   2.400   4.403   0.332  2.0818 -1.6494 -0.6282
18657TIP3   OH277461   4.954   5.396   3.753 -0.7136 -0.0190 -0.7788
18657TIP3    H177462   4.978   5.463   3.817 -0.8274 -1.3130  0.6492
18657TIP3    H277463   4.860   5.384   3.765 -0.7928 -0.0351 -1.4189
18658TIP3   OH277464   1.291   0.157  13.466  0.2160  0.4303 -0.1660
18658TIP3    H177465   1.323   0.232  13.516 -0.4450 -0.4169  1.5801
18658TIP3    H277466   1.198   0.174  13.453  0.5305  0.9795 -1.7332
18659TIP3   OH277467   0.630   3.381  16.199 -0.0297 -0.5749 -0.0850
18659TIP3    H177468   0.594   3.302  16.240  0.3768 -1.5264 -1.4829
18659TIP3    H277469   0.560   3.412  16.141  0.2941 -0.7177 -0.5630
18660TIP3   OH277470   2.392   2.304  11.196 -0.0953 -0.1054  0.5266
18660TIP3    H177471   2.435   2.318  11.112  1.1696 -0.9062  1.0314
18660TIP3    H277472   2.300   2.322  11.179  0.5989  2.9419 -0.2650
18661TIP3   OH277473   4.007   0.821  16.008  0.1719  0.1275  0.2688
18661TIP3    H177474   4.064   0.792  16.079  1.2495  1.1749 -0.1607
18661TIP3    H277475   4.065   0.866  15.946 -0.8761 -0.0829 -0.9004
18662TIP3   OH277476   4.788   5.536  14.356 -0.2659  0.1881 -0.5837
18662TIP3    H177477   4.694   5.531  14.371 -0.7056  1.8410 -2.4934
18662TIP3    H277478   4.806   5.463  14.296 -0.2874 -0.2810 -0.0199
18663TIP3   OH277479   2.761   2.277  10.459 -1.1907 -0.1179  0.0996
18663TIP3    H177480   2.685   2.278  10.402 -0.4087 -1.3520 -0.9908
18663TIP3    H277481   2.754   2.196  10.509 -2.0337  1.0961  2.0294
18664TIP3   OH277482   3.689   0.539   5.025  0.1311  0.5003 -0.1500
18664TIP3    H177483   3.735   0.480   5.086  0.4191  1.5468  0.6606
18664TIP3    H277484   3.658   0.482   4.955 -1.4243 -0.9644  1.6695
18665TIP3   OH277485   5.496   3.191  13.010 -0.1109 -0.1093  0.1333
18665TIP3    H177486   5.587   3.203  13.038 -0.0267 -1.6827  0.5757
18665TIP3    H277487   5.462   3.280  13.001  1.8749  0.5556 -1.4049
18666TIP3   OH277488   4.694   3.005   2.167  0.6035  0.3663  0.2975
18666TIP3    H177489   4.759   2.970   2.227  0.8445 -0.2627 -0.3201
18666TIP3    H277490   4.715   2.965   2.082  1.2010  2.4011 -0.5421
18667TIP3   OH277491   2.323   1.250  12.617  0.5928 -0.3070 -0.1078
18667TIP3    H177492   2.267   1.326  12.634  1.4871  0.3056  0.1561
18667TIP3    H277493   2.381   1.279  12.547 -0.0737 -1.2817 -1.0736
18668TIP3   OH277494   4.371   6.079  16.755 -0.5010  0.3329 -0.0194
18668TIP3    H177495   4.345   6.114  16.841  1.4685 -0.6015  0.9857
18668TIP3    H277496   4.354   5.985  16.761 -0.0976  0.2245 -0.5586
18669TIP3   OH277497   2.530   2.123  12.098 -0.3976 -0.1696 -0.4846
18669TIP3    H177498   2.478   2.157  12.172 -0.4192 -1.9286  0.3304
18669TIP3    H277499   2.482   2.152  12.020 -0.8458  0.9784  0.1979
18670TIP3   OH277500   0.439   1.315   5.411  0.1570 -0.6249 -0.0459
18670TIP3    H177501   0.502   1.373   5.454 -0.6004  0.6324 -0.5938
18670TIP3    H277502   0.427   1.243   5.472  1.3106 -0.3396  0.5420
18671TIP3   OH277503   0.810   2.199   1.878  0.5556 -0.3624  0.3976
18671TIP3    H177504   0.869   2.140   1.925 -0.6176 -0.0302  2.3303
18671TIP3    H277505   0.869   2.260   1.833  1.7176 -0.7530  1.3438
18672TIP3   OH277506   4.713   2.511  14.696 -0.2037 -0.1473  0.0392
18672TIP3    H177507   4.645   2.562  14.740 -0.3651 -0.7479  0.4834
18672TIP3    H277508   4.712   2.544  14.606  0.4673  1.4366  0.5792
18673TIP3   OH277509   5.845   2.954  13.943 -0.2014 -0.3171 -0.2529
18673TIP3    H177510   5.876   2.865  13.959  1.0234 -0.1321 -1.4829
18673TIP3    H277511   5.864   3.001  14.024  0.1837 -0.8960 -0.0058
18674TIP3   OH277512   5.065   3.561   5.371  0.8196  0.1508  0.2426
18674TIP3    H177513   5.021   3.513   5.442  1.6913 -1.8860 -0.5494
18674TIP3    H277514   5.045   3.653   5.389  3.7302  0.0130  5.0121
18675TIP3   OH277515   3.504   0.858   4.430 -0.0922 -0.7971  0.7542
18675TIP3    H177516   3.457   0.928   4.385 -1.4343 -1.3214  1.3173
18675TIP3    H277517   3.489   0.780   4.377 -0.2794 -1.0739  1.2141
18676TIP3   OH277518   2.966   0.817   3.112  0.2265  0.0155  0.5764
18676TIP3    H177519   3.060   0.826   3.095  0.1239  0.9501  0.4920
18676TIP3    H277520   2.959   0.819   3.208  0.0644  2.4901  0.5520
18677TIP3   OH277521   1.624   5.000  17.269  0.6693  0.4417  0.0330
18677TIP3    H177522   1.700   4.995  17.327  0.8572 -0.9915 -0.3097
18677TIP3    H277523   1.568   4.928  17.298 -0.3195  1.1814 -0.0410
18678TIP3   OH277524   3.219   6.254   3.162  0.3526 -0.3174 -0.3283
18678TIP3    H177525   3.251   6.250   3.072 -0.6994 -1.2167 -0.6643
18678TIP3    H277526   3.128   6.225   3.157  0.3161 -0.4715  1.0365
18679TIP3   OH277527   6.781   1.788   0.039  0.0843 -0.3215  0.4774
18679TIP3    H177528   6.694   1.827   0.049  0.7700  1.1833  0.7605
18679TIP3    H277529   6.827   1.810   0.121  1.9909  2.2636 -1.1900
18680TIP3   OH277530   0.741   3.278   1.156  0.0830  0.0821 -0.0810
18680TIP3    H177531   0.735   3.241   1.245 -1.3995  0.4347 -0.0216
18680TIP3    H277532   0.653   3.313   1.139  1.0412  2.2558 -0.7073
18681TIP3   OH277533   2.360   2.797  16.589  0.6492  0.3497 -0.7793
18681TIP3    H177534   2.315   2.760  16.665  2.0438 -2.0219 -1.0319
18681TIP3    H277535   2.391   2.882  16.619  1.9596 -0.9041  1.6589
18682TIP3   OH277536   3.213   6.186   4.627 -0.2633 -0.1571  0.1109
18682TIP3    H177537   3.307   6.176   4.614 -0.3146 -0.3736 -0.0974
18682TIP3    H277538   3.181   6.097   4.640 -0.8269 -0.3704 -2.4562
18683TIP3   OH277539   3.450   5.023  13.393 -0.4025 -0.2116 -0.5442
18683TIP3    H177540   3.438   5.046  13.485 -0.1073 -1.6487 -0.1442
18683TIP3    H277541   3.441   4.928  13.390  0.8499 -0.3162 -1.7940
18684TIP3   OH277542   2.208   6.062   0.635  0.0952  0.0635 -0.0189
18684TIP3    H177543   2.122   6.050   0.676 -0.2188 -1.7189 -1.1481
18684TIP3    H277544   2.199   6.142   0.583  0.5146  2.4127  3.3367
18685TIP3   OH277545   2.247   6.782  13.582  0.0034  0.0097  0.0971
18685TIP3    H177546   2.298   6.705  13.606  0.6112  0.3218 -0.1781
18685TIP3    H277547   2.224   6.824  13.665 -0.9848 -0.8804  0.2870
18686TIP3   OH277548   2.070   5.352   0.771 -0.2573 -0.4556  0.1557
18686TIP3    H177549   2.149   5.303   0.746 -1.2956 -3.8615  3.1474
18686TIP3    H277550   2.100   5.412   0.839  0.2166  0.1021 -0.5324
18687TIP3   OH277551   2.396   0.420   2.204  0.4113 -0.1690 -0.1691
18687TIP3    H177552   2.333   0.493   2.197  0.8866  0.0907 -1.7772
18687TIP3    H277553   2.469   0.446   2.149  1.1661 -1.2816  0.2975
18688TIP3   OH277554   3.175   3.372   4.581 -0.5606 -0.6490  0.4212
18688TIP3    H177555   3.159   3.348   4.490  0.5801 -0.2954  0.1211
18688TIP3    H277556   3.113   3.443   4.598 -2.3735 -2.2316  0.6370
18689TIP3   OH277557   4.068   6.180  14.482 -0.0973 -0.4225  0.6809
18689TIP3    H177558   4.007   6.215  14.418 -1.2184 -1.3467  1.2153
18689TIP3    H277559   4.144   6.238  14.478 -0.4713 -0.0247 -0.9196
18690TIP3   OH277560   5.185   2.554   5.864  0.0273 -0.8110  0.1552
18690TIP3    H177561   5.273   2.592   5.865  0.4814 -1.7984 -0.8079
18690TIP3    H277562   5.126   2.629   5.873  0.9333 -0.0115 -0.3977
18691TIP3   OH277563   1.160   2.303   4.857  0.6774 -0.1528 -0.5575
18691TIP3    H177564   1.207   2.326   4.777 -0.7048  2.2065 -0.7446
18691TIP3    H277565   1.069   2.290   4.828  0.3494 -0.1754  0.4711
18692TIP3   OH277566   1.639   0.018  15.230 -0.1225  0.3375  0.1826
18692TIP3    H177567   1.644   0.105  15.270 -3.2365  0.6479  0.0324
18692TIP3    H277568   1.545   0.001  15.223  0.4480 -2.8558 -0.2130
18693TIP3   OH277569   1.793   1.097  14.776  0.4395 -0.3635 -0.2798
18693TIP3    H177570   1.704   1.073  14.799  0.3881  0.3186  0.2622
18693TIP3    H277571   1.789   1.119  14.683  0.0885 -0.5327 -0.3044
18694TIP3   OH277572   2.549   3.624   5.509 -0.1068 -0.0815  0.4424
18694TIP3    H177573   2.618   3.631   5.442 -0.7547 -2.9798 -0.6245
18694TIP3    H277574   2.489   3.695   5.489  0.8598  0.4333 -0.6981
18695TIP3   OH277575   4.260   0.663   6.150 -0.6385  0.7288 -0.0924
18695TIP3    H177576   4.318   0.590   6.171  1.6150  2.6694  0.6948
18695TIP3    H277577   4.180   0.645   6.201 -0.1455 -1.1627  0.0677
18696TIP3   OH277578   2.847   6.091   1.073  0.5229  0.1695 -0.1317
18696TIP3    H177579   2.867   5.998   1.073  0.3845  0.1406 -0.0912
18696TIP3    H277580   2.858   6.119   1.163 -1.8828 -0.3300  0.3519
18697TIP3   OH277581   5.474   2.029   5.567 -0.5662  0.3839 -0.2878
18697TIP3    H177582   5.388   2.018   5.608 -1.4684  0.7281 -2.0044
18697TIP3    H277583   5.472   1.970   5.491  1.6443 -1.4060  0.9987
18698TIP3   OH277584   5.580   0.308  12.579  0.3997  0.1870 -0.4963
18698TIP3    H177585   5.614   0.330  12.492 -1.3284  0.0922 -1.2267
18698TIP3    H277586   5.537   0.223  12.567  0.4903 -0.0156  0.5555
18699TIP3   OH277587   6.814   1.233  16.780  0.5133 -0.2813 -0.7163
18699TIP3    H177588   6.779   1.322  16.785  1.0579 -0.0888 -0.2531
18699TIP3    H277589   6.869   1.224  16.858  3.0166  0.0859 -2.3701
18700TIP3   OH277590   5.851   5.786  11.989 -0.8854 -0.4049  0.4174
18700TIP3    H177591   5.881   5.796  12.079 -2.6798 -1.5563  1.1749
18700TIP3    H277592   5.762   5.752  11.997 -0.9275 -0.9028 -1.7980
18701TIP3   OH277593   0.786   4.149  13.208  0.4484 -0.0389  0.6422
18701TIP3    H177594   0.806   4.057  13.226  1.1767 -0.2085 -0.8787
18701TIP3    H277595   0.744   4.181  13.288  1.4182 -1.3275  1.7001
18702TIP3   OH277596   0.543   5.300   2.279 -0.4006 -0.0847  0.7917
18702TIP3    H177597   0.574   5.220   2.236  1.4770 -0.2832  2.4407
18702TIP3    H277598   0.466   5.273   2.329  0.9830 -1.1782  2.3744
18703TIP3   OH277599   0.257   3.624  11.290  0.2954 -0.2276  0.4663
18703TIP3    H177600   0.252   3.699  11.348  0.0989  0.1132  0.0167
18703TIP3    H277601   0.343   3.586  11.305  0.3089 -0.0401  0.8511
18704TIP3   OH277602   6.531   0.607   5.155 -0.8964  0.3321 -0.1036
18704TIP3    H177603   6.588   0.595   5.078  1.6793  2.2261  1.4521
18704TIP3    H277604   6.578   0.563   5.226 -2.4653  0.0291  0.7549
18705TIP3   OH277605   1.377   6.041  14.251 -0.0992  0.1876  0.3516
18705TIP3    H177606   1.379   5.960  14.201 -2.8531 -0.7968  1.6951
18705TIP3    H277607   1.429   6.023  14.329 -0.5498 -0.2458  0.5561
18706TIP3   OH277608   1.607   6.143  16.400 -0.4103 -0.1455 -0.4710
18706TIP3    H177609   1.556   6.215  16.363 -0.7045  0.7668  1.6596
18706TIP3    H277610   1.543   6.091  16.449  0.3497 -0.0820  0.6059
18707TIP3   OH277611   4.904   4.308  14.288 -0.4518  0.0185  0.1199
18707TIP3    H177612   4.816   4.308  14.251 -0.0866  0.7276 -0.7636
18707TIP3    H277613   4.955   4.363  14.229  0.2184  0.9044  1.4757
18708TIP3   OH277614   1.280   5.365   4.364 -0.0261 -0.1690  0.0314
18708TIP3    H177615   1.209   5.367   4.300 -0.9331 -0.8627  1.0269
18708TIP3    H277616   1.273   5.448   4.411 -1.4817 -1.1367  1.5507
18709TIP3   OH277617   3.818   3.518  11.798  0.1659  0.5053  0.1846
18709TIP3    H177618   3.851   3.510  11.887 -0.6330 -0.5717  0.3949
18709TIP3    H277619   3.766   3.439  11.784 -0.9546  1.3739 -0.7140
18710TIP3   OH277620   0.010   3.708   0.535  0.1554 -0.3223  0.0261
18710TIP3    H177621   0.011   3.640   0.468  1.2664 -1.0985  0.7926
18710TIP3    H277622   0.089   3.691   0.587 -0.8541  0.0623  1.7205
18711TIP3   OH277623   2.510   3.846   0.478  0.1745 -0.4795  0.2697
18711TIP3    H177624   2.603   3.866   0.493  0.0607  0.6064 -0.4519
18711TIP3    H277625   2.493   3.770   0.534  2.3376 -2.8011 -2.0900
18712TIP3   OH277626   5.454   1.439   1.166 -0.0637  0.2874  0.3294
18712TIP3    H177627   5.497   1.354   1.167  0.2559  0.4563  3.1126
18712TIP3    H277628   5.363   1.421   1.189 -0.5071  0.4694 -1.2021
18713TIP3   OH277629   3.535   1.836  15.472  0.3490 -0.0227  0.2233
18713TIP3    H177630   3.516   1.861  15.381  2.0343  0.4077 -0.0181
18713TIP3    H277631   3.489   1.902  15.525 -0.4999 -0.1759 -0.3107
18714TIP3   OH277632   1.759   4.941  15.506  0.3809 -0.3824  0.3133
18714TIP3    H177633   1.796   4.898  15.429 -0.2733 -1.0647  0.3630
18714TIP3    H277634   1.789   4.887  15.580  2.3648  1.2122  0.6954
18715TIP3   OH277635   3.993   4.869  11.284  0.4336 -0.3469 -0.1371
18715TIP3    H177636   4.066   4.853  11.344 -0.0217  1.5947  1.0025
18715TIP3    H277637   3.928   4.802  11.307  0.4638  0.0697  1.2266
18716TIP3   OH277638   0.553   1.111  16.015 -0.2097 -0.3285 -0.6407
18716TIP3    H177639   0.475   1.056  16.023  0.2033 -0.8440 -0.1262
18716TIP3    H277640   0.526   1.196  16.050 -0.6071 -0.4395 -0.6739
18717TIP3   OH277641   4.051   5.765  15.128  0.3990 -0.2229  0.0367
18717TIP3    H177642   4.062   5.859  15.115  1.3104 -0.3417 -0.1035
18717TIP3    H277643   4.141   5.731  15.130  0.0806 -1.0507  0.3473
18718TIP3   OH277644   1.697   0.325  16.692  0.2282 -0.4525 -0.2292
18718TIP3    H177645   1.676   0.271  16.616 -0.8872  2.1323 -1.8281
18718TIP3    H277646   1.614   0.333  16.740  0.2041  0.3951 -0.3917
18719TIP3   OH277647   0.430   1.398   3.965 -0.4213  0.4184 -0.2909
18719TIP3    H177648   0.418   1.477   4.016 -0.3878 -0.3125  0.8534
18719TIP3    H277649   0.517   1.406   3.926 -0.6657  1.2149 -0.6802
18720TIP3   OH277650   5.048   0.512   4.560  0.4196  0.3129 -0.6765
18720TIP3    H177651   5.014   0.451   4.494  1.6453 -0.9374 -0.1715
18720TIP3    H277652   5.095   0.578   4.509  1.0721 -0.4624 -1.0881
18721TIP3   OH277653   6.146   6.516   4.687  0.6132 -0.2957 -0.0252
18721TIP3    H177654   6.059   6.540   4.718  0.5609  0.8768 -1.0305
18721TIP3    H277655   6.206   6.561   4.747  0.5123  1.7536 -1.4069
18722TIP3   OH277656   4.729   3.620  15.595  0.4130  0.0480 -0.2184
18722TIP3    H177657   4.807   3.635  15.541 -0.1248  0.4668 -0.8924
18722TIP3    H277658   4.691   3.707  15.604  0.0212 -0.1602  0.0999
18723TIP3   OH277659   2.558   5.026   0.288  0.4264  0.0953 -0.3659
18723TIP3    H177660   2.598   5.099   0.242 -0.8640  0.6350 -0.6608
18723TIP3    H277661   2.519   4.973   0.219  1.5586 -1.0162 -0.1761
18724TIP3   OH277662   3.752   4.791  11.679  0.1585  0.7309  0.6461
18724TIP3    H177663   3.748   4.702  11.645  2.0702  0.8713  0.0006
18724TIP3    H277664   3.686   4.839  11.628 -0.7483 -0.2451  0.8745
18725TIP3   OH277665   6.583   3.043   0.873 -0.2478  0.3734  0.0567
18725TIP3    H177666   6.629   2.959   0.868 -2.1823 -0.7365  0.4578
18725TIP3    H277667   6.640   3.098   0.926  1.1285 -0.6366 -0.3387
18726TIP3   OH277668   3.392   2.190  15.834  0.0408 -0.0859  0.3190
18726TIP3    H177669   3.366   2.231  15.916  1.5087  1.4207  0.0442
18726TIP3    H277670   3.488   2.185  15.838  0.1487  0.1740 -1.3811
18727TIP3   OH277671   3.909   4.828  17.106  0.1125 -0.3467 -0.2219
18727TIP3    H177672   3.847   4.868  17.044  0.9818 -0.0656 -0.9181
18727TIP3    H277673   3.982   4.889  17.109  0.6072 -0.9589  0.1722
18728TIP3   OH277674   1.935   5.596   1.340 -0.0229  0.5059  0.1073
18728TIP3    H177675   1.971   5.673   1.383  0.9197  0.5399 -0.7095
18728TIP3    H277676   2.012   5.547   1.311 -0.5992 -0.8092  0.7142
18729TIP3   OH277677   5.031   1.540   4.978  0.5462 -0.2785 -0.1521
18729TIP3    H177678   5.041   1.446   4.967 -2.4001 -0.8094  1.2653
18729TIP3    H277679   4.984   1.569   4.899  2.2400  0.1853 -1.0167
18730TIP3   OH277680   2.945   1.683  15.673 -0.0295 -0.3626  0.1148
18730TIP3    H177681   2.901   1.724  15.598 -1.0110 -0.2647  0.7466
18730TIP3    H277682   2.961   1.755  15.733  0.5195 -0.4902  0.1198
18731TIP3   OH277683   6.096   3.832  14.689 -0.0074  0.1866  0.2674
18731TIP3    H177684   6.045   3.898  14.642  0.3698  1.0203  1.0290
18731TIP3    H277685   6.085   3.853  14.782  1.2496  0.0249  0.4667
18732TIP3   OH277686   3.878   5.369  12.474 -0.1280 -0.4077  0.5112
18732TIP3    H177687   3.945   5.376  12.406 -0.4669 -2.1632 -0.0305
18732TIP3    H277688   3.806   5.322  12.433 -0.0284 -2.1914  2.2648
18733TIP3   OH277689   2.518   4.363   0.886  0.0192 -0.2500 -0.1591
18733TIP3    H177690   2.577   4.362   0.962  2.6485 -1.7441 -2.1492
18733TIP3    H277691   2.532   4.449   0.846 -1.3357  0.5217  0.9765
18734TIP3   OH277692   3.991   2.640   1.849  0.0328  0.2465 -0.3832
18734TIP3    H177693   3.946   2.718   1.817 -0.4460  0.3249  0.4751
18734TIP3    H277694   4.079   2.671   1.872 -0.2878  0.6311  0.3543
18735TIP3   OH277695   4.903   0.066  11.545 -0.1851 -0.1057 -0.5565
18735TIP3    H177696   4.818   0.059  11.588 -1.6603  1.5366 -3.0580
18735TIP3    H277697   4.907   0.157  11.515  1.6438 -0.6646 -2.1055
18736TIP3   OH277698   3.190   3.089   0.050 -0.3397 -0.1050 -0.1495
18736TIP3    H177699   3.203   3.116   0.141 -1.9599  2.3049 -0.5979
18736TIP3    H277700   3.154   3.166   0.006  0.1044 -1.3200 -2.7826
18737TIP3   OH277701   2.959   2.361   3.913 -0.0731  0.5397 -0.1745
18737TIP3    H177702   3.049   2.330   3.914  0.8092  2.9856 -0.1024
18737TIP3    H277703   2.909   2.290   3.873  1.7512 -1.1501  0.4689
18738TIP3   OH277704   4.350   2.321   2.674  0.2403 -0.1668  0.3070
18738TIP3    H177705   4.283   2.336   2.740  0.7052  1.0779  0.5117
18738TIP3    H277706   4.407   2.254   2.712  0.1527  0.0994  0.9088
18739TIP3   OH277707   2.119   5.210   4.996  0.2502 -0.0337 -0.2087
18739TIP3    H177708   2.177   5.200   5.071  1.0745 -1.4236 -1.0149
18739TIP3    H277709   2.042   5.157   5.019  1.4831 -2.3907 -1.3004
18740TIP3   OH277710   1.147   6.592   1.711 -0.0674  0.3296  0.7589
18740TIP3    H177711   1.220   6.655   1.714 -0.9694  1.6314 -2.1613
18740TIP3    H277712   1.069   6.647   1.720 -0.8282 -0.4803 -0.8013
18741TIP3   OH277713   0.400   0.425  14.015  0.1381 -0.5551 -0.4621
18741TIP3    H177714   0.368   0.477  13.942 -1.6005 -1.0465 -0.0797
18741TIP3    H277715   0.421   0.489  14.083 -0.3916 -0.2546 -0.5834
18742TIP3   OH277716   0.446   4.318  11.599 -0.7465  0.3288 -0.0120
18742TIP3    H177717   0.506   4.387  11.625  1.9969 -2.1202  0.3944
18742TIP3    H277718   0.410   4.285  11.681 -0.7984  0.1596 -0.1027
18743TIP3   OH277719   6.798   3.856   4.630 -0.3531 -0.0340  0.2755
18743TIP3    H177720   6.752   3.797   4.570  0.0735 -0.0707 -0.0121
18743TIP3    H277721   6.817   3.933   4.577 -3.2340  1.4783  1.3210
18744TIP3   OH277722   4.443   4.904  16.383 -0.0842 -0.0659  0.7824
18744TIP3    H177723   4.381   4.893  16.455  0.2674 -0.3878  1.0401
18744TIP3    H277724   4.400   4.965  16.323 -0.9681 -0.8498  0.6080
18745TIP3   OH277725   4.837   0.227  13.371 -0.1883 -0.2519  1.0496
18745TIP3    H177726   4.828   0.245  13.278  0.2478 -1.6863  0.7266
18745TIP3    H277727   4.748   0.235  13.406 -0.3278  0.4371  0.5482
18746TIP3   OH277728   0.096   4.336  13.789 -0.0146  0.5877 -0.1259
18746TIP3    H177729   0.150   4.375  13.721 -0.6954  3.4856  0.8922
18746TIP3    H277730   0.008   4.370  13.772 -0.2558  1.1419  1.9469
18747TIP3   OH277731   4.167   3.892  10.984  0.3255  0.6270  0.4009
18747TIP3    H177732   4.131   3.837  11.054  1.1729  0.4654  0.7264
18747TIP3    H277733   4.093   3.942  10.952 -0.2673 -0.0004  0.7688
18748TIP3   OH277734   2.377   1.022  16.422  0.3402  0.0000  0.4235
18748TIP3    H177735   2.458   1.026  16.370 -0.9527  0.0556 -1.6268
18748TIP3    H277736   2.388   0.945  16.478  1.6745 -0.1637 -0.0373
18749TIP3   OH277737   2.097   1.880  15.356 -0.2340  0.3329 -0.1487
18749TIP3    H177738   2.092   1.877  15.452 -1.9489  0.0118 -0.2296
18749TIP3    H277739   2.171   1.824  15.334  0.3471  0.6255  0.9977
18750TIP3   OH277740   3.826   3.911  14.421 -0.1421  0.1698  0.2749
18750TIP3    H177741   3.921   3.927  14.418  0.1620 -1.6115 -0.3925
18750TIP3    H277742   3.789   3.994  14.452  1.6983  0.6269  1.3584
18751TIP3   OH277743   6.556   0.749   1.323 -0.0771  0.2538  0.1392
18751TIP3    H177744   6.564   0.680   1.389  0.4207  0.4165  0.2540
18751TIP3    H277745   6.466   0.781   1.332  0.5597  1.6300  2.1074
18752TIP3   OH277746   3.168   1.274   1.093 -0.2514 -0.3264  0.6278
18752TIP3    H177747   3.162   1.321   1.176  0.8198 -0.4530  0.7898
18752TIP3    H277748   3.242   1.315   1.048 -0.4511 -0.6543 -0.0125
18753TIP3   OH277749   4.710   1.701  10.725 -0.2384 -0.3634  0.4168
18753TIP3    H177750   4.722   1.713  10.631  3.4866 -1.2987  0.6785
18753TIP3    H277751   4.767   1.627  10.747 -0.0753  0.6408  3.6285
18754TIP3   OH277752   4.450   6.140   2.421  0.7820  0.2232 -0.1717
18754TIP3    H177753   4.440   6.229   2.453  0.0033  0.1655 -0.2410
18754TIP3    H277754   4.390   6.134   2.346  0.1820 -0.6148  0.3656
18755TIP3   OH277755   0.222   6.543   5.484 -0.0296 -0.4296 -0.0897
18755TIP3    H177756   0.313   6.518   5.503  0.1942  0.5864  0.2218
18755TIP3    H277757   0.189   6.473   5.428  1.9079  0.7448 -2.7833
18756TIP3   OH277758   5.441   1.601  12.617  0.3595  0.2430 -0.4289
18756TIP3    H177759   5.530   1.627  12.594 -0.2208  1.9145 -0.8285
18756TIP3    H277760   5.452   1.523  12.671  2.1704  1.4234  0.9759
18757TIP3   OH277761   3.171   1.786   4.168 -0.0051 -0.5005  0.0711
18757TIP3    H177762   3.179   1.752   4.078 -0.0279 -0.0046 -0.1180
18757TIP3    H277763   3.253   1.831   4.184 -0.3653  0.2007 -0.0327
18758TIP3   OH277764   1.596   2.355  12.731 -0.3970 -0.4222  0.1394
18758TIP3    H177765   1.611   2.305  12.812 -0.3297 -0.0443  0.3631
18758TIP3    H277766   1.547   2.431  12.759 -0.6464 -0.4476 -0.2298
18759TIP3   OH277767   2.757   0.913   5.746  0.3565  0.1794  0.3251
18759TIP3    H177768   2.695   0.865   5.691 -0.6291  0.2958  1.3195
18759TIP3    H277769   2.708   0.933   5.826  1.6909  0.2404  1.1445
18760TIP3   OH277770   1.614   3.472  16.408 -0.0243  0.3227 -0.5377
18760TIP3    H177771   1.677   3.503  16.342  1.4895 -0.8024  0.3566
18760TIP3    H277772   1.652   3.499  16.491 -0.4197 -0.8895  0.0417
18761TIP3   OH277773   1.790   2.687   2.697  0.2146  1.0995  0.0724
18761TIP3    H177774   1.833   2.711   2.615  0.6325 -2.0752 -0.7260
18761TIP3    H277775   1.861   2.678   2.759  0.0765  1.7479  0.3272
18762TIP3   OH277776   0.265   6.267   3.053 -0.8122  0.1889  0.5157
18762TIP3    H177777   0.178   6.300   3.033 -1.0791 -0.4293  0.6652
18762TIP3    H277778   0.321   6.345   3.049 -1.4244  0.6453  0.7774
18763TIP3   OH277779   1.010   2.576   0.044  0.0464  0.1505  0.2130
18763TIP3    H177780   0.925   2.560   0.003  0.9726 -1.4235 -1.1808
18763TIP3    H277781   1.033   2.492   0.083  1.4881  0.2456 -0.4215
18764TIP3   OH277782   0.577   3.181  14.020  0.0903 -0.0244 -0.0664
18764TIP3    H177783   0.635   3.256  14.033  2.0477 -0.9479 -3.0965
18764TIP3    H277784   0.624   3.108  14.061 -0.3391 -0.2123  0.0905
18765TIP3   OH277785   4.557   0.792  14.538  0.6992 -0.1133  0.1827
18765TIP3    H177786   4.633   0.752  14.496  0.1281 -0.8754 -0.1304
18765TIP3    H277787   4.581   0.885  14.546  1.6848 -0.3582  0.1520
18766TIP3   OH277788   0.227   2.392  16.098  0.7011 -0.5843 -0.4616
18766TIP3    H177789   0.199   2.401  16.189  2.0910  1.6105 -0.2147
18766TIP3    H277790   0.309   2.343  16.103  0.2725 -1.3229 -0.6242
18767TIP3   OH277791   4.711   1.941   3.112  0.0020 -0.1142  0.0721
18767TIP3    H177792   4.771   2.010   3.083 -1.6806  1.2519 -0.2058
18767TIP3    H277793   4.726   1.933   3.206  1.5611 -0.7347 -0.2086
18768TIP3   OH277794   2.352   0.709   1.820  0.1342  0.1784 -0.7812
18768TIP3    H177795   2.400   0.678   1.743 -0.0368 -0.1309 -0.7645
18768TIP3    H277796   2.375   0.802   1.827  0.0917  0.2283 -1.2503
18769TIP3   OH277797   6.605   1.967  13.418 -0.6830  0.0051  0.8192
18769TIP3    H177798   6.610   2.025  13.341  0.6282 -0.1775  0.7480
18769TIP3    H277799   6.556   2.018  13.483  1.4433  1.7105  1.1712
18770TIP3   OH277800   0.992   1.996  16.076  0.7002  0.4333  0.5099
18770TIP3    H177801   1.077   2.016  16.115  0.6115 -0.3151  1.1090
18770TIP3    H277802   0.990   1.900  16.069 -0.8197  0.2944  2.2555
18771TIP3   OH277803   6.764   2.145   0.987 -0.0021 -0.2474 -0.1306
18771TIP3    H177804   6.854   2.146   1.018 -0.2118  1.4122  0.4615
18771TIP3    H277805   6.754   2.059   0.946  1.0365 -1.4976  2.1675
18772TIP3   OH277806   2.749   4.472  14.699 -0.1741  0.2154  0.3548
18772TIP3    H177807   2.666   4.425  14.708  2.5523 -4.4377  3.1784
18772TIP3    H277808   2.742   4.545  14.761 -1.9191 -0.3492  0.8487
18773TIP3   OH277809   3.193   6.547  11.524 -0.4871 -0.7385 -0.8863
18773TIP3    H177810   3.193   6.642  11.535  0.6709 -0.9119  0.7825
18773TIP3    H277811   3.271   6.517  11.570 -1.7517 -2.6544  0.0997
18774TIP3   OH277812   5.619   0.967  14.060  0.3444  0.4804  0.0057
18774TIP3    H177813   5.676   1.038  14.032 -1.7007  1.1863 -2.4951
18774TIP3    H277814   5.629   0.900  13.992 -0.3305 -0.2008  0.5640
18775TIP3   OH277815   0.015   5.915  12.602  0.1366 -0.5923  0.0514
18775TIP3    H177816  -0.073   5.914  12.639 -0.2253 -1.5937 -0.7905
18775TIP3    H277817   0.011   5.852  12.530  1.9531 -1.8032  0.9642
18776TIP3   OH277818   3.461   6.782   5.682  0.0916 -0.7342  0.2430
18776TIP3    H177819   3.469   6.862   5.630  4.1135 -0.3441  1.3256
18776TIP3    H277820   3.450   6.814   5.772  2.6958 -1.3254  0.8078
18777TIP3   OH277821   0.144   6.499   4.782  0.2190  0.3162 -0.2851
18777TIP3    H177822   0.096   6.530   4.705  0.5769 -2.3969 -1.6948
18777TIP3    H277823   0.088   6.522   4.856 -1.6678  0.1825 -1.6318
18778TIP3   OH277824   1.159   4.955   1.885  0.3926 -0.0895 -0.1508
18778TIP3    H177825   1.079   5.003   1.861 -0.6763 -1.1321  1.2830
18778TIP3    H277826   1.227   5.022   1.887 -0.5044  0.8696 -1.0533
18779TIP3   OH277827   4.243   6.380  15.275  0.1561  0.2426  0.1143
18779TIP3    H177828   4.241   6.455  15.336  1.5610 -0.0253  0.4961
18779TIP3    H277829   4.335   6.358  15.267 -0.1550 -0.6860 -0.9627
18780TIP3   OH277830   5.645   4.682   0.945 -0.2373  0.2640 -0.1116
18780TIP3    H177831   5.713   4.683   0.877 -0.7070  0.4150 -0.5824
18780TIP3    H277832   5.635   4.589   0.968  0.2872  0.2632  0.1231
18781TIP3   OH277833   0.909   5.194  14.997  0.3604  0.1750  0.0662
18781TIP3    H177834   0.861   5.208  15.079 -1.7396 -1.2011 -0.8932
18781TIP3    H277835   0.933   5.101  14.999  1.1362  0.3572 -0.4736
18782TIP3   OH277836   1.025   5.628  15.653 -0.1610  0.4925 -0.0380
18782TIP3    H177837   0.998   5.568  15.723  0.3180  0.8553  0.4607
18782TIP3    H277838   0.954   5.692  15.648 -2.3207 -1.9611 -2.8207
18783TIP3   OH277839   2.263   5.332  14.842  0.4474  0.0295 -0.0778
18783TIP3    H177840   2.312   5.334  14.923 -0.2522  2.0164  0.3406
18783TIP3    H277841   2.211   5.251  14.846 -0.8983  0.9667  2.2754
18784TIP3   OH277842   5.999   4.027  12.165 -0.1311  0.3489  0.0245
18784TIP3    H177843   6.088   4.033  12.130 -0.3886 -0.8698 -0.8643
18784TIP3    H277844   6.004   4.070  12.250  0.7637  2.3811 -1.0223
18785TIP3   OH277845   2.292   3.214   3.458 -0.0997 -0.3647 -0.3796
18785TIP3    H177846   2.376   3.174   3.437 -0.7211 -1.4924 -0.7211
18785TIP3    H277847   2.256   3.160   3.528 -1.4258 -1.0603 -1.5764
18786TIP3   OH277848   2.004   1.062  13.141 -0.2956 -0.5702  0.6973
18786TIP3    H177849   2.081   1.089  13.191 -0.6797  1.0239  0.4546
18786TIP3    H277850   1.966   0.991  13.193  1.8383 -2.0104  0.3474
18787TIP3   OH277851   3.395   5.151   4.957  0.0987  0.3832  0.2942
18787TIP3    H177852   3.429   5.121   4.873 -0.0584 -0.1177  0.4079
18787TIP3    H277853   3.309   5.109   4.965 -0.6840  1.8631 -0.1185
18788TIP3   OH277854   6.743   5.593   0.373 -0.1909  0.4808  0.9021
18788TIP3    H177855   6.837   5.610   0.375 -0.1736  0.6940 -0.5645
18788TIP3    H277856   6.732   5.537   0.296 -1.1996  0.0200  1.3826
18789TIP3   OH277857   6.013   0.160   0.178 -0.3664 -0.0778 -0.3857
18789TIP3    H177858   6.015   0.076   0.224 -2.4358  1.0478  1.8427
18789TIP3    H277859   5.976   0.139   0.092 -1.2412 -1.3955  0.2913
18790TIP3   OH277860   4.008   2.786   3.152  0.3422 -0.7686 -0.5502
18790TIP3    H177861   3.998   2.852   3.083 -0.0840  0.5735  0.7685
18790TIP3    H277862   3.919   2.753   3.167 -0.3020  2.0373  2.3133
18791TIP3   OH277863   6.352   2.850  12.987 -0.3322  0.5548  0.2583
18791TIP3    H177864   6.344   2.794  13.064  0.4470  0.5349  0.3284
18791TIP3    H277865   6.445   2.849  12.966 -0.4007  1.3437 -0.1008
18792TIP3   OH277866   0.092   2.400   1.572 -0.0991  0.1269 -0.4216
18792TIP3    H177867   0.172   2.439   1.535 -0.0003  1.5016  1.2023
18792TIP3    H277868   0.090   2.311   1.535  1.9305  0.2333 -0.8521
18793TIP3   OH277869   4.585   4.680   3.227  0.1489 -0.1242 -0.3147
18793TIP3    H177870   4.616   4.762   3.267  0.5278 -0.9061  1.0251
18793TIP3    H277871   4.510   4.655   3.281  0.1800 -0.7924 -0.5850
18794TIP3   OH277872   6.192   4.563   4.410 -0.0971  0.4925  0.2100
18794TIP3    H177873   6.215   4.568   4.317  0.1651  1.4403  0.3203
18794TIP3    H277874   6.259   4.506   4.448 -0.6379 -0.5123 -0.3085
18795TIP3   OH277875   5.121   1.190  13.424  0.6636 -0.3982 -1.1303
18795TIP3    H177876   5.079   1.234  13.499  1.0619  0.3110 -1.3216
18795TIP3    H277877   5.104   1.097  13.439  0.3015 -0.2254 -0.4215
18796TIP3   OH277878   4.503   0.123  15.656 -0.7447  0.2884  0.5945
18796TIP3    H177879   4.474   0.174  15.732 -0.7299  0.9961  0.1286
18796TIP3    H277880   4.430   0.128  15.595 -0.9011 -0.5847  0.7054
18797TIP3   OH277881   4.260   1.658   5.681  0.2891  0.1888  0.0288
18797TIP3    H177882   4.336   1.694   5.727  0.3064 -0.0122  0.1583
18797TIP3    H277883   4.213   1.735   5.649  0.6681  0.3094 -0.2458
18798TIP3   OH277884   5.141   5.750  14.159  0.3039 -0.3226 -0.1490
18798TIP3    H177885   5.175   5.733  14.246  0.0911  0.2990  0.0597
18798TIP3    H277886   5.199   5.703  14.100 -0.0615 -1.4535  0.3926
18799TIP3   OH277887   3.028   0.903  11.604  0.3251  0.4748 -0.2602
18799TIP3    H177888   2.993   0.971  11.546  1.6929  1.2845 -0.1602
18799TIP3    H277889   3.072   0.952  11.674  1.6606 -0.5232 -0.3946
18800TIP3   OH277890   5.817   1.611   3.311  0.4760 -0.2400 -0.0410
18800TIP3    H177891   5.752   1.584   3.375 -0.7218  1.9058 -0.2883
18800TIP3    H277892   5.888   1.649   3.363 -0.2819  1.0602  0.0817
18801TIP3   OH277893   6.698   2.252  11.468 -0.0526  0.0970  0.0577
18801TIP3    H177894   6.682   2.162  11.438 -1.1477  1.2755 -3.0376
18801TIP3    H277895   6.612   2.284  11.495  0.2904  0.3190  0.9089
18802TIP3   OH277896   0.822   1.263  15.439 -0.0441  0.0045  0.1185
18802TIP3    H177897   0.779   1.203  15.378 -0.6660 -0.0078  0.5634
18802TIP3    H277898   0.751   1.318  15.472 -0.0140 -1.1239  2.1330
18803TIP3   OH277899   0.560   5.121   5.676 -0.0962  0.3103  0.0452
18803TIP3    H177900   0.545   5.111   5.582  0.1778  1.0020 -0.0791
18803TIP3    H277901   0.645   5.166   5.682  0.2709 -0.4585  0.6386
18804TIP3   OH277902   0.929   3.602  14.272  0.5332 -0.4045 -0.0568
18804TIP3    H177903   0.979   3.552  14.337 -0.4303 -1.5588 -0.1941
18804TIP3    H277904   0.838   3.573  14.284  0.5604 -1.8390 -3.0249
18805TIP3   OH277905   6.035   5.525   5.625 -0.1072 -0.6183 -0.1536
18805TIP3    H177906   6.074   5.550   5.709 -0.2181  1.4496 -0.6759
18805TIP3    H277907   5.941   5.527   5.641 -0.1553  0.6755 -0.5488
18806TIP3   OH277908   2.510   1.671   1.753  0.5318 -0.5000  0.0015
18806TIP3    H177909   2.592   1.691   1.799  0.2543 -0.8580  0.6520
18806TIP3    H277910   2.444   1.723   1.798  0.0480 -1.7792  0.8089
18807TIP3   OH277911   0.288   5.633  16.325 -0.2813  0.1819  0.3991
18807TIP3    H177912   0.271   5.555  16.271 -1.0373  0.2872  0.4830
18807TIP3    H277913   0.363   5.675  16.282  2.0195 -2.1139  2.0108
18808TIP3   OH277914   1.887   5.081   4.613 -0.6917 -0.1387  0.0446
18808TIP3    H177915   1.830   5.156   4.631 -0.2197  0.1193  0.5063
18808TIP3    H277916   1.975   5.120   4.607 -0.4562 -0.6408  0.1913
18809TIP3   OH277917   0.508   0.288   4.038  0.3523 -0.3242 -0.0146
18809TIP3    H177918   0.538   0.200   4.013  0.7745 -0.5953  1.4180
18809TIP3    H277919   0.563   0.347   3.986 -0.8747 -0.9011 -2.0325
18810TIP3   OH277920   1.336   2.052   6.100 -0.0320 -0.1062 -0.2680
18810TIP3    H177921   1.407   1.988   6.095 -0.7617 -0.9221 -0.2414
18810TIP3    H277922   1.357   2.105   6.177 -0.0753 -1.1147  0.4576
18811TIP3   OH277923   1.056   2.561   5.288  0.6842  0.3881  0.1856
18811TIP3    H177924   1.067   2.512   5.207  1.3033  0.0310  0.4824
18811TIP3    H277925   1.111   2.639   5.276 -0.4163  1.0836 -0.3458
18812TIP3   OH277926   0.408   4.970  15.912  0.6328  0.0559  0.1791
18812TIP3    H177927   0.464   4.898  15.883  0.9042  0.9575 -1.6065
18812TIP3    H277928   0.324   4.955  15.867 -0.7117 -1.4604  3.0716
18813TIP3   OH277929   3.775   2.659  12.598  0.1346 -0.5805 -0.4412
18813TIP3    H177930   3.697   2.650  12.652  0.0792 -0.7499 -0.5466
18813TIP3    H277931   3.746   2.637  12.509 -0.0544  0.8642 -0.7511
18814TIP3   OH277932   0.152   1.651   3.507 -0.0341 -0.4981 -0.1144
18814TIP3    H177933   0.221   1.607   3.557 -1.0011 -3.4494 -1.2412
18814TIP3    H277934   0.186   1.655   3.418  0.1032  1.2268  0.0112
18815TIP3   OH277935   2.236   5.791   4.434  0.5419  0.2102  0.0281
18815TIP3    H177936   2.203   5.767   4.347 -0.0628 -0.2152  0.3737
18815TIP3    H277937   2.325   5.822   4.418  0.3862  0.2632 -0.7633
18816TIP3   OH277938   2.890   4.520   0.859  0.0419 -0.0466  0.0297
18816TIP3    H177939   2.926   4.449   0.806  0.6947  0.6367 -0.4553
18816TIP3    H277940   2.941   4.518   0.940  0.6375  0.4102 -0.3316
18817TIP3   OH277941   2.370   4.876   1.675  0.0891 -0.7171  0.1589
18817TIP3    H177942   2.410   4.888   1.589  0.1491 -2.4052 -0.0678
18817TIP3    H277943   2.276   4.871   1.657  0.1395 -1.6113  0.1151
18818TIP3   OH277944   1.244   5.690  14.494 -0.0582 -0.3576  0.1699
18818TIP3    H177945   1.310   5.739  14.445 -0.3208 -0.4180 -0.2492
18818TIP3    H277946   1.160   5.722  14.460 -0.2557 -0.0731  0.8985
18819TIP3   OH277947   3.946   4.141   1.270 -0.1998 -0.0748  0.0296
18819TIP3    H177948   3.931   4.048   1.252 -3.3780  0.0458  1.7153
18819TIP3    H277949   3.983   4.142   1.359  1.0344  0.2272 -0.4753
18820TIP3   OH277950   3.992   3.833  14.159 -1.0321 -0.1416  0.1601
18820TIP3    H177951   4.005   3.765  14.093  2.4983  1.9210 -1.3763
18820TIP3    H277952   4.018   3.790  14.241 -0.1737 -1.1031 -0.5848
18821TIP3   OH277953   3.036   3.277   0.613 -0.2092  0.1243  0.0693
18821TIP3    H177954   3.035   3.183   0.627 -0.0639  0.2856  1.2346
18821TIP3    H277955   3.071   3.313   0.694  0.7863  1.1127 -0.7674
18822TIP3   OH277956   4.567   0.458   3.740 -0.1228  0.0473 -0.3938
18822TIP3    H177957   4.493   0.510   3.709  0.1119  0.4698 -0.2488
18822TIP3    H277958   4.607   0.424   3.660 -1.0856 -1.0419 -0.4282
18823TIP3   OH277959   1.762   3.480   0.487 -0.0001 -0.0406  0.3929
18823TIP3    H177960   1.729   3.491   0.397  0.1146 -0.7341  0.2696
18823TIP3    H277961   1.781   3.387   0.494  1.6392  0.3056  0.5814
18824TIP3   OH277962   2.532   0.614  13.363 -0.2034 -0.0594  0.0988
18824TIP3    H177963   2.500   0.547  13.424 -0.6031 -0.9481 -1.0795
18824TIP3    H277964   2.627   0.612  13.373 -0.3088  0.4465  1.3588
18825TIP3   OH277965   1.527   0.889  17.131 -0.1887  0.1681  0.1179
18825TIP3    H177966   1.584   0.821  17.093  0.9418  1.3524 -0.3446
18825TIP3    H277967   1.476   0.922  17.057  0.3259  0.8359  0.0532
18826TIP3   OH277968   1.065   4.872   3.741  0.1102 -0.1310  0.2536
18826TIP3    H177969   1.116   4.940   3.696  0.3888  0.1837  1.0463
18826TIP3    H277970   1.017   4.920   3.809 -0.2946 -0.6126  0.3054
18827TIP3   OH277971   3.662   1.522   2.082 -0.2391 -0.9077 -0.2777
18827TIP3    H177972   3.602   1.523   2.156 -0.2638  0.4962 -0.2946
18827TIP3    H277973   3.745   1.556   2.118 -0.0309 -0.9472 -0.7149
18828TIP3   OH277974   1.291   3.836   5.448 -0.1404  0.0995 -0.1999
18828TIP3    H177975   1.340   3.910   5.411 -1.3509  0.3678 -1.2983
18828TIP3    H277976   1.295   3.768   5.381 -1.3920  0.1799 -0.3716
18829TIP3   OH277977   5.473   4.556  11.851 -0.3287  0.7544 -0.4292
18829TIP3    H177978   5.504   4.515  11.931  1.6691  2.1672 -0.4261
18829TIP3    H277979   5.479   4.487  11.785  2.5147  0.8103 -0.3250
18830TIP3   OH277980   4.380   4.264   5.739 -0.6068  0.0349  0.3297
18830TIP3    H177981   4.413   4.195   5.797 -0.7338  0.9120  1.4415
18830TIP3    H277982   4.334   4.324   5.796 -0.1859  1.2506 -0.5917
18831TIP3   OH277983   5.795   1.303  10.759 -0.6413 -0.2449  0.1684
18831TIP3    H177984   5.779   1.209  10.768 -1.5374 -0.2826 -1.6844
18831TIP3    H277985   5.793   1.319  10.665  1.7118  1.2695  0.3312
18832TIP3   OH277986   1.253   6.474  16.997  0.0472 -0.4088  0.0823
18832TIP3    H177987   1.216   6.519  17.073  0.5676  0.1218  0.0286
18832TIP3    H277988   1.320   6.534  16.965  0.2135 -0.8844 -0.4609
18833TIP3   OH277989   4.002   5.772   5.050 -0.4813  0.0087  0.1604
18833TIP3    H177990   3.990   5.824   4.970 -0.6207  0.2467  0.3351
18833TIP3    H277991   4.086   5.728   5.037  1.2420  2.7773  1.3647
18834TIP3   OH277992   3.545   5.775  16.146 -0.0953 -0.0516  0.0153
18834TIP3    H177993   3.564   5.833  16.073  1.4534  2.0973  2.0837
18834TIP3    H277994   3.466   5.812  16.186  1.1596  0.8960  1.6164
18835TIP3   OH277995   1.719   4.928   2.295 -0.0991 -0.0644  0.0049
18835TIP3    H177996   1.663   4.915   2.371 -0.2643 -1.5568 -0.3518
18835TIP3    H277997   1.793   4.979   2.328 -0.6938  0.2095  0.9266
18836TIP3   OH277998   5.236   4.442  12.360  0.3660  0.0614 -0.1608
18836TIP3    H177999   5.281   4.514  12.405 -0.1574 -1.2510  2.5338
18836TIP3    H278000   5.304   4.402  12.306  0.3057  3.5014 -3.0026
18837TIP3   OH278001   0.467   4.167  11.370 -0.5859  0.3189  0.5393
18837TIP3    H178002   0.452   4.226  11.296 -0.3631  2.5333  2.1792
18837TIP3    H278003   0.467   4.225  11.446  2.0019 -1.5093  1.9964
18838TIP3   OH278004   6.591   3.586   3.615 -0.0751  0.0637 -0.4612
18838TIP3    H178005   6.536   3.658   3.583  1.4142  1.9074  0.9969
18838TIP3    H278006   6.539   3.507   3.601 -1.9942  1.4968 -1.5290
18839TIP3   OH278007   5.310   3.509  15.749 -0.1303 -0.2215  0.2850
18839TIP3    H178008   5.380   3.479  15.807 -1.1605 -3.3816  0.0199
18839TIP3    H278009   5.274   3.586  15.792  1.1173 -0.7395  2.3113
18840TIP3   OH278010   0.600   2.914   4.497 -0.2532  0.5918  0.2882
18840TIP3    H178011   0.630   2.841   4.443 -0.0495  1.2845 -0.5444
18840TIP3    H278012   0.559   2.872   4.573 -0.2237 -0.3850 -0.2244
18841TIP3   OH278013   0.658   0.524   0.513 -0.2288 -0.4108  0.1744
18841TIP3    H178014   0.640   0.515   0.607 -0.3150  0.6358  0.2655
18841TIP3    H278015   0.753   0.515   0.505 -0.0681  0.9298  0.5393
18842TIP3   OH278016   2.463   1.492  14.803  0.8762 -0.0169  0.0805
18842TIP3    H178017   2.524   1.460  14.870  0.2708 -0.5586  0.3833
18842TIP3    H278018   2.413   1.561  14.848 -0.2617 -1.1072  0.5336
18843TIP3   OH278019   2.573   0.733   2.319  0.2369  0.4634  0.3034
18843TIP3    H178020   2.608   0.757   2.233  1.9748 -0.5640  0.7077
18843TIP3    H278021   2.479   0.723   2.304  0.0777  3.2285 -0.8029
18844TIP3   OH278022   6.725   0.864  12.804 -0.1634  0.1335 -0.0837
18844TIP3    H178023   6.660   0.808  12.847  0.3151  0.2371  0.7655
18844TIP3    H278024   6.673   0.916  12.741 -1.2385  1.6975  2.0311
18845TIP3   OH278025   6.235   3.901   5.392  0.7236  0.1240 -0.6668
18845TIP3    H178026   6.295   3.865   5.458  1.4058  0.4898 -1.0884
18845TIP3    H278027   6.172   3.831   5.376  0.2409  0.2129  0.7561
18846TIP3   OH278028   1.988   6.283   5.801  0.6773 -0.8559 -0.5941
18846TIP3    H178029   2.069   6.269   5.850  0.8067 -1.2920 -0.9187
18846TIP3    H278030   1.918   6.278   5.866  0.9513  0.1441 -0.2141
18847TIP3   OH278031   4.427   4.721  17.012 -0.0360 -0.4355  0.4645
18847TIP3    H178032   4.395   4.666  17.084  1.5050 -1.7201  0.1836
18847TIP3    H278033   4.508   4.680  16.984  0.4740  1.2619 -0.6260
18848TIP3   OH278034   4.692   5.010   3.808 -0.4322  0.2623  0.1136
18848TIP3    H178035   4.611   4.993   3.857 -0.6619  1.1573  0.0570
18848TIP3    H278036   4.751   5.048   3.873  0.3485 -1.4410  0.4290
18849TIP3   OH278037   4.421   1.493   1.403  0.2866  0.1948 -0.4224
18849TIP3    H178038   4.455   1.578   1.432  0.2090 -0.0191  0.3143
18849TIP3    H278039   4.495   1.452   1.359 -0.3776  1.6383 -2.9697
18850TIP3   OH278040   3.549   0.450   2.909 -0.3964  0.0805  0.1857
18850TIP3    H178041   3.460   0.422   2.932 -0.7012  1.1775  0.3690
18850TIP3    H278042   3.606   0.383   2.947 -1.1051 -0.2436  0.6884
18851TIP3   OH278043   0.741   5.598  14.387  0.3085 -0.0187  0.0920
18851TIP3    H178044   0.792   5.570  14.462 -0.6406 -1.4509  0.2139
18851TIP3    H278045   0.745   5.525  14.326  1.2543  1.2152 -1.3607
18852TIP3   OH278046   5.861   1.364   4.501 -0.0640  0.3485  0.6384
18852TIP3    H178047   5.870   1.459   4.507  2.1003  0.2028 -0.0926
18852TIP3    H278048   5.810   1.350   4.422  1.2156  0.8452 -0.2901
18853TIP3   OH278049   1.221   4.585  15.295 -0.3191 -0.2339  0.1538
18853TIP3    H178050   1.218   4.491  15.279  0.1400 -0.2977  0.4260
18853TIP3    H278051   1.189   4.624  15.213 -0.0915 -0.6182 -0.1222
18854TIP3   OH278052   6.123   6.031   5.551  0.0717  0.1871  1.0370
18854TIP3    H178053   6.042   5.999   5.591  0.3735 -1.9192  0.0162
18854TIP3    H278054   6.094   6.076   5.472 -0.0879 -0.9089  0.4630
18855TIP3   OH278055   2.822   2.915   3.819  0.0510  0.2866  0.0468
18855TIP3    H178056   2.891   2.849   3.813 -1.1717 -0.9894  0.0664
18855TIP3    H278057   2.848   2.982   3.755 -0.1915 -1.5738 -2.0518
18856TIP3   OH278058   0.203   2.554  15.436 -0.1441  0.4586 -0.0286
18856TIP3    H178059   0.146   2.561  15.512 -0.4058  0.1333 -0.1925
18856TIP3    H278060   0.267   2.624  15.447  0.0579  0.1667  0.6940
18857TIP3   OH278061   5.264   1.562  15.569  0.5462  0.4514 -0.2307
18857TIP3    H178062   5.315   1.557  15.650  0.2214  2.2820  0.1081
18857TIP3    H278063   5.195   1.626  15.587 -1.1848 -1.1346 -1.0706
18858TIP3   OH278064   2.095   3.897   2.979 -0.1343 -0.3003  0.0529
18858TIP3    H178065   2.051   3.822   2.939 -0.9702  0.0070  0.3798
18858TIP3    H278066   2.134   3.862   3.059  0.2277 -0.5739 -0.2394
18859TIP3   OH278067   0.157   5.109  10.981 -0.1149  0.4564  0.2295
18859TIP3    H178068   0.203   5.061  10.913  1.0995  1.1208  0.5658
18859TIP3    H278069   0.178   5.201  10.964  1.7707  0.5149  2.5926
18860TIP3   OH278070   5.238   3.470  13.903 -0.0512  0.3061 -0.1113
18860TIP3    H178071   5.328   3.504  13.900  0.4579 -1.1441 -2.4569
18860TIP3    H278072   5.239   3.404  13.972  1.4312 -1.6241 -1.9137
18861TIP3   OH278073   4.398   3.125   1.116 -0.3782  0.0302  0.0387
18861TIP3    H178074   4.389   3.219   1.101 -3.6997 -0.5560 -2.2187
18861TIP3    H278075   4.343   3.108   1.193 -0.3507 -0.2025  0.0079
18862TIP3   OH278076   3.078   4.363   6.319 -0.0688 -0.4104  0.3275
18862TIP3    H178077   3.139   4.301   6.358 -0.2944 -1.4295 -0.8970
18862TIP3    H278078   3.024   4.310   6.260 -0.7059  0.8365 -0.2449
18863TIP3   OH278079   1.695   5.202   1.152 -0.1853  0.1708 -0.0698
18863TIP3    H178080   1.785   5.227   1.130 -0.0021  0.6855  1.2185
18863TIP3    H278081   1.666   5.149   1.078  0.3850  1.8970 -1.5519
18864TIP3   OH278082   5.146   6.820  17.205 -0.1325  0.2224 -0.0766
18864TIP3    H178083   5.208   6.761  17.163  0.3028 -1.0137  2.2765
18864TIP3    H278084   5.182   6.907  17.189  1.9200 -0.4421  0.8004
18865TIP3   OH278085   4.258   1.018   0.892 -0.0930 -0.2589  0.6267
18865TIP3    H178086   4.316   0.943   0.881 -0.7061 -0.8140  1.1624
18865TIP3    H278087   4.255   1.059   0.805  1.6603  0.1995  0.7492
18866TIP3   OH278088   0.197   3.178  12.952 -0.0024 -0.6715 -0.0973
18866TIP3    H178089   0.105   3.172  12.924 -0.0687  0.5865 -0.1750
18866TIP3    H278090   0.245   3.124  12.889 -0.5178 -0.1976 -0.9074
18867TIP3   OH278091   5.684   5.095  11.434  0.1591  0.1438  0.0476
18867TIP3    H178092   5.763   5.047  11.457 -0.6000 -1.4739 -0.6178
18867TIP3    H278093   5.616   5.027  11.426 -1.0368  1.3756 -0.4667
18868TIP3   OH278094   6.127   5.078  13.076 -0.0811  0.1300  0.0850
18868TIP3    H178095   6.209   5.033  13.054 -2.7433 -3.6047 -2.9375
18868TIP3    H278096   6.120   5.147  13.010 -0.2145 -0.7221 -0.8118
18869TIP3   OH278097   0.744   3.075  16.078  0.7463  0.0408  0.2293
18869TIP3    H178098   0.808   3.031  16.023 -1.9381 -0.3995 -2.6281
18869TIP3    H278099   0.758   3.168  16.062  0.1748 -0.0786 -1.0152
18870TIP3   OH278100   2.191   6.101  13.734  0.6428  0.3682  0.4156
18870TIP3    H178101   2.218   6.133  13.820  0.9167 -0.2476  0.5636
18870TIP3    H278102   2.245   6.149  13.672  1.3632 -0.1199  0.6606
18871TIP3   OH278103   0.357   5.504  13.153 -0.2323 -0.4867 -0.0857
18871TIP3    H178104   0.281   5.557  13.177 -1.0105 -1.1206 -1.0757
18871TIP3    H278105   0.424   5.527  13.216  0.0154  2.9072 -1.5192
18872TIP3   OH278106   1.478   0.779  16.789 -0.4795 -0.7054 -0.1092
18872TIP3    H178107   1.500   0.707  16.848  1.9244 -0.2982 -0.4535
18872TIP3    H278108   1.433   0.737  16.716 -2.2431 -1.3840  1.3310
18873TIP3   OH278109   5.179   0.324  10.759 -0.2021 -0.3562  0.3279
18873TIP3    H178110   5.240   0.398  10.766 -0.4039  0.2087 -2.8890
18873TIP3    H278111   5.094   0.365  10.744 -0.1901 -1.1741 -2.3012
18874TIP3   OH278112   3.721   3.264   4.520 -0.0688  0.2630 -0.1606
18874TIP3    H178113   3.686   3.189   4.569  1.5719  0.3129  1.1139
18874TIP3    H278114   3.690   3.341   4.569  0.2896  0.3527 -0.0736
18875TIP3   OH278115   4.395   2.147  12.436  0.2774 -0.2060  0.1611
18875TIP3    H178116   4.453   2.172  12.364  0.9633 -0.7594  0.5069
18875TIP3    H278117   4.376   2.229  12.481 -4.1375  0.9503 -3.4762
18876TIP3   OH278118   4.883   1.790  11.805  0.1305 -0.2861 -0.1165
18876TIP3    H178119   4.878   1.710  11.753 -0.9138 -1.5084  1.8024
18876TIP3    H278120   4.793   1.806  11.834  0.0172  2.5748 -1.8921
18877TIP3   OH278121   5.550   4.118   4.962 -1.0144  0.5604  0.3245
18877TIP3    H178122   5.503   4.116   5.045 -0.1778  1.1315  0.8227
18877TIP3    H278123   5.622   4.055   4.974 -3.4244 -2.7141 -1.5407
18878TIP3   OH278124   6.749   3.859  14.361  0.6687 -0.0977  0.8543
18878TIP3    H178125   6.779   3.858  14.270 -0.4935  1.8688  0.4046
18878TIP3    H278126   6.664   3.815  14.358  0.9505 -0.6640  1.1240
18879TIP3   OH278127   6.490   0.988   2.932 -0.1454  0.6164 -0.1492
18879TIP3    H178128   6.560   0.925   2.917  1.2443  2.8780 -3.8318
18879TIP3    H278129   6.491   1.003   3.027  2.5901 -1.3559  0.1772
18880TIP3   OH278130   1.717   3.308   4.695  0.3928  0.3066  0.4900
18880TIP3    H178131   1.622   3.309   4.712  0.6708  3.3975  2.0854
18880TIP3    H278132   1.746   3.223   4.729 -1.7728 -0.6860 -0.0177
18881TIP3   OH278133   0.118   4.516   3.197 -0.4783  0.2840 -0.4497
18881TIP3    H178134   0.206   4.484   3.216 -1.1575 -1.3257  0.0889
18881TIP3    H278135   0.101   4.489   3.107 -0.1618  1.1958 -0.7824
18882TIP3   OH278136   0.569   0.004  16.601  0.0147  0.6678  0.1806
18882TIP3    H178137   0.587   0.080  16.545  3.6119 -1.3287 -1.5974
18882TIP3    H278138   0.536  -0.062  16.540 -0.0664 -0.1947  1.1628
18883TIP3   OH278139   5.374   1.666  11.857 -0.3530  0.1778 -0.3703
18883TIP3    H178140   5.417   1.747  11.883  0.9030  0.0043 -1.8564
18883TIP3    H278141   5.422   1.636  11.780 -2.2400 -0.7800 -1.2318
18884TIP3   OH278142   5.599   2.932   1.402  0.4565 -0.3987  0.4923
18884TIP3    H178143   5.535   2.872   1.364  0.1131  0.1584  0.1719
18884TIP3    H278144   5.674   2.929   1.343  0.4694 -0.5750  0.5197
18885TIP3   OH278145   6.321   0.636   4.957  0.2319 -0.6658  0.6941
18885TIP3    H178146   6.408   0.618   4.993  0.8127 -0.1115 -0.4021
18885TIP3    H278147   6.261   0.602   5.023  1.2592  0.2659  2.1601
18886TIP3   OH278148   3.606   3.371   1.597 -0.4775  0.2536 -0.2300
18886TIP3    H178149   3.610   3.459   1.560 -0.4816  0.6969  0.8055
18886TIP3    H278150   3.667   3.373   1.671 -1.7534 -0.0993  0.8617
18887TIP3   OH278151   4.232   6.302  15.953  0.0104 -0.1975 -0.2839
18887TIP3    H178152   4.246   6.262  15.867 -0.5962 -0.5597 -0.2147
18887TIP3    H278153   4.144   6.274  15.979 -0.8042  1.9785 -0.6511
18888TIP3   OH278154   0.535   2.170  12.407  0.1469  0.3754  0.0515
18888TIP3    H178155   0.562   2.154  12.498 -0.6634 -1.0438  0.0601
18888TIP3    H278156   0.579   2.252  12.383  0.9480  0.3849  1.4816
18889TIP3   OH278157   0.480   1.748  11.196 -0.0083 -0.1691 -0.4402
18889TIP3    H178158   0.478   1.734  11.101 -1.7120 -0.4990 -0.3714
18889TIP3    H278159   0.495   1.662  11.233 -0.7773 -0.2746 -0.3652
18890TIP3   OH278160   4.002   3.118  14.015  0.3680 -0.3091 -0.0915
18890TIP3    H178161   4.071   3.120  13.949  0.3413 -1.5093 -0.1678
18890TIP3    H278162   3.946   3.045  13.989 -0.9980  0.7037 -0.0842
18891TIP3   OH278163   2.016   6.516   6.548  0.2628 -0.0005 -0.7775
18891TIP3    H178164   2.053   6.594   6.590  1.3666 -1.2827  0.7091
18891TIP3    H278165   2.092   6.457   6.535 -0.6604 -1.1229 -1.2034
18892TIP3   OH278166   5.136   6.583   2.896  0.5973  0.1794  0.1203
18892TIP3    H178167   5.139   6.606   2.989  0.2289 -0.5185  0.3043
18892TIP3    H278168   5.224   6.553   2.876  0.6311  0.1695  0.2811
18893TIP3   OH278169   4.407   0.365  13.677 -0.3193  0.3910  0.1567
18893TIP3    H178170   4.339   0.320  13.627 -1.2747  0.8456  1.0221
18893TIP3    H278171   4.383   0.351  13.768  0.4770  0.9683  0.4647
18894TIP3   OH278172   3.543   2.624  12.691 -0.9287  0.7320  0.5239
18894TIP3    H178173   3.480   2.684  12.652 -1.0459  1.4583  1.8258
18894TIP3    H278174   3.503   2.538  12.682  0.3731  0.4758 -3.6918
18895TIP3   OH278175   3.246   0.629  12.360  0.1460 -0.0557  0.2601
18895TIP3    H178176   3.161   0.585  12.358 -0.0945  0.4383 -1.1871
18895TIP3    H278177   3.303   0.572  12.308  0.2498  0.4920 -0.2355
18896TIP3   OH278178   3.107   1.121  12.776 -0.0099 -0.4699  0.1609
18896TIP3    H178179   3.012   1.113  12.762 -0.3419 -0.3511  2.1332
18896TIP3    H278180   3.122   1.216  12.779 -0.0268 -0.4849  0.9453
18897TIP3   OH278181   0.658   3.982  12.765  0.3032 -0.4321 -0.0127
18897TIP3    H178182   0.666   3.950  12.855 -0.4653 -1.8564 -0.4361
18897TIP3    H278183   0.745   4.018  12.745  0.3740  0.2221  1.4117
18898TIP3   OH278184   1.321   0.076   6.141  0.4165 -0.4553 -0.3981
18898TIP3    H178185   1.357   0.149   6.091 -1.3317  1.9128  1.6745
18898TIP3    H278186   1.359   0.086   6.229 -0.5156 -1.5644  0.1473
18899TIP3   OH278187   2.313   6.083   0.941  0.5436  0.2225 -0.3744
18899TIP3    H178188   2.303   6.047   0.853  1.5089  0.2333 -0.4897
18899TIP3    H278189   2.322   6.177   0.927  4.6562 -0.1300 -0.5901
18900TIP3   OH278190   3.505   0.267   0.274  0.5408  0.1165 -0.4380
18900TIP3    H178191   3.438   0.332   0.294  1.6477  0.7855  1.2384
18900TIP3    H278192   3.516   0.272   0.179 -0.7472  1.0096 -0.5542
18901TIP3   OH278193   5.939   5.822   5.715  0.2739  0.1315 -0.5299
18901TIP3    H178194   5.845   5.838   5.706  0.1801  0.0671  0.3467
18901TIP3    H278195   5.946   5.732   5.745  0.5716  0.4838  0.4693
18902TIP3   OH278196   1.066   5.341   0.785 -0.0841 -0.0880 -0.7196
18902TIP3    H178197   1.021   5.353   0.868  0.6793  0.3585 -0.3700
18902TIP3    H278198   0.997   5.349   0.719 -0.7995 -1.0934 -0.1060
18903TIP3   OH278199   2.634   4.196  13.408  0.2570  0.1002 -0.7595
18903TIP3    H178200   2.541   4.197  13.388 -0.0196 -1.5891  0.3417
18903TIP3    H278201   2.676   4.166  13.327 -0.0765  1.5622 -1.4849
18904TIP3   OH278202   3.284   4.919   0.926  0.6403 -0.0718 -0.3715
18904TIP3    H178203   3.300   4.831   0.961 -0.1134 -0.7593 -1.7180
18904TIP3    H278204   3.336   4.923   0.845 -0.2591  0.2933 -0.9378
18905TIP3   OH278205   1.409   0.734   4.199  0.2622 -0.2238  0.1507
18905TIP3    H178206   1.491   0.689   4.217 -0.3313 -1.4901 -0.2817
18905TIP3    H278207   1.407   0.744   4.104  0.3528  0.6672  0.2322
18906TIP3   OH278208   4.300   0.870  14.413  0.0451  0.0395 -0.3571
18906TIP3    H178209   4.210   0.843  14.431  0.3745 -2.4492 -2.1502
18906TIP3    H278210   4.354   0.811  14.465  0.6766  0.3418 -0.6636
18907TIP3   OH278211   6.694   1.362   4.551  0.3677 -0.7694  0.5119
18907TIP3    H178212   6.668   1.417   4.477  2.3882  1.6948  1.5781
18907TIP3    H278213   6.628   1.380   4.619 -0.8178 -2.1588 -0.2347
18908TIP3   OH278214   0.622   3.054   5.322  0.1719 -0.0778  0.2150
18908TIP3    H178215   0.586   3.097   5.245 -2.2147 -0.4821  1.0684
18908TIP3    H278216   0.631   2.962   5.296  0.7692  0.0508 -0.0480
18909TIP3   OH278217   4.620   2.253  17.167  0.1297 -0.2197 -0.2997
18909TIP3    H178218   4.575   2.308  17.102  1.0288  0.3429 -0.4502
18909TIP3    H278219   4.617   2.306  17.247 -2.0309 -1.4055  0.4543
18910TIP3   OH278220   0.537   1.696  15.652 -0.1493  0.1198  0.3427
18910TIP3    H178221   0.606   1.762  15.659  0.6726 -0.6849  0.0276
18910TIP3    H278222   0.479   1.714  15.725  1.9522 -0.9767  2.3417
18911TIP3   OH278223   6.430   3.508   4.315 -0.3974  0.4362  0.5858
18911TIP3    H178224   6.358   3.566   4.342  0.1372  1.3211  0.1308
18911TIP3    H278225   6.460   3.545   4.232 -2.8097 -2.8941 -1.9236
18912TIP3   OH278226   2.887   1.330  14.952 -0.4240 -0.0761  0.0133
18912TIP3    H178227   2.907   1.241  14.923 -0.2327 -0.0363  0.0240
18912TIP3    H278228   2.943   1.343  15.028 -0.1875  0.1831 -0.2054
18913TIP3   OH278229   6.660   4.217   1.901  0.9725 -0.6042 -0.6418
18913TIP3    H178230   6.688   4.222   1.992 -0.0132  0.3334 -0.3703
18913TIP3    H278231   6.658   4.309   1.872  1.7693 -0.9375 -1.7561
18914TIP3   OH278232   0.227   4.652  12.725 -0.0729  0.0454 -0.6248
18914TIP3    H178233   0.154   4.634  12.785  1.3125  0.7661  1.3310
18914TIP3    H278234   0.211   4.741  12.694 -0.6643 -0.2436 -1.1818
18915TIP3   OH278235   4.039   4.226   6.578 -0.2619 -0.0442 -0.1233
18915TIP3    H178236   4.061   4.218   6.671 -0.0038 -2.6338 -0.3676
18915TIP3    H278237   4.108   4.281   6.542  0.3177 -0.0252  0.9793
18916TIP3   OH278238   5.618   3.921   5.864  0.3874 -0.3754  0.1315
18916TIP3    H178239   5.654   3.838   5.895 -1.9023 -2.1843 -1.8432
18916TIP3    H278240   5.531   3.925   5.902  0.6850  1.4279  0.6547
18917TIP3   OH278241   0.169   0.534   0.767 -0.1162  0.2485  0.2353
18917TIP3    H178242   0.183   0.552   0.674  0.2710  1.9709  0.6120
18917TIP3    H278243   0.218   0.454   0.783 -1.2016 -0.7577 -1.3165
18918TIP3   OH278244   1.799   5.378  12.993 -0.1498 -0.1417 -0.1813
18918TIP3    H178245   1.705   5.394  12.991 -0.0833  0.6408  1.8093
18918TIP3    H278246   1.827   5.405  13.081  1.8291 -0.9557 -0.5177
18919TIP3   OH278247   4.865   4.870  14.147 -0.1568 -0.0869 -0.9142
18919TIP3    H178248   4.809   4.795  14.166  0.0392 -0.1945 -0.7525
18919TIP3    H278249   4.849   4.931  14.219 -0.7543  0.2796 -1.3592
18920TIP3   OH278250   5.119   1.662   4.526 -0.6071 -0.1104 -0.1444
18920TIP3    H178251   5.079   1.576   4.510 -1.3558 -0.0328  1.2893
18920TIP3    H278252   5.200   1.642   4.574  1.8924 -0.3788 -4.2021
18921TIP3   OH278253   2.070   2.775  14.660 -0.5938 -0.1802  0.6374
18921TIP3    H178254   2.109   2.780  14.747 -1.6598 -1.5199  1.2057
18921TIP3    H278255   1.984   2.816  14.670 -1.5728 -2.2287  0.7341
18922TIP3   OH278256   2.662   3.690  10.681 -0.5341 -0.5979 -0.4559
18922TIP3    H178257   2.606   3.612  10.684 -1.3450 -0.0998 -1.8858
18922TIP3    H278258   2.645   3.727  10.594 -0.5423  1.4376  0.3976
18923TIP3   OH278259   2.086   1.669  11.748  0.4569  0.2813 -0.2714
18923TIP3    H178260   2.079   1.616  11.669  1.0000  1.2376 -0.9695
18923TIP3    H278261   2.010   1.727  11.745 -1.2595 -1.7954  1.5219
18924TIP3   OH278262   5.369   2.765   2.778  0.1570 -0.0802 -0.0995
18924TIP3    H178263   5.341   2.678   2.751  0.6555 -0.4236  0.4876
18924TIP3    H278264   5.439   2.788   2.717 -2.4437  1.4744 -2.6475
18925TIP3   OH278265   1.605   6.723  14.789 -0.0346 -0.7738 -0.0086
18925TIP3    H178266   1.583   6.631  14.775  1.8494 -1.4976  1.4775
18925TIP3    H278267   1.523   6.763  14.819 -0.3401 -2.4972  1.5790
18926TIP3   OH278268   6.432   0.986  12.317 -0.2606  0.2532  0.3200
18926TIP3    H178269   6.484   0.924  12.267  0.9157  2.0164 -0.7227
18926TIP3    H278270   6.344   0.979  12.280  0.0741 -0.1632 -0.4082
18927TIP3   OH278271   6.562   0.708   0.999 -0.4106  0.1632 -0.0475
18927TIP3    H178272   6.522   0.774   0.942  1.7784  1.2666 -0.3748
18927TIP3    H278273   6.586   0.757   1.078 -0.7554 -0.7264  0.6170
18928TIP3   OH278274   3.523   4.292  13.165 -0.1319 -0.2025  0.0873
18928TIP3    H178275   3.570   4.262  13.243  0.0153  0.0088  0.0804
18928TIP3    H278276   3.574   4.367  13.133  0.3512 -0.8928 -0.7766
18929TIP3   OH278277   2.388   0.663   5.438  0.0850  0.7691 -0.0762
18929TIP3    H178278   2.357   0.583   5.396  0.7283  0.7670 -0.5470
18929TIP3    H278279   2.374   0.731   5.373 -1.4755  1.2436  0.7134
18930TIP3   OH278280   5.973   0.173  13.435  0.0886  0.3973 -0.2369
18930TIP3    H178281   5.911   0.153  13.365 -1.1667 -0.0794  0.9896
18930TIP3    H278282   5.924   0.227  13.497  1.4104  1.4585 -0.0866
18931TIP3   OH278283   4.073   6.108   2.996 -0.5602 -0.5272  0.2744
18931TIP3    H178284   4.107   6.167   3.063 -0.3629  0.5347 -0.7443
18931TIP3    H278285   3.986   6.084   3.028  0.0719 -1.1522  1.5838
18932TIP3   OH278286   1.769   3.845  11.117 -0.1218  0.0540  0.1822
18932TIP3    H178287   1.677   3.825  11.133 -0.4381 -1.1725 -2.7979
18932TIP3    H278288   1.768   3.934  11.081 -0.0556  0.3356  0.8692
18933TIP3   OH278289   0.672   1.475  11.001  0.0794  0.7055 -0.2186
18933TIP3    H178290   0.645   1.528  11.076 -0.6827  0.6550 -0.4570
18933TIP3    H278291   0.741   1.418  11.035  0.0066  0.9569  0.3466
18934TIP3   OH278292   0.342   4.589   3.737  0.8696  0.4164  0.1275
18934TIP3    H178293   0.383   4.654   3.795 -0.5293  0.5975  0.9297
18934TIP3    H278294   0.293   4.641   3.673  0.8579  0.1789 -0.0560
18935TIP3   OH278295   4.913   4.918   2.622  0.1922 -0.1590  0.6652
18935TIP3    H178296   4.836   4.866   2.601  0.1876 -0.2756  0.9709
18935TIP3    H278297   4.945   4.949   2.537  0.7401 -1.4303  0.4020
18936TIP3   OH278298   6.610   2.845  11.245  0.2633  0.2259 -0.4238
18936TIP3    H178299   6.555   2.842  11.323 -0.2831 -1.6871 -0.8481
18936TIP3    H278300   6.565   2.788  11.182  3.1691 -2.1356 -0.4772
18937TIP3   OH278301   4.684   3.426   1.583  0.1019  0.5222  0.1256
18937TIP3    H178302   4.608   3.404   1.529  0.5123 -0.3767 -0.0938
18937TIP3    H278303   4.647   3.470   1.660 -0.7817 -1.3805  0.8112
18938TIP3   OH278304   6.729   0.437   4.419  0.1444  0.0601 -0.0457
18938TIP3    H178305   6.662   0.380   4.456 -0.0145 -0.8998 -1.7521
18938TIP3    H278306   6.706   0.443   4.326  2.6861 -0.6532 -0.7451
18939TIP3   OH278307   3.197   5.938   3.226 -0.3065  0.8946 -0.3828
18939TIP3    H178308   3.132   5.992   3.272  0.1944  1.0637  0.1352
18939TIP3    H278309   3.176   5.950   3.133 -1.4529  0.3912 -0.2004
18940TIP3   OH278310   1.745   1.761  14.012 -0.2298  0.1600 -0.4118
18940TIP3    H178311   1.782   1.841  13.975  0.4973 -0.2438 -0.5728
18940TIP3    H278312   1.816   1.722  14.063 -0.8708  0.1110  0.4669
18941TIP3   OH278313   3.482   4.619  15.134  0.2434  0.2134 -0.3617
18941TIP3    H178314   3.534   4.683  15.184 -2.4622  1.3554  1.0893
18941TIP3    H278315   3.514   4.534  15.164  3.8912  0.7951 -2.2967
18942TIP3   OH278316   2.952   5.997   3.353 -0.5103  0.3795  0.4219
18942TIP3    H178317   2.956   5.957   3.440 -0.6288 -0.9527 -0.1879
18942TIP3    H278318   2.865   6.037   3.349 -0.4431  0.5864  0.9687
18943TIP3   OH278319   5.336   6.458  14.077  0.1115  0.2182  0.0539
18943TIP3    H178320   5.371   6.547  14.081  0.8255 -0.1158  1.8214
18943TIP3    H278321   5.397   6.411  14.019  1.1351  0.2842  1.0576
18944TIP3   OH278322   1.097   3.963   5.036 -0.1180 -0.3622 -0.2320
18944TIP3    H178323   1.058   3.962   4.948 -0.2475 -1.0824 -0.1671
18944TIP3    H278324   1.159   4.036   5.033  0.3741 -0.8064 -1.1387
18945TIP3   OH278325   3.698   1.586  10.647 -0.3328 -0.3727  0.3646
18945TIP3    H178326   3.643   1.602  10.570  1.1144  0.4043 -0.5461
18945TIP3    H278327   3.765   1.655  10.642  1.4022 -2.0045  0.7774
18946TIP3   OH278328   4.576   1.475  16.291 -0.3756  0.1486 -0.2092
18946TIP3    H178329   4.494   1.440  16.256 -0.2389  1.0686 -1.4726
18946TIP3    H278330   4.598   1.548  16.233  0.3840  1.0645  1.2154
18947TIP3   OH278331   0.158   1.413   5.759 -0.6487 -0.4371  0.1444
18947TIP3    H178332   0.148   1.325   5.723 -1.8681 -0.8449  1.4072
18947TIP3    H278333   0.112   1.410   5.843  1.5003  0.6866  1.4063
18948TIP3   OH278334   2.019   3.347  10.510 -0.6101  0.3797  0.3010
18948TIP3    H178335   1.966   3.424  10.530 -0.5584  0.2468  0.9600
18948TIP3    H278336   2.108   3.380  10.501 -0.5023  0.3223  1.1207
18949TIP3   OH278337   4.317   4.659   0.868  0.4279  0.2107  0.1837
18949TIP3    H178338   4.392   4.605   0.840 -0.1147  0.9059 -2.7988
18949TIP3    H278339   4.252   4.595   0.897  0.5089 -0.6769 -1.4949
18950TIP3   OH278340   2.866   1.006  13.462  0.7119  0.3606  0.1700
18950TIP3    H178341   2.831   0.932  13.413 -0.5659  1.2870 -0.3496
18950TIP3    H278342   2.789   1.045  13.505  1.7335 -0.1658  2.5716
18951TIP3   OH278343   3.702   0.588  13.282  0.1200  0.0725  0.3457
18951TIP3    H178344   3.612   0.614  13.302 -0.8095 -1.5053 -1.6431
18951TIP3    H278345   3.715   0.508  13.333  0.6916  0.7646  1.2896
18952TIP3   OH278346   4.274   1.245  15.740 -0.2923 -0.2625  0.4476
18952TIP3    H178347   4.185   1.276  15.724 -0.2907 -0.9240 -0.9184
18952TIP3    H278348   4.289   1.264  15.833 -1.8578 -0.1717  0.7063
18953TIP3   OH278349   6.797   4.023   2.083 -0.3739  0.4641 -0.0678
18953TIP3    H178350   6.854   3.962   2.131 -0.1206 -0.4970 -1.5656
18953TIP3    H278351   6.791   4.099   2.141  0.5561 -0.3514  1.1512
18954TIP3   OH278352   4.085   4.793   4.748  0.5427 -0.3528 -0.1050
18954TIP3    H178353   4.127   4.840   4.675 -2.0574  1.3070 -0.6482
18954TIP3    H278354   4.069   4.861   4.813  0.1364 -1.2412  0.7244
18955TIP3   OH278355   2.094   4.759  13.018  0.1506  0.4556 -0.4005
18955TIP3    H178356   2.049   4.710  12.950  0.9578 -0.3047 -0.3869
18955TIP3    H278357   2.053   4.729  13.100 -1.1952  1.7688 -0.5686
18956TIP3   OH278358   4.698   1.952   6.270  0.5296  0.5395 -0.3794
18956TIP3    H178359   4.752   2.023   6.304  1.0317  0.3857 -0.8489
18956TIP3    H278360   4.753   1.874   6.279  0.3919  0.3850 -0.8692
18957TIP3   OH278361   0.210   5.218   4.669  0.2111  0.6967  0.2915
18957TIP3    H178362   0.217   5.248   4.579  1.7504 -1.1681 -0.2603
18957TIP3    H278363   0.294   5.175   4.686 -1.1110 -1.4399  1.6702
18958TIP3   OH278364   5.805   2.958  11.814  0.0582 -0.3670 -0.2871
18958TIP3    H178365   5.731   3.008  11.781 -0.9624  0.3255  2.8513
18958TIP3    H278366   5.779   2.866  11.804 -0.8445 -0.1348 -0.0944
18959TIP3   OH278367   0.819   5.495  15.382  0.2669  0.1891  0.4252
18959TIP3    H178368   0.805   5.582  15.345  0.3320  0.2219  0.4774
18959TIP3    H278369   0.912   5.494  15.404  0.5605 -0.3500 -0.7686
18960TIP3   OH278370   0.189   1.137  16.979  0.0922 -0.5630 -0.0359
18960TIP3    H178371   0.122   1.069  16.988  0.1199 -0.3657  1.7888
18960TIP3    H278372   0.272   1.090  16.988  0.0936  0.1865  5.5034
18961TIP3   OH278373   3.770   3.497   1.891  0.0268  0.3489  0.3911
18961TIP3    H178374   3.853   3.518   1.935 -0.3793  1.1848  0.7603
18961TIP3    H278375   3.772   3.401   1.881  0.9215  0.3384  0.6270
18962TIP3   OH278376   3.667   5.249  14.072  0.8005 -0.1476 -0.5270
18962TIP3    H178377   3.641   5.322  14.128 -1.7822 -0.3306 -1.4399
18962TIP3    H278378   3.741   5.283  14.021  0.0152  1.6344 -0.5066
18963TIP3   OH278379   6.136   5.994   4.771  0.0474  0.1397 -0.4764
18963TIP3    H178380   6.214   5.967   4.722 -0.3851 -0.9268 -0.5956
18963TIP3    H278381   6.143   6.089   4.777  0.0929  0.3014 -2.6433
18964TIP3   OH278382   4.376   5.924   6.401  0.2813 -0.1750 -0.2417
18964TIP3    H178383   4.388   5.835   6.435 -0.2429 -0.1885 -0.0967
18964TIP3    H278384   4.372   5.978   6.479 -0.1064 -0.1053 -0.3130
18965TIP3   OH278385   4.485   1.801  16.996 -0.0430 -0.4438  0.7784
18965TIP3    H178386   4.439   1.854  17.061 -1.5520 -0.6841 -0.0740
18965TIP3    H278387   4.571   1.785  17.034 -0.0335  1.5354  1.6102
18966TIP3   OH278388   3.286   0.288  12.898  0.1947 -0.0669  0.3542
18966TIP3    H178389   3.318   0.352  12.961 -2.9266  2.4984 -0.5233
18966TIP3    H278390   3.242   0.222  12.951  1.1199 -0.1128  1.0870
18967TIP3   OH278391   6.301   0.797  11.458 -0.0604 -0.3376 -0.5613
18967TIP3    H178392   6.274   0.769  11.546 -1.1956  1.0847 -0.4362
18967TIP3    H278393   6.221   0.833  11.419  1.0888  1.7229 -1.0878
18968TIP3   OH278394   4.483   4.686   5.284 -0.8775  0.3948  0.1719
18968TIP3    H178395   4.451   4.624   5.348  1.4888  0.1996  1.2215
18968TIP3    H278396   4.430   4.670   5.206  0.2679 -3.5807  0.1146
18969TIP3   OH278397   2.834   2.827  12.397 -0.1050 -0.4103  0.1540
18969TIP3    H178398   2.827   2.898  12.462 -1.8181 -0.6458  0.2388
18969TIP3    H278399   2.841   2.872  12.313  2.4735 -0.0938  0.4941
18970TIP3   OH278400   6.380   0.205   5.468  0.2896 -0.3557  0.3497
18970TIP3    H178401   6.352   0.231   5.380  3.5976 -0.5211 -0.8202
18970TIP3    H278402   6.421   0.284   5.503  1.5685 -1.1266  0.6016
18971TIP3   OH278403   6.695   1.372   1.483 -0.0438 -0.6680 -0.0288
18971TIP3    H178404   6.788   1.367   1.509 -0.2985  0.8815  1.2716
18971TIP3    H278405   6.669   1.281   1.472  1.7431 -1.1154 -0.7725
18972TIP3   OH278406   1.460   1.131   5.227  0.0721  0.0635 -0.3686
18972TIP3    H178407   1.509   1.132   5.144  1.2353  2.4939  0.3008
18972TIP3    H278408   1.513   1.076   5.285  0.6868  0.5879 -0.4250
18973TIP3   OH278409   2.602   5.567   5.757  0.6836  0.5103 -0.0687
18973TIP3    H178410   2.666   5.579   5.827 -0.0079  2.8381  0.1755
18973TIP3    H278411   2.632   5.624   5.687 -0.8281  1.2585 -0.1339
18974TIP3   OH278412   1.831   3.231  11.864  0.5571  0.2045  0.6920
18974TIP3    H178413   1.806   3.238  11.772 -1.0132 -0.3616  1.0478
18974TIP3    H278414   1.841   3.137  11.880 -0.5537  0.1924  1.4205
18975TIP3   OH278415   4.966   3.838  14.912  0.3455  0.3266 -0.7894
18975TIP3    H178416   4.889   3.786  14.935 -0.2409  1.3421 -0.4310
18975TIP3    H278417   5.040   3.786  14.942 -0.2331 -0.3180 -0.4721
18976TIP3   OH278418   2.487   5.981   0.687 -0.0974 -0.6701 -0.2665
18976TIP3    H178419   2.420   6.010   0.625 -1.2413  0.2956  1.3791
18976TIP3    H278420   2.552   6.051   0.687  0.0189 -0.7745 -0.5169
18977TIP3   OH278421   1.518   6.772  14.269 -0.6880 -0.1589 -0.0091
18977TIP3    H178422   1.560   6.766  14.183 -0.5179  1.0280 -0.0149
18977TIP3    H278423   1.585   6.741  14.330 -0.5323 -0.2423 -0.2199
18978TIP3   OH278424   2.305   4.525  15.968  0.4324  0.1018  0.3203
18978TIP3    H178425   2.327   4.436  15.992  2.5634 -0.5330 -3.6335
18978TIP3    H278426   2.385   4.575  15.984  0.3651  0.5835 -0.7888
18979TIP3   OH278427   6.683   0.093  16.284 -0.0449 -0.0905 -0.3633
18979TIP3    H178428   6.698   0.015  16.336 -0.9975 -1.5995 -2.3010
18979TIP3    H278429   6.661   0.161  16.349  0.4652 -1.4799  1.2970
18980TIP3   OH278430   0.690   4.976   4.829  0.3488 -0.1522 -1.0003
18980TIP3    H178431   0.785   4.965   4.822  0.5479 -0.8508  2.1214
18980TIP3    H278432   0.673   5.063   4.793  1.9888 -0.4812 -2.6663
18981TIP3   OH278433   3.576   0.129  13.889  0.1143 -0.6605 -0.2665
18981TIP3    H178434   3.548   0.104  13.801 -0.2541  0.3578 -0.4448
18981TIP3    H278435   3.571   0.048  13.939  0.2399 -1.2317 -1.1591
18982TIP3   OH278436   5.059   3.473  16.595 -0.2238  0.1813  0.1146
18982TIP3    H178437   5.144   3.433  16.583 -0.5260 -1.2102  2.3961
18982TIP3    H278438   5.021   3.475  16.507  0.6720 -2.5693 -0.3796
18983TIP3   OH278439   0.239   6.682  10.804 -0.3288  0.1634 -0.7975
18983TIP3    H178440   0.264   6.655  10.716  1.9002  0.7236 -0.3627
18983TIP3    H278441   0.217   6.775  10.797 -0.9198  0.0222 -0.8915
18984TIP3   OH278442   4.970   6.767   6.166 -0.7390  0.0945 -0.0872
18984TIP3    H178443   4.879   6.759   6.193 -0.7394  0.9067  0.1592
18984TIP3    H278444   4.969   6.743   6.073 -1.0190 -0.9554  0.1826
18985TIP3   OH278445   0.446   3.271   1.317  0.1421 -0.2813 -0.1747
18985TIP3    H178446   0.405   3.202   1.265 -0.4711 -0.9508  1.1810
18985TIP3    H278447   0.377   3.302   1.375  1.5177 -1.4625  2.1908
18986TIP3   OH278448   5.925   6.282   3.394 -0.3543  0.4486  0.0939
18986TIP3    H178449   5.997   6.241   3.346  0.1172  0.7288  0.5471
18986TIP3    H278450   5.964   6.307   3.478 -1.7555 -2.1106  1.5449
18987TIP3   OH278451   1.812   0.155   1.968 -0.2618  1.0192  0.2653
18987TIP3    H178452   1.861   0.078   1.936 -0.9674  0.0687  1.4303
18987TIP3    H278453   1.880   0.217   1.994  0.3256  1.0758 -1.3015
18988TIP3   OH278454   1.207   1.920  14.423 -0.1081  0.3061 -0.0432
18988TIP3    H178455   1.148   1.974  14.475 -0.0151 -0.8513  1.3007
18988TIP3    H278456   1.233   1.976  14.350 -1.5605  1.3821  0.2504
18989TIP3   OH278457   4.664   5.064  15.661  0.7036  0.5402  0.2437
18989TIP3    H178458   4.637   5.152  15.635  1.9664  0.8053 -0.2017
18989TIP3    H278459   4.738   5.077  15.719  1.9924 -0.2613 -1.1674
18990TIP3   OH278460   5.697   5.522  16.301  0.4340 -0.4017 -0.4397
18990TIP3    H178461   5.715   5.609  16.336  1.0097 -0.7434  0.1258
18990TIP3    H278462   5.765   5.466  16.339  0.8281 -0.8670 -1.8071
18991TIP3   OH278463   5.161   0.491   0.954  0.1231  0.1077  0.1018
18991TIP3    H178464   5.204   0.486   0.868 -2.2076  0.3791 -1.1084
18991TIP3    H278465   5.226   0.534   1.010  2.1235 -1.1254 -1.2121
18992TIP3   OH278466   0.683   0.991   0.269 -0.1029 -0.1026  0.2570
18992TIP3    H178467   0.619   1.061   0.259  0.4677  0.1040 -2.2695
18992TIP3    H278468   0.643   0.916   0.225  1.1881 -0.0646 -1.0347
18993TIP3   OH278469   3.032   0.342  14.865  0.1151  0.9048  0.5514
18993TIP3    H178470   2.950   0.390  14.868 -0.1379  0.4940  0.1836
18993TIP3    H278471   3.008   0.254  14.838  0.5373  0.4757  1.5411
18994TIP3   OH278472   2.801   6.307   2.408  0.1581  0.1170 -0.2879
18994TIP3    H178473   2.852   6.378   2.370  0.1879  0.6054  0.6453
18994TIP3    H278474   2.849   6.281   2.486 -0.3303 -0.3153 -0.1218
18995TIP3   OH278475   4.875   1.407   3.042 -0.0143  0.3838 -0.0707
18995TIP3    H178476   4.855   1.328   2.992 -2.1694  1.6258 -1.2331
18995TIP3    H278477   4.919   1.465   2.980 -0.8378  1.1218  0.0240
18996TIP3   OH278478   4.592   0.501   0.301 -0.5175  0.0903  0.0657
18996TIP3    H178479   4.556   0.587   0.324 -3.0189 -1.2476  1.3239
18996TIP3    H278480   4.629   0.468   0.383  0.9076  0.1706 -0.5363
18997TIP3   OH278481   3.909   2.668   1.540  0.0503 -0.4167 -0.2804
18997TIP3    H178482   3.874   2.580   1.530  2.6618 -1.4715 -0.4808
18997TIP3    H278483   3.941   2.690   1.452  1.8269 -0.3410  0.3833
18998TIP3   OH278484   1.251   6.443  12.492  0.2989  0.1164  0.0921
18998TIP3    H178485   1.269   6.514  12.554  1.3238  0.1409 -0.2368
18998TIP3    H278486   1.198   6.484  12.424  0.7098  0.5092  0.0117
18999TIP3   OH278487   6.269   4.497   3.028 -0.3029  0.2892  0.4624
18999TIP3    H178488   6.266   4.485   3.123  1.8911  0.5092  0.6033
18999TIP3    H278489   6.290   4.589   3.016  0.8125 -0.0294 -0.1782
19000TIP3   OH278490   4.620   2.450   4.482 -0.1690  0.0625  0.1205
19000TIP3    H178491   4.679   2.376   4.498  0.7131  0.3277 -1.7982
19000TIP3    H278492   4.555   2.415   4.421 -1.1605  0.1784  1.1186
19001TIP3   OH278493   6.777   6.573   3.763  0.0604  0.6597  0.1779
19001TIP3    H178494   6.764   6.489   3.719 -1.2262  1.7522 -1.6019
19001TIP3    H278495   6.869   6.574   3.788  0.4997 -0.5523 -1.3570
19002TIP3   OH278496   0.514   0.065   0.848  0.9295  0.7728 -0.3121
19002TIP3    H178497   0.573   0.128   0.890 -0.1796  1.9605 -0.5021
19002TIP3    H278498   0.469   0.022   0.920  1.5202  0.3494 -0.1899
19003TIP3   OH278499   2.978   4.665   3.409  0.1062 -0.3212 -0.1608
19003TIP3    H178500   2.888   4.680   3.438  0.2546 -0.3718  0.3346
19003TIP3    H278501   3.018   4.614   3.480  1.5789  2.7796  1.3054
19004TIP3   OH278502   1.169   6.140   6.671 -0.0538 -0.0220  0.5114
19004TIP3    H178503   1.190   6.132   6.578  0.6707  0.6374  0.6199
19004TIP3    H278504   1.080   6.105   6.678 -0.1002 -0.1061 -0.4192
19005TIP3   OH278505   0.844   6.343   0.885 -0.2348 -0.7264  0.6221
19005TIP3    H178506   0.777   6.400   0.846  2.6476  2.3003 -0.1458
19005TIP3    H278507   0.868   6.282   0.816 -0.6511 -0.3818  0.1708
19006TIP3   OH278508   5.280   2.946   6.011 -0.3716  0.0813  0.6821
19006TIP3    H178509   5.317   2.862   5.984  2.6400  2.0722 -1.7151
19006TIP3    H278510   5.249   2.930   6.100 -4.6599 -4.9592 -1.4268
19007TIP3   OH278511   6.169   0.350   4.234  0.2491 -0.4137  0.1595
19007TIP3    H178512   6.143   0.433   4.274 -1.4535 -1.2061  0.7445
19007TIP3    H278513   6.263   0.359   4.219  0.2666  1.2346  1.1464
19008TIP3   OH278514   2.527   0.091   4.287  0.1954 -0.0632 -0.8588
19008TIP3    H178515   2.552   0.148   4.360 -1.4801  0.1819 -0.4565
19008TIP3    H278516   2.434   0.072   4.302 -0.1136 -0.1954 -2.8105
19009TIP3   OH278517   3.707   3.270  16.931  0.1169  0.1081  0.0568
19009TIP3    H178518   3.653   3.204  16.975  0.9346 -0.2030  0.6105
19009TIP3    H278519   3.769   3.220  16.879 -0.2297  0.4710 -0.7196
19010TIP3   OH278520   2.662   6.628   3.746  0.1679  0.3199 -0.6405
19010TIP3    H178521   2.724   6.688   3.787  0.0780 -0.7769  1.1738
19010TIP3    H278522   2.590   6.683   3.717 -0.1659  1.0430  1.4886
19011TIP3   OH278523   1.174   0.919   6.423 -0.7042  0.6718 -0.0177
19011TIP3    H178524   1.216   0.925   6.509 -0.1827  1.0577 -0.2975
19011TIP3    H278525   1.105   0.854   6.435  1.5587 -1.8439 -0.1918
19012TIP3   OH278526   0.503   4.232  10.861  0.4652  0.5893  0.2787
19012TIP3    H178527   0.507   4.210  10.768  0.1728  0.4774  0.2929
19012TIP3    H278528   0.419   4.196  10.891  1.4846 -1.2352  1.0594
19013TIP3   OH278529   5.765   1.047  11.279  0.2152  0.9543  0.0552
19013TIP3    H178530   5.677   1.026  11.246  0.5327 -1.6330  0.7361
19013TIP3    H278531   5.752   1.071  11.370  0.2703  0.0728  0.2964
19014TIP3   OH278532   2.573   2.842   4.666 -0.2450  0.3364  0.6778
19014TIP3    H178533   2.615   2.876   4.745 -0.1162 -0.9370  1.1636
19014TIP3    H278534   2.639   2.853   4.598  0.4106 -0.4788  1.1758
19015TIP3   OH278535   6.231   5.292   3.101 -0.1860  0.3697 -0.4691
19015TIP3    H178536   6.312   5.313   3.054 -0.5483 -1.0905 -1.8058
19015TIP3    H278537   6.232   5.348   3.178  2.4584 -0.1406 -0.0860
19016TIP3   OH278538   1.034   2.736   4.946  0.5664 -0.2659 -0.0782
19016TIP3    H178539   1.040   2.832   4.950  0.3274 -0.2614  0.1669
19016TIP3    H278540   1.124   2.707   4.937  0.5130  0.0601 -1.8116
19017TIP3   OH278541   1.727   5.861   0.745 -0.4359  0.2228  0.6920
19017TIP3    H178542   1.760   5.806   0.674 -2.5928  0.0998 -0.2682
19017TIP3    H278543   1.666   5.921   0.702 -0.1522  1.5603  2.1388
19018TIP3   OH278544   3.889   5.163   1.298  0.5946 -0.2837 -0.1819
19018TIP3    H178545   3.817   5.146   1.238  0.2016 -0.5999  0.3791
19018TIP3    H278546   3.848   5.197   1.377  1.2760  2.0774 -0.8264
19019TIP3   OH278547   4.151   1.889   2.572  0.0381 -0.4904  0.1732
19019TIP3    H178548   4.063   1.886   2.610  0.3743  1.0285  1.1228
19019TIP3    H278549   4.209   1.901   2.647  0.7938  1.5669 -0.7122
19020TIP3   OH278550   6.296   6.554  15.253 -0.0098 -0.6299  0.2021
19020TIP3    H178551   6.219   6.610  15.266 -0.2998 -0.8765 -0.4326
19020TIP3    H278552   6.334   6.544  15.341  0.1696  0.7385  0.2975
19021TIP3   OH278553   3.133   1.444   3.646 -0.0094 -0.0564  0.2954
19021TIP3    H178554   3.183   1.378   3.598  0.8971  1.4427 -0.8143
19021TIP3    H278555   3.048   1.402   3.661  0.9582 -1.9595  0.7156
19022TIP3   OH278556   4.762   0.848  11.488 -0.7720 -0.1579  0.3857
19022TIP3    H178557   4.809   0.818  11.565 -1.8945  0.4221  1.3168
19022TIP3    H278558   4.670   0.827  11.506 -0.9549 -0.7011 -1.1144
19023TIP3   OH278559   4.620   2.835   1.514  0.2763 -0.5616 -0.8758
19023TIP3    H178560   4.575   2.762   1.470  0.3123 -0.8082 -0.5051
19023TIP3    H278561   4.682   2.868   1.449  0.6200 -1.1915 -0.8671
19024TIP3   OH278562   2.435   6.599   4.216 -0.0886  0.1905 -0.5646
19024TIP3    H178563   2.512   6.656   4.217 -1.2023  1.7241  0.7300
19024TIP3    H278564   2.411   6.589   4.308 -1.5079 -0.1343 -0.9533
19025TIP3   OH278565   5.070   2.432  16.797 -0.1814 -0.1667  0.8092
19025TIP3    H178566   4.993   2.378  16.779  1.0259 -1.0007 -2.1783
19025TIP3    H278567   5.143   2.370  16.796  1.0645  1.2802 -1.2844
19026TIP3   OH278568   5.555   6.264  12.828  0.6779  0.1208 -0.0483
19026TIP3    H178569   5.477   6.281  12.775  1.9494  0.4613 -1.8716
19026TIP3    H278570   5.558   6.169  12.838  0.4724  0.0505 -0.6595
19027TIP3   OH278571   5.160   0.833  12.462  0.3429 -0.4415 -0.3233
19027TIP3    H178572   5.155   0.782  12.543 -0.6077  3.6063  2.3681
19027TIP3    H278573   5.209   0.912  12.487 -0.8769  1.3687 -3.4152
19028TIP3   OH278574   5.376   1.468  12.351  0.2229 -0.5205  0.2405
19028TIP3    H178575   5.384   1.512  12.435  0.6354  1.7707 -0.9581
19028TIP3    H278576   5.451   1.499  12.300 -0.4065 -1.3073 -1.2103
19029TIP3   OH278577   1.021   0.055  11.175 -0.9439 -0.2839 -0.2871
19029TIP3    H178578   1.015   0.150  11.167 -1.6024 -0.3819 -0.9540
19029TIP3    H278579   1.103   0.040  11.223 -0.7761  0.6115 -0.2955
19030TIP3   OH278580   4.492   1.547   6.907  0.5275 -0.0885  0.7862
19030TIP3    H178581   4.445   1.615   6.858  0.3670 -1.5755 -1.2021
19030TIP3    H278582   4.431   1.473   6.910  2.0915 -1.4553 -0.3677
19031TIP3   OH278583   4.262   0.539   5.833 -0.2485 -0.5129  0.0985
19031TIP3    H178584   4.334   0.485   5.864 -0.6950 -1.4429 -0.4633
19031TIP3    H278585   4.256   0.610   5.897  0.7025 -0.8099  0.5343
19032TIP3   OH278586   4.230   5.881  14.223  0.8536  0.0349 -0.3627
19032TIP3    H178587   4.312   5.861  14.268  0.8428 -1.3201 -0.9033
19032TIP3    H278588   4.167   5.819  14.259  0.5191 -0.1564 -1.2547
19033TIP3   OH278589   1.135   2.391   6.365  0.0135 -0.4563 -0.4441
19033TIP3    H178590   1.136   2.371   6.459 -1.4846  0.5240 -0.2074
19033TIP3    H278591   1.226   2.381   6.338  0.3063 -1.6639  0.9215
19034TIP3   OH278592   4.875   3.515  14.816 -0.4548  0.0969  0.1345
19034TIP3    H178593   4.799   3.553  14.860 -0.7696 -0.1861 -0.1563
19034TIP3    H278594   4.890   3.432  14.861 -1.1225 -0.4547 -0.6478
19035TIP3   OH278595   5.397   6.187  13.148 -0.4257  0.5148 -0.0068
19035TIP3    H178596   5.460   6.119  13.170 -1.9747 -0.1555  2.6248
19035TIP3    H278597   5.449   6.255  13.105  1.6938 -0.9351  0.1930
19036TIP3   OH278598   6.044   5.607  15.135  0.0569 -0.4494 -0.0563
19036TIP3    H178599   6.088   5.637  15.055 -0.9843  2.6209  0.4451
19036TIP3    H278600   6.097   5.642  15.206  0.9538 -3.1382  0.6399
19037TIP3   OH278601   5.030   0.409  14.275 -0.0201 -0.6639 -0.0752
19037TIP3    H178602   4.975   0.467  14.223  0.2085 -1.2799 -1.0229
19037TIP3    H278603   4.991   0.409  14.362 -1.8241 -1.4745 -0.8642
19038TIP3   OH278604   0.335   6.718  16.181  0.4218  0.2754  0.5205
19038TIP3    H178605   0.337   6.640  16.126 -1.1587 -1.2932  2.5950
19038TIP3    H278606   0.382   6.693  16.261 -0.4893  1.2744  1.3925
19039TIP3   OH278607   3.194   0.599   0.192  0.2702 -0.3960  0.1359
19039TIP3    H178608   3.127   0.535   0.167  0.3862  0.3744 -2.3527
19039TIP3    H278609   3.146   0.681   0.202  0.8663  0.2747 -2.1921
19040TIP3   OH278610   2.137   2.769  12.931  0.2771  0.8600  0.5684
19040TIP3    H178611   2.073   2.764  13.002 -2.5744  2.8408 -1.7295
19040TIP3    H278612   2.123   2.689  12.881  1.1795  0.2204  1.3320
19041TIP3   OH278613   5.738   6.534   1.128 -0.4129 -0.0595 -0.2620
19041TIP3    H178614   5.660   6.572   1.169  2.0109  1.7092  2.8700
19041TIP3    H278615   5.743   6.445   1.164 -1.4502 -0.4874 -1.1534
19042TIP3   OH278616   6.548   0.485   1.230  0.5610  0.8245 -0.1634
19042TIP3    H178617   6.545   0.575   1.198 -0.4730  0.5619 -0.8053
19042TIP3    H278618   6.600   0.439   1.165 -1.2253  0.3718 -1.2946
19043TIP3   OH278619   4.774   1.153  13.776 -0.8259  0.0666 -0.3565
19043TIP3    H178620   4.795   1.106  13.857 -3.7578 -2.5060 -0.9859
19043TIP3    H278621   4.838   1.122  13.713  1.1842  1.7312  0.7864
19044TIP3   OH278622   5.963   3.278   5.286 -0.5034 -0.4534  0.6998
19044TIP3    H178623   6.003   3.280   5.198  0.3410 -1.3111  1.0449
19044TIP3    H278624   6.012   3.343   5.336 -1.0332  0.0871  0.5217
19045TIP3   OH278625   2.237   0.779  14.788  0.2689  0.1414 -0.5302
19045TIP3    H178626   2.240   0.817  14.701 -0.4572  0.4598 -0.4156
19045TIP3    H278627   2.220   0.852  14.847  0.5236 -0.1053 -0.1428
19046TIP3   OH278628   4.910   4.585   1.243 -0.1268  0.3484 -0.1141
19046TIP3    H178629   4.976   4.633   1.193  0.9184 -1.5351 -0.5787
19046TIP3    H278630   4.953   4.504   1.268 -1.3674  0.3134  1.9868
19047TIP3   OH278631   0.664   0.185  12.663  0.7749 -0.6473  0.0601
19047TIP3    H178632   0.703   0.163  12.748 -0.3753  0.8471  1.0003
19047TIP3    H278633   0.570   0.184  12.679  0.5667  0.1613 -1.0620
19048TIP3   OH278634   4.063   2.842   5.644  0.2271  0.8095 -0.0111
19048TIP3    H178635   3.998   2.909   5.661  0.9249  1.3002  0.7769
19048TIP3    H278636   4.055   2.823   5.551 -0.3438  1.5946 -0.1252
19049TIP3   OH278637   3.089   0.469   3.983  0.3814 -0.3351  0.4985
19049TIP3    H178638   3.008   0.473   4.035  0.8290 -0.5905  1.2293
19049TIP3    H278639   3.060   0.449   3.895 -0.4034  0.1768  0.6374
19050TIP3   OH278640   3.415   0.072  16.236  0.0961  0.9406  0.4723
19050TIP3    H178641   3.323   0.086  16.213  0.7053  0.1616 -2.7053
19050TIP3    H278642   3.416  -0.014  16.278 -0.4632  0.3577 -0.6785
19051TIP3   OH278643   5.419   4.504   0.311  0.6338  0.2655 -0.3978
19051TIP3    H178644   5.357   4.577   0.310 -0.9509 -1.0694  0.0801
19051TIP3    H278645   5.380   4.438   0.254  1.6786 -0.5294 -0.2055
19052TIP3   OH278646   2.321   0.752   2.638 -0.0798  0.1264  0.4375
19052TIP3    H178647   2.267   0.673   2.643  0.8427 -0.4025  3.1374
19052TIP3    H278648   2.273   0.818   2.688 -1.1307  1.5101 -2.2977
19053TIP3   OH278649   0.968   2.234   1.407  0.7418 -0.2231  0.1228
19053TIP3    H178650   1.049   2.200   1.444  1.2250 -0.4086 -1.0879
19053TIP3    H278651   0.938   2.166   1.346  0.6366  0.6275 -0.7855
19054TIP3   OH278652   0.348   2.914   5.716  0.1451 -0.1145 -0.3248
19054TIP3    H178653   0.289   2.917   5.791 -0.4760 -0.5541 -0.7953
19054TIP3    H278654   0.432   2.887   5.753  0.1800  0.9713  0.4173
19055TIP3   OH278655   2.481   6.261  14.977 -0.3332  0.1696  0.1914
19055TIP3    H178656   2.489   6.220  15.063 -0.4707  1.1834  0.6937
19055TIP3    H278657   2.513   6.195  14.916  0.2445 -0.3659  1.0653
19056TIP3   OH278658   5.193   5.159  13.643 -0.9406 -0.5535  0.1357
19056TIP3    H178659   5.160   5.093  13.705  0.2408 -1.1196  0.1707
19056TIP3    H278660   5.118   5.176  13.586 -2.1020  0.0998  1.7978
19057TIP3   OH278661   0.045   4.745   0.064  0.6651  0.2254 -0.8297
19057TIP3    H178662   0.051   4.834   0.098 -1.7520  0.1307 -0.0954
19057TIP3    H278663   0.129   4.704   0.089  0.1361  1.0313  2.5392
19058TIP3   OH278664   5.963   6.799  11.405 -0.5276 -0.2408 -0.8077
19058TIP3    H178665   6.012   6.726  11.443 -3.1984 -0.9306  1.4806
19058TIP3    H278666   5.888   6.758  11.361 -0.6206  0.9566 -1.7980
19059TIP3   OH278667   1.720   6.048  13.093 -0.8897  0.2148 -0.2665
19059TIP3    H178668   1.735   5.953  13.095 -3.4348 -0.2059 -0.3051
19059TIP3    H278669   1.638   6.060  13.141 -1.9958  2.1121 -2.5617
19060TIP3   OH278670   3.215   5.919   4.852 -0.2310  0.1022  0.2790
19060TIP3    H178671   3.270   5.842   4.866  0.3256  0.5645  0.6425
19060TIP3    H278672   3.137   5.885   4.807  0.2332 -0.5919 -0.0055
19061TIP3   OH278673   2.697   5.045  11.419  0.1683  0.2804 -0.5297
19061TIP3    H178674   2.680   4.967  11.471  0.2069 -0.7803 -2.0915
19061TIP3    H278675   2.611   5.074  11.390  0.0842  1.2485  0.6173
19062TIP3   OH278676   6.325   2.642  13.164 -0.2032 -0.0653 -0.3614
19062TIP3    H178677   6.272   2.590  13.225  0.8627 -0.2817  0.3812
19062TIP3    H278678   6.341   2.583  13.090  0.2417 -0.4998  0.0784
19063TIP3   OH278679   1.301   3.232   5.490 -0.3786  0.5262 -0.4180
19063TIP3    H178680   1.281   3.311   5.439  1.1185  1.5066  0.4841
19063TIP3    H278681   1.253   3.244   5.572  1.8485  1.7429  0.7609
19064TIP3   OH278682   3.673   4.968   3.282  0.0813 -0.3166 -0.6449
19064TIP3    H178683   3.700   5.027   3.353 -1.2574  1.4373 -1.5512
19064TIP3    H278684   3.609   5.019   3.232  0.3032 -1.8724 -2.5604
19065TIP3   OH278685   1.459   4.250   1.618  0.2584  0.2529  0.6526
19065TIP3    H178686   1.421   4.205   1.542 -1.6097  0.6964  1.3140
19065TIP3    H278687   1.540   4.289   1.584 -1.0686  1.3180 -1.4044
19066TIP3   OH278688   3.337   5.729  15.874 -0.1876  0.7136 -0.0303
19066TIP3    H178689   3.273   5.797  15.898 -2.8292 -1.9316  0.7823
19066TIP3    H278690   3.347   5.738  15.779 -0.5321  2.1926  0.0618
19067TIP3   OH278691   0.194   5.431  13.454  0.4678 -0.2041  0.3419
19067TIP3    H178692   0.289   5.429  13.472  0.3314  2.5212  1.6192
19067TIP3    H278693   0.187   5.472  13.368  0.3951  1.1181  0.9664
19068TIP3   OH278694   3.862   1.627   4.476  0.1893 -0.1288  0.2727
19068TIP3    H178695   3.864   1.547   4.528  0.0343  0.3385  1.0041
19068TIP3    H278696   3.939   1.676   4.503 -0.8200  0.9016  1.3366
19069TIP3   OH278697   4.418   0.412  16.612  0.9314 -0.4030 -0.2128
19069TIP3    H178698   4.374   0.444  16.691  1.6767 -0.3467  0.1813
19069TIP3    H278699   4.350   0.364  16.565 -0.9568  3.6898 -2.0059
19070TIP3   OH278700   6.376   0.526  15.078  0.3342  0.3735  0.1707
19070TIP3    H178701   6.442   0.456  15.083 -0.4567 -0.3797  0.1047
19070TIP3    H278702   6.348   0.537  15.169  1.0631  1.1933  0.3020
19071TIP3   OH278703   0.038   1.593  16.119  1.3368 -0.1290 -0.0073
19071TIP3    H178704   0.011   1.582  16.028 -1.0178 -0.7197  0.7464
19071TIP3    H278705  -0.013   1.529  16.168  3.6540 -0.8247  1.5643
19072TIP3   OH278706   5.065   1.486  15.779 -0.2958 -0.1141  0.6597
19072TIP3    H178707   5.160   1.499  15.769 -0.4857  1.0598  0.2781
19072TIP3    H278708   5.027   1.566  15.744 -1.5204 -1.4232 -1.0614
19073TIP3   OH278709   4.544   5.866  13.957 -0.6567 -0.2516 -0.2289
19073TIP3    H178710   4.631   5.885  13.923 -0.4257  0.5432  0.7633
19073TIP3    H278711   4.557   5.852  14.051 -1.2702 -2.4602 -0.4518
19074TIP3   OH278712   3.143   5.940  10.650  0.1296 -0.2571  0.1977
19074TIP3    H178713   3.057   5.913  10.681  0.4323  0.5918  1.8336
19074TIP3    H278714   3.187   5.859  10.626 -1.2198 -0.6728 -0.9276
19075TIP3   OH278715   5.634   2.999  16.054 -0.1802  0.2758 -0.3456
19075TIP3    H178716   5.725   3.023  16.072  0.1004  1.3720 -2.9599
19075TIP3    H278717   5.584   3.079  16.070 -1.0031 -0.7553  2.7399
19076TIP3   OH278718   2.992   3.559  14.678 -0.3561  0.0231  0.2226
19076TIP3    H178719   2.965   3.484  14.624 -0.0633  0.2897 -0.2968
19076TIP3    H278720   3.049   3.521  14.745  0.9670 -0.0254 -0.9014
19077TIP3   OH278721   3.247   4.516   2.974 -0.4168  0.7567  0.2498
19077TIP3    H178722   3.333   4.490   3.005 -0.4420  1.3945  0.8727
19077TIP3    H278723   3.193   4.522   3.053 -1.3836 -0.9271 -0.2648
19078TIP3   OH278724   0.154   5.203   2.826  0.2511 -0.5930 -0.6908
19078TIP3    H178725   0.192   5.127   2.782  0.8109 -0.9398  0.3901
19078TIP3    H278726   0.217   5.225   2.895  0.0980  0.8579 -1.0097
19079TIP3   OH278727   4.965   3.784   3.249 -0.0578  0.2406 -0.0854
19079TIP3    H178728   4.928   3.870   3.227 -0.8221  0.0968  0.6482
19079TIP3    H278729   5.055   3.789   3.217 -0.4572  0.8796 -1.1485
19080TIP3   OH278730   3.265   3.775  14.211 -0.1227  0.2836  0.3015
19080TIP3    H178731   3.235   3.698  14.260 -2.4356  1.5525  0.9962
19080TIP3    H278732   3.311   3.740  14.135 -2.2287 -1.8111 -0.0571
19081TIP3   OH278733   6.218   2.172   5.034 -0.5352  0.9205 -0.0401
19081TIP3    H178734   6.284   2.111   5.068 -1.2512  0.3456  0.3265
19081TIP3    H278735   6.170   2.201   5.111 -1.8485 -0.0156 -0.4983
19082TIP3   OH278736   2.759   0.849   3.372 -0.7226  0.8215  0.2722
19082TIP3    H178737   2.713   0.818   3.294  1.0852  0.4292 -0.6420
19082TIP3    H278738   2.752   0.944   3.368 -0.5786  0.8030 -0.3906
19083TIP3   OH278739   3.756   5.083   4.060 -0.1317 -0.3322  0.1779
19083TIP3    H178740   3.759   5.028   4.138  0.4250 -1.2553 -0.4825
19083TIP3    H278741   3.663   5.099   4.044 -0.2069  1.2955  2.0102
19084TIP3   OH278742   1.806   3.767  13.800 -0.1502 -0.1394 -0.3532
19084TIP3    H178743   1.876   3.809  13.851 -0.1281 -0.7437  0.1171
19084TIP3    H278744   1.842   3.682  13.776 -1.1637 -0.9294  0.8921
19085TIP3   OH278745   3.256   4.146  14.505 -0.3210 -0.6362  0.5823
19085TIP3    H178746   3.310   4.194  14.568  0.4660  1.3194 -1.5194
19085TIP3    H278747   3.260   4.198  14.425 -1.9025 -2.6825 -0.8902
19086TIP3   OH278748   3.163   4.376   2.469  0.1387  0.2789 -0.3428
19086TIP3    H178749   3.171   4.471   2.464  1.6693  0.2001  0.4356
19086TIP3    H278750   3.071   4.358   2.449 -0.9914  2.1841  2.8096
19087TIP3   OH278751   3.069   0.481   6.429  0.0961  0.4286  0.6931
19087TIP3    H178752   2.975   0.483   6.446 -0.0759 -0.0102 -0.1572
19087TIP3    H278753   3.097   0.572   6.435 -0.3408  0.5288  1.1827
19088TIP3   OH278754   3.116   5.013  15.157 -0.3401  0.3324  0.0840
19088TIP3    H178755   3.116   4.940  15.095 -0.1130  1.1283 -0.8766
19088TIP3    H278756   3.106   5.091  15.102 -1.3340  0.9780  1.1532
19089TIP3   OH278757   1.157   4.956  14.491  0.4615  0.0132  0.3195
19089TIP3    H178758   1.239   4.922  14.455  1.2159  0.9918  1.0918
19089TIP3    H278759   1.132   4.892  14.558 -0.7662 -1.6270 -1.6535
19090TIP3   OH278760   1.551   3.088  13.038  0.1515 -0.0995  0.7157
19090TIP3    H178761   1.559   3.091  12.943  2.6262 -1.4752  0.8484
19090TIP3    H278762   1.543   3.179  13.064  2.8490  0.5504 -0.5616
19091TIP3   OH278763   5.357   2.735  13.663 -0.0842 -0.7059 -0.0944
19091TIP3    H178764   5.306   2.656  13.677 -2.0134  0.3569 -0.9513
19091TIP3    H278765   5.385   2.761  13.751 -3.3503  0.2000  0.7330
19092TIP3   OH278766   6.500   3.522   1.480  0.3627  0.3500  0.4581
19092TIP3    H178767   6.472   3.435   1.510 -0.1330  0.2393 -0.3027
19092TIP3    H278768   6.424   3.556   1.433  0.7143  1.0152  0.3733
19093TIP3   OH278769   5.976   2.480  15.285 -0.5752  0.0884 -0.0681
19093TIP3    H178770   5.963   2.571  15.311  0.4534 -0.0398  0.9187
19093TIP3    H278771   5.940   2.476  15.196  0.2243  1.6934 -0.4950
19094TIP3   OH278772   1.884   4.682  12.796  0.1319  0.0135 -0.5468
19094TIP3    H178773   1.829   4.716  12.725  0.8346  1.7775 -0.2774
19094TIP3    H278774   1.827   4.621  12.844 -1.3516  1.2128 -0.7387
19095TIP3   OH278775   0.004   5.697   4.350  0.3256  0.0013 -0.6615
19095TIP3    H178776  -0.042   5.641   4.287  0.3383 -1.3411  0.5130
19095TIP3    H278777   0.051   5.761   4.295 -0.1037 -0.8031 -1.9924
19096TIP3   OH278778   5.644   4.836  16.144  0.3053 -0.1593 -0.3819
19096TIP3    H178779   5.583   4.794  16.083  1.0080 -0.8067 -0.6499
19096TIP3    H278780   5.713   4.871  16.088  0.0004  0.8846 -0.1093
19097TIP3   OH278781   0.852   5.047   0.818 -0.1242  0.1121  0.2973
19097TIP3    H178782   0.918   4.993   0.775 -0.2339  0.1555  0.0745
19097TIP3    H278783   0.768   5.014   0.784 -0.3984 -2.0669  2.9119
19098TIP3   OH278784   5.618   5.916   4.011  0.5451  0.6847 -0.3741
19098TIP3    H178785   5.569   5.836   3.991 -0.1411  1.0491 -0.1632
19098TIP3    H278786   5.580   5.982   3.953  0.9583  0.9078 -0.3869
19099TIP3   OH278787   0.503   5.638  12.837 -0.2438 -0.1094 -1.0441
19099TIP3    H178788   0.478   5.684  12.917 -0.7213 -2.0410 -0.0326
19099TIP3    H278789   0.530   5.551  12.867  2.9438  0.2680 -2.6565
19100TIP3   OH278790   5.610   0.023   2.186 -0.7200 -0.2252 -0.3894
19100TIP3    H178791   5.544  -0.038   2.219 -1.2273  1.1227  1.1709
19100TIP3    H278792   5.681   0.018   2.250 -0.6208  0.5773 -0.4395
19101TIP3   OH278793   5.640   5.975   3.048 -0.2188  0.1989  0.1377
19101TIP3    H178794   5.674   6.046   2.994  0.2525  0.6874  1.0746
19101TIP3    H278795   5.587   5.923   2.988 -0.5254  1.3072 -0.5724
19102TIP3   OH278796   5.580   4.958   2.139  0.0249  0.2391 -0.5885
19102TIP3    H178797   5.547   4.973   2.228 -0.6263  1.0033 -0.9551
19102TIP3    H278798   5.651   4.894   2.151 -1.1558 -0.9591  0.2845
19103TIP3   OH278799   2.445   5.432   4.358  0.5276  0.1230 -0.0247
19103TIP3    H178800   2.382   5.383   4.410  0.3868 -1.2893 -1.4676
19103TIP3    H278801   2.499   5.478   4.422 -0.8576 -0.0288  1.2817
19104TIP3   OH278802   3.574   1.825   3.751 -0.1482 -0.0088  0.0784
19104TIP3    H178803   3.597   1.742   3.708 -0.3074 -0.7869  1.4612
19104TIP3    H278804   3.493   1.852   3.707 -1.2982 -1.7216  1.0777
19105TIP3   OH278805   5.854   3.572  14.376  0.2809  0.6275 -0.1908
19105TIP3    H178806   5.790   3.550  14.444  0.7217  1.3221  0.4556
19105TIP3    H278807   5.833   3.513  14.304 -0.8449  0.5793  0.1594
19106TIP3   OH278808   0.260   6.106  10.393 -0.5647 -0.8057  0.3674
19106TIP3    H178809   0.333   6.154  10.353 -0.7221  0.1612  1.2247
19106TIP3    H278810   0.299   6.025  10.426 -0.1701 -0.9775 -0.4929
19107TIP3   OH278811   5.355   6.413   5.432 -0.0219  0.7296 -0.5065
19107TIP3    H178812   5.388   6.336   5.387  0.8052  0.0876  1.1304
19107TIP3    H278813   5.433   6.463   5.454 -0.3798  0.9235  0.3727
19108TIP3   OH278814   6.176   1.590   3.160 -0.2484 -0.4473 -0.3329
19108TIP3    H178815   6.205   1.501   3.140  0.1361  0.3540 -3.5081
19108TIP3    H278816   6.106   1.607   3.098  0.3948  1.8263 -0.4603
19109TIP3   OH278817   1.746   0.770  13.704 -0.0553  0.3984  0.7239
19109TIP3    H178818   1.790   0.855  13.703 -0.7562  0.7667  0.0076
19109TIP3    H278819   1.803   0.713  13.756  1.7028  0.6370 -0.8991
19110TIP3   OH278820   5.661   4.060   3.983 -0.0311  0.5476  0.3203
19110TIP3    H178821   5.741   4.108   3.963  0.3922  0.2997  1.3915
19110TIP3    H278822   5.615   4.116   4.046 -2.4309  2.4022 -2.9354
19111TIP3   OH278823   5.289   4.083   0.774 -0.0692  0.0130  0.1572
19111TIP3    H178824   5.355   4.014   0.785  0.8759  1.2301  2.5402
19111TIP3    H278825   5.329   4.145   0.713 -0.7547 -1.3047 -1.6718
19112TIP3   OH278826   4.832   3.782   0.723  0.0440  0.4701 -0.5511
19112TIP3    H178827   4.888   3.733   0.662  0.7082  0.2172  0.2612
19112TIP3    H278828   4.748   3.789   0.677  0.0233 -1.1784 -0.8023
19113TIP3   OH278829   1.004   4.395   0.065 -0.0833 -0.4884 -0.1108
19113TIP3    H178830   1.096   4.418   0.078  0.3284 -1.1859 -1.6557
19113TIP3    H278831   1.004   4.300   0.051 -0.8163 -0.2717 -1.7641
19114TIP3   OH278832   3.038   0.309   2.423  0.1884 -0.1391  0.0981
19114TIP3    H178833   3.122   0.263   2.418 -0.3046 -1.0497  0.0542
19114TIP3    H278834   3.031   0.334   2.516  1.5414  1.9405 -0.3336
19115TIP3   OH278835   6.678   3.379   5.851  0.0460  0.3089  0.4766
19115TIP3    H178836   6.747   3.442   5.873  1.7105 -1.0689 -0.6212
19115TIP3    H278837   6.664   3.390   5.757  1.6014 -2.0786 -0.0930
19116TIP3   OH278838   2.462   2.265   4.412  0.0792  0.3684 -0.0934
19116TIP3    H178839   2.461   2.173   4.439 -1.1221 -0.4445 -2.7742
19116TIP3    H278840   2.552   2.293   4.429  0.9452 -1.8048 -0.8671
19117TIP3   OH278841   2.690   4.797  15.300  0.5987 -0.0005  0.6975
19117TIP3    H178842   2.634   4.867  15.332 -1.7878 -0.4356 -2.2500
19117TIP3    H278843   2.746   4.774  15.374 -0.2024  3.3697  2.4230
19118TIP3   OH278844   1.371   4.765   1.987  0.8585 -0.4831 -0.3897
19118TIP3    H178845   1.291   4.812   1.965  1.8199  0.5045 -1.8243
19118TIP3    H278846   1.359   4.678   1.949  1.0407  0.1051 -1.7999
19119TIP3   OH278847   0.975   5.074   3.170  0.5885 -0.1029 -0.4444
19119TIP3    H178848   0.986   5.093   3.263  1.0047 -0.1738 -0.4796
19119TIP3    H278849   0.917   5.143   3.138  1.0347  0.3369 -0.2929
19120TIP3   OH278850   1.389   2.801  14.358 -0.4957  0.2192 -0.3127
19120TIP3    H178851   1.481   2.808  14.385 -0.2842 -3.0148 -0.0029
19120TIP3    H278852   1.393   2.771  14.267 -1.2493  1.4610 -0.7577
19121TIP3   OH278853   4.085   6.613  11.285  0.5846 -0.2710  0.1601
19121TIP3    H178854   4.178   6.626  11.304  0.5628 -1.2213  0.9296
19121TIP3    H278855   4.079   6.521  11.258 -0.1991 -0.3389  0.5523
19122TIP3   OH278856   2.374   2.638  15.321 -0.0114 -0.1245 -0.3698
19122TIP3    H178857   2.432   2.702  15.362  0.2893 -1.2716  1.0460
19122TIP3    H278858   2.431   2.563  15.302 -0.5261 -0.2928 -1.2376
19123TIP3   OH278859   0.496   2.016  14.624 -0.1551 -0.0483 -0.4786
19123TIP3    H178860   0.402   2.005  14.631 -0.1556  0.2657  0.0197
19123TIP3    H278861   0.517   1.989  14.534 -1.1808  3.0499 -1.7270
19124TIP3   OH278862   2.372   1.867  14.654  0.0837 -0.1838  0.1870
19124TIP3    H178863   2.335   1.891  14.739  0.1290 -0.3750  0.2613
19124TIP3    H278864   2.457   1.828  14.675  1.0914  1.7954 -0.0812
19125TIP3   OH278865   0.958   5.950   6.991  0.4256  0.0897 -0.1278
19125TIP3    H178866   0.928   6.041   6.990  0.1988  0.0129 -0.2727
19125TIP3    H278867   1.050   5.955   6.965  0.6168  0.3491  0.5892
19126TIP3   OH278868   5.141   0.542   4.937  0.2216 -0.6755 -0.1646
19126TIP3    H178869   5.064   0.597   4.951 -0.9947 -2.5568  0.7230
19126TIP3    H278870   5.204   0.573   5.003 -0.9643 -1.2344  1.2694
19127TIP3   OH278871   1.300   5.069   5.691  0.4575 -0.4023  0.0595
19127TIP3    H178872   1.208   5.050   5.713  0.0433  0.0325 -1.2309
19127TIP3    H278873   1.349   5.042   5.769 -0.8281  0.0027  1.0376
19128TIP3   OH278874   5.723   4.088  16.095  0.4652  0.3722  0.0518
19128TIP3    H178875   5.663   4.077  16.169 -0.2427 -1.0222 -0.7085
19128TIP3    H278876   5.667   4.107  16.020  1.1772  1.6804 -0.1682
19129TIP3   OH278877   4.125   6.434  14.077  0.6632 -0.1693 -0.4217
19129TIP3    H178878   4.043   6.390  14.098  1.1176 -1.4601 -1.3413
19129TIP3    H278879   4.123   6.446  13.982  0.8385  1.2187 -0.2636
19130TIP3   OH278880   1.274   0.953  14.880 -0.0173 -0.0883 -0.3221
19130TIP3    H178881   1.279   0.867  14.839  0.1688 -0.3093  0.1520
19130TIP3    H278882   1.361   0.991  14.866  0.1211 -0.2545  0.0430
19131TIP3   OH278883   4.997   6.694   1.481  0.2454 -0.2402 -0.7926
19131TIP3    H178884   4.998   6.678   1.576 -1.6958  2.7679 -0.2085
19131TIP3    H278885   5.090   6.699   1.457  0.7652 -1.2243  0.8855
19132TIP3   OH278886   4.710   5.200   0.242 -0.1609  0.0681 -0.3240
19132TIP3    H178887   4.683   5.275   0.189  0.0874  2.1340  2.3811
19132TIP3    H278888   4.803   5.190   0.224  0.0664  1.1864  0.2169
19133TIP3   OH278889   1.030   2.107   3.727 -0.5171  0.6613 -0.0056
19133TIP3    H178890   1.124   2.108   3.744 -0.7066  0.4953  1.1026
19133TIP3    H278891   1.017   2.032   3.669 -0.0376  0.3637  0.2712
19134TIP3   OH278892   2.093   4.458  15.380  0.0094  0.2098  0.0458
19134TIP3    H178893   2.138   4.377  15.404 -0.2905 -0.5177 -1.7996
19134TIP3    H278894   2.162   4.516  15.351  0.0015 -0.1188 -0.6316
19135TIP3   OH278895   1.231   0.779  15.929 -0.0353  0.3993  0.7913
19135TIP3    H178896   1.233   0.853  15.991  0.0229 -0.9203  2.3866
19135TIP3    H278897   1.279   0.709  15.973 -0.1546 -0.6344 -0.6812
19136TIP3   OH278898   1.650   1.134   1.632 -0.3177  0.2638 -0.1887
19136TIP3    H178899   1.735   1.104   1.664 -0.5682 -3.1077 -2.4168
19136TIP3    H278900   1.589   1.113   1.702  0.2279 -0.2076  0.1507
19137TIP3   OH278901   3.352   6.697   4.869 -0.3508  0.2996 -0.5198
19137TIP3    H178902   3.418   6.765   4.860 -0.0508 -0.0599 -1.0464
19137TIP3    H278903   3.325   6.676   4.779 -1.1322  0.3991 -0.3157
19138TIP3   OH278904   6.527   1.345   2.266  0.4599 -0.4861  0.2173
19138TIP3    H178905   6.614   1.385   2.276  0.7385 -1.2917  1.1252
19138TIP3    H278906   6.527   1.274   2.330 -0.0735 -1.8567 -1.2948
19139TIP3   OH278907   6.003   4.506   1.952  0.2203  0.6702  0.0099
19139TIP3    H178908   6.015   4.557   1.873 -0.3290  2.0034  0.7647
19139TIP3    H278909   6.055   4.426   1.938 -0.1036  0.7538 -1.7871
19140TIP3   OH278910   2.108   0.798   3.370  0.4978 -0.0743  0.0924
19140TIP3    H178911   2.159   0.831   3.443  0.5348 -0.2164  0.1291
19140TIP3    H278912   2.102   0.704   3.384  0.2019 -0.0550  0.1052
19141TIP3   OH278913   3.810   6.187  15.821 -0.2181  0.5812 -0.1405
19141TIP3    H178914   3.768   6.180  15.735  0.3618  0.1448 -0.3947
19141TIP3    H278915   3.824   6.281  15.834 -0.9506  0.6965 -0.2119
19142TIP3   OH278916   5.971   5.104  12.142  0.7658 -0.3089  0.0075
19142TIP3    H178917   5.992   5.067  12.057  0.9740  0.1030 -0.1203
19142TIP3    H278918   5.973   5.029  12.202 -0.7928 -0.8466 -0.5863
19143TIP3   OH278919   0.505   2.996  13.114 -0.4147  0.3787  0.0619
19143TIP3    H178920   0.479   3.087  13.130  1.1845  0.7457  0.7770
19143TIP3    H278921   0.513   2.958  13.202  2.0251  0.4971 -0.0726
19144TIP3   OH278922   1.278   4.399  15.618 -0.1269  0.0872  0.2765
19144TIP3    H178923   1.339   4.460  15.576 -0.6668  0.8559  0.5891
19144TIP3    H278924   1.331   4.321  15.637  0.2391 -0.0724 -1.3558
19145TIP3   OH278925   4.437   4.199  11.843  0.4696  0.4253  0.1104
19145TIP3    H178926   4.363   4.170  11.896  0.9750 -0.7956  0.1727
19145TIP3    H278927   4.513   4.153  11.880  0.8119 -0.5624 -1.7310
19146TIP3   OH278928   2.366   2.885   1.130 -0.4330 -0.2925  0.0509
19146TIP3    H178929   2.392   2.974   1.153  0.6640 -0.8050  0.8662
19146TIP3    H278930   2.306   2.858   1.199 -1.8862  0.3178 -0.9654
19147TIP3   OH278931   4.846   0.940   5.738 -0.4445 -0.3050  0.1768
19147TIP3    H178932   4.753   0.951   5.718 -0.4462 -0.6720 -0.0211
19147TIP3    H278933   4.847   0.892   5.821 -0.4360  1.0799  0.9963
19148TIP3   OH278934   5.866   0.321   5.755  0.5423 -0.1097  0.2197
19148TIP3    H178935   5.899   0.357   5.837 -0.2137 -0.6814  0.7759
19148TIP3    H278936   5.933   0.343   5.690  1.3904 -0.1399  1.0934
19149TIP3   OH278937   4.035   0.147   4.251  0.8428  0.3566  0.1526
19149TIP3    H178938   3.995   0.076   4.200 -1.0161  1.1972  0.3895
19149TIP3    H278939   4.127   0.123   4.257  0.1386 -2.4065  0.8437
19150TIP3   OH278940   5.313   1.241  15.626 -1.2415 -0.0221  0.5638
19150TIP3    H178941   5.305   1.330  15.592 -0.3010  0.0252  0.4479
19150TIP3    H278942   5.375   1.249  15.698 -2.0641 -0.3842  1.3121
19151TIP3   OH278943   4.490   5.347  16.651 -0.6208  0.2868  0.2191
19151TIP3    H178944   4.558   5.285  16.677 -1.4372 -0.3533  0.8666
19151TIP3    H278945   4.416   5.292  16.625  0.1650  0.8983 -3.5591
19152TIP3   OH278946   4.515   6.759   2.946  0.0111  0.4498  0.2295
19152TIP3    H178947   4.554   6.785   3.029 -0.6932  0.1411  0.6594
19152TIP3    H278948   4.585   6.771   2.882 -0.3782  3.7709  0.3309
19153TIP3   OH278949   6.444   2.884   5.385 -0.6724 -0.0852  0.3797
19153TIP3    H178950   6.504   2.957   5.371 -1.8398  1.0564  1.2501
19153TIP3    H278951   6.357   2.921   5.371 -1.3698 -0.9209  2.3699
19154TIP3   OH278952   1.153   5.802   6.041  0.4240  0.2032 -0.0016
19154TIP3    H178953   1.138   5.801   5.946 -0.7173  1.6780  0.1577
19154TIP3    H278954   1.189   5.888   6.059 -1.6454  0.8411  1.2362
19155TIP3   OH278955   1.452   2.722  15.355 -0.0477 -0.2334  0.3808
19155TIP3    H178956   1.465   2.700  15.263  0.0247  1.2224  0.0333
19155TIP3    H278957   1.358   2.711  15.369 -0.4565  1.9173 -0.5193
19156TIP3   OH278958   1.833   5.454   4.990  0.2858 -0.2904  0.0460
19156TIP3    H178959   1.868   5.482   5.075  0.6953  0.6423 -0.4202
19156TIP3    H278960   1.882   5.506   4.926 -0.7396 -0.2373 -0.7075
19157TIP3   OH278961   1.121   2.702  10.672  0.1441  0.1426  0.3096
19157TIP3    H178962   1.075   2.629  10.630  0.1491 -0.1867  0.8675
19157TIP3    H278963   1.161   2.750  10.600 -2.1252  1.1694 -0.2970
19158TIP3   OH278964   3.293   0.772  16.558 -0.7041  0.6874 -0.3722
19158TIP3    H178965   3.267   0.858  16.591 -1.7659  0.4057 -0.4806
19158TIP3    H278966   3.383   0.761  16.590 -0.6213  1.7475 -0.1962
19159TIP3   OH278967   6.066   5.696  11.814 -0.0032 -0.2734  0.0094
19159TIP3    H178968   5.998   5.695  11.882  0.0161  2.6785  0.1335
19159TIP3    H278969   6.030   5.641  11.744 -1.3710 -0.8658  1.1392
19160TIP3   OH278970   3.977   4.003   4.708 -0.2118 -0.2051 -0.4066
19160TIP3    H178971   3.936   3.990   4.622  1.3524  0.4792 -1.2728
19160TIP3    H278972   4.031   4.081   4.697 -1.2808  0.8695  1.6897
19161TIP3   OH278973   0.435   2.901  16.341  0.3213 -0.1657 -0.5500
19161TIP3    H178974   0.469   2.920  16.429 -0.0183 -0.5764 -0.3287
19161TIP3    H278975   0.355   2.851  16.356 -0.4724  0.9042 -1.0675
19162TIP3   OH278976   4.010   1.275  13.410 -0.4190  0.0663 -0.2000
19162TIP3    H178977   3.961   1.357  13.406  0.7692  0.7593 -1.3127
19162TIP3    H278978   4.065   1.284  13.488 -3.3012 -1.4645  2.0549
19163TIP3   OH278979   5.640   2.772  16.961 -0.2932 -0.1162  0.4675
19163TIP3    H178980   5.546   2.770  16.980  0.0449 -0.9648  2.1548
19163TIP3    H278981   5.661   2.682  16.934  0.1018 -0.0228  0.4605
19164TIP3   OH278982   2.929   6.053  11.312  0.1628 -0.3821 -0.2203
19164TIP3    H178983   2.940   6.126  11.252 -0.7011  1.2422  1.5265
19164TIP3    H278984   2.963   6.085  11.396 -0.8885 -1.7232  0.7502
19165TIP3   OH278985   1.129   0.913   5.881  0.7572  0.0035  0.4915
19165TIP3    H178986   1.098   0.987   5.934 -0.5940  1.1660 -1.8608
19165TIP3    H278987   1.147   0.844   5.945 -1.1537  1.2390  2.4447
19166TIP3   OH278988   0.207   0.959   2.668 -0.2138  0.5809 -0.3400
19166TIP3    H178989   0.227   0.995   2.582 -0.2554  0.6723 -0.3128
19166TIP3    H278990   0.239   0.869   2.666 -2.1340 -0.1259 -1.2084
19167TIP3   OH278991   2.811   6.191   5.805  0.4952  0.1718 -0.0523
19167TIP3    H178992   2.826   6.270   5.752  0.9991 -0.6667 -1.1854
19167TIP3    H278993   2.748   6.219   5.872  0.8281  1.5904 -0.3034
19168TIP3   OH278994   1.679   0.417   5.457 -0.2783 -0.1126 -0.1915
19168TIP3    H178995   1.757   0.420   5.511 -1.1399 -1.1802  1.1290
19168TIP3    H278996   1.670   0.506   5.423  0.7998  0.3301  0.6644
19169TIP3   OH278997   4.132   4.298  12.531 -0.0449  0.2154 -0.6757
19169TIP3    H178998   4.087   4.382  12.537 -0.1392  0.3097 -2.4562
19169TIP3    H278999   4.128   4.275  12.438  3.3722  0.1237 -0.8518
19170TIP3   OH279000   2.536   1.339  13.643  0.6755 -0.1264  0.0038
19170TIP3    H179001   2.537   1.373  13.733  0.9530 -0.5894  0.1729
19170TIP3    H279002   2.555   1.416  13.589 -0.3743  0.3387  0.2780
19171TIP3   OH279003   5.612   2.025  13.269 -0.0974  0.4856 -0.4665
19171TIP3    H179004   5.670   2.092  13.306 -2.7958  2.0370  1.1483
19171TIP3    H279005   5.603   2.050  13.176 -0.3154  1.8352 -0.0976
19172TIP3   OH279006   2.131   5.631  14.067 -0.3516 -0.2327 -0.1443
19172TIP3    H179007   2.142   5.546  14.109 -2.9459 -0.6342 -0.2029
19172TIP3    H279008   2.092   5.686  14.134  3.1686  1.5968  0.5675
19173TIP3   OH279009   1.578   4.586   6.044 -0.2308  0.0193 -0.0474
19173TIP3    H179010   1.545   4.643   5.975  0.8905  0.9597  0.1824
19173TIP3    H279011   1.540   4.622   6.124 -1.9099 -1.3510 -0.2050
19174TIP3   OH279012   5.902   1.041  11.051  0.3787 -0.0742  0.0059
19174TIP3    H179013   5.845   1.056  11.127  0.5544  0.2988  0.0633
19174TIP3    H279014   5.954   1.121  11.044 -0.7613  0.5391 -1.4981
19175TIP3   OH279015   5.484   6.070   2.616 -0.2077  0.5635 -0.1671
19175TIP3    H179016   5.537   6.069   2.695 -0.4847 -0.5352  0.0034
19175TIP3    H279017   5.431   6.150   2.624  0.4038  0.9223  0.3223
19176TIP3   OH279018   3.058   3.550  17.256  0.2925  0.1234 -0.0928
19176TIP3    H179019   3.019   3.630  17.292  1.6494  0.0051  1.7258
19176TIP3    H279020   3.051   3.561  17.162 -0.4454  1.9472  0.1394
19177TIP3   OH279021   4.665   3.712   1.005  0.0448  0.0979  0.7685
19177TIP3    H179022   4.753   3.679   1.026 -0.5878 -1.2684  1.3596
19177TIP3    H279023   4.610   3.678   1.075 -1.1311  0.1320 -0.1287
19178TIP3   OH279024   5.128   5.371   6.074  0.3310 -0.1171 -0.2587
19178TIP3    H179025   5.038   5.399   6.088  0.7267  0.8541  0.4465
19178TIP3    H279026   5.181   5.448   6.097  1.3410 -0.7323 -0.4812
19179TIP3   OH279027   1.964   6.100   3.723 -0.1250  0.4475 -0.0321
19179TIP3    H179028   2.025   6.131   3.790  0.9758 -3.4288  0.8483
19179TIP3    H279029   2.011   6.031   3.677 -2.7731 -0.5126 -1.4009
19180TIP3   OH279030   2.816   6.816   2.632 -0.3142 -0.0965  0.3215
19180TIP3    H179031   2.862   6.822   2.716  0.3018 -0.8049  0.0404
19180TIP3    H279032   2.756   6.891   2.632 -0.6820 -0.3663  1.6130
19181TIP3   OH279033   0.821   0.950  12.672  0.3105 -0.5988  0.4704
19181TIP3    H179034   0.779   1.014  12.728  1.1687  0.5941 -0.2313
19181TIP3    H279035   0.763   0.874  12.673 -1.1664  0.5315  0.5703
19182TIP3   OH279036   4.067   2.200  11.635  0.6383 -0.0515  0.0769
19182TIP3    H179037   4.074   2.289  11.669  0.1766 -0.3189  0.8630
19182TIP3    H279038   3.984   2.167  11.668  0.2851 -0.3951 -1.1136
19183TIP3   OH279039   1.210   5.121  14.862 -0.2166 -0.3299 -0.0489
19183TIP3    H179040   1.223   5.131  14.957 -0.0702  0.8956 -0.1970
19183TIP3    H279041   1.287   5.072  14.833  0.4163  0.4952  0.2444
19184TIP3   OH279042   4.997   3.175   4.797  0.7521  0.7749 -0.2625
19184TIP3    H179043   4.970   3.199   4.885  0.2004  3.2281 -1.0605
19184TIP3    H279044   4.965   3.246   4.742 -1.8626 -2.3166 -2.9365
19185TIP3   OH279045   6.160   0.291   1.745 -0.1521  0.5390  0.1491
19185TIP3    H179046   6.177   0.332   1.660 -0.3892  0.1990 -0.0646
19185TIP3    H279047   6.162   0.364   1.808 -0.7516  0.9110 -0.2558
19186TIP3   OH279048   4.346   4.357   3.892 -0.1411  0.5404 -0.2300
19186TIP3    H179049   4.393   4.284   3.853 -3.0629 -2.1840  1.0965
19186TIP3    H279050   4.253   4.333   3.883 -1.1865  4.0459  0.3444
19187TIP3   OH279051   6.267   6.630   2.843 -0.3460 -0.1983  0.1279
19187TIP3    H179052   6.331   6.699   2.823 -0.3372 -0.5699 -1.1463
19187TIP3    H279053   6.287   6.604   2.933  0.4826  0.5664  0.1699
19188TIP3   OH279054   1.582   5.331  16.714 -0.3262  0.2608  0.3532
19188TIP3    H179055   1.555   5.281  16.637  0.3615 -1.8039  1.4044
19188TIP3    H279056   1.509   5.322  16.775 -0.2671  0.6691  0.4833
19189TIP3   OH279057   3.183   5.624  12.976  0.3433  0.6479 -0.3443
19189TIP3    H179058   3.202   5.697  13.035 -1.2397  0.0538  0.9501
19189TIP3    H279059   3.269   5.587  12.954  0.9674  0.9505  1.5091
19190TIP3   OH279060   2.637   5.645  14.147 -0.4605  0.2983 -0.1608
19190TIP3    H179061   2.664   5.642  14.055 -0.1405  1.5456 -0.1049
19190TIP3    H279062   2.638   5.553  14.175  0.6699  0.0305 -1.0494
19191TIP3   OH279063   1.994   6.059  14.130  0.0026 -0.2999 -0.1989
19191TIP3    H179064   2.064   5.996  14.111 -0.4312 -0.6044 -0.8390
19191TIP3    H279065   1.924   6.035  14.068 -0.1433  0.8498 -0.4895
19192TIP3   OH279066   1.982   1.321  13.351  0.1837 -0.1139  0.4017
19192TIP3    H179067   2.049   1.257  13.375  0.1850 -0.4776 -0.5635
19192TIP3    H279068   1.985   1.386  13.421  0.7819 -0.7100  0.9356
19193TIP3   OH279069   0.501   2.616  17.145 -0.1595 -0.1628  0.4303
19193TIP3    H179070   0.517   2.535  17.097 -1.1667 -0.5227  0.6837
19193TIP3    H279071   0.468   2.677  17.079  0.7885  0.1024  0.2025
19194TIP3   OH279072   3.969   6.795  13.034 -0.0537 -0.0773  0.0934
19194TIP3    H179073   3.976   6.808  12.939 -1.0393 -0.2143 -0.0054
19194TIP3    H279074   3.877   6.812  13.054  0.3953  1.1117  1.2102
19195TIP3   OH279075   3.514   3.774  10.552  0.2079 -0.1582  0.1154
19195TIP3    H179076   3.475   3.693  10.518  2.4969 -0.9902 -0.6467
19195TIP3    H279077   3.474   3.844  10.500 -1.8867 -0.7660  0.8559
19196TIP3   OH279078   5.016   3.381  17.159  0.1185 -0.1353  0.5124
19196TIP3    H179079   5.047   3.414  17.075  0.6994 -0.6252  0.5227
19196TIP3    H279080   4.991   3.458  17.209  1.2875  0.2792  0.4737
19197TIP3   OH279081   3.005   5.253  15.301 -0.1706  0.2749 -0.3155
19197TIP3    H179082   3.092   5.289  15.281  0.3487 -0.9476 -0.3059
19197TIP3    H279083   3.024   5.170  15.344 -1.3448  0.5146  0.6507
19198TIP3   OH279084   1.641   3.997   2.125  0.7032 -0.1270  0.1105
19198TIP3    H179085   1.574   4.052   2.167  1.8052  2.1001 -0.9455
19198TIP3    H279086   1.671   3.938   2.194 -1.9611 -0.8047  0.7471
19199TIP3   OH279087   6.568   4.406  16.217  0.3875 -0.1282  0.1254
19199TIP3    H179088   6.534   4.351  16.288  0.9624 -2.0194 -1.0436
19199TIP3    H279089   6.655   4.432  16.248  0.1447  0.0838  0.6453
19200TIP3   OH279090   1.219   4.776   5.819 -0.3256 -0.5452 -0.6868
19200TIP3    H179091   1.221   4.786   5.914 -0.2650  0.4125 -0.7907
19200TIP3    H279092   1.193   4.862   5.785  0.3098 -0.6900 -1.5700
19201TIP3   OH279093   5.893   0.306  12.557  0.4782  0.0769  0.0645
19201TIP3    H179094   5.865   0.216  12.542 -1.5709  0.6323  0.5117
19201TIP3    H279095   5.816   0.360  12.539  1.6382  1.7548 -0.0944
19202TIP3   OH279096   0.884   5.439  14.570 -0.6370  0.3734 -0.3737
19202TIP3    H179097   0.962   5.433  14.625  1.6441 -1.4028 -3.6608
19202TIP3    H279098   0.837   5.357  14.585  0.4527 -0.5104 -1.6915
19203TIP3   OH279099   0.510   5.886  13.630 -0.7085  0.2066 -0.3137
19203TIP3    H179100   0.425   5.926  13.651 -0.1191 -0.4364  3.7707
19203TIP3    H279101   0.574   5.954  13.651 -0.0840  0.0014 -1.5095
19204TIP3   OH279102   6.298   4.839   2.655 -0.4865 -0.3581  0.1689
19204TIP3    H179103   6.286   4.833   2.560 -1.6694  1.6961  0.1802
19204TIP3    H279104   6.392   4.821   2.667 -0.3406 -0.7561 -1.3720
19205TIP3   OH279105   0.297   4.788   5.052  0.1495 -0.3857 -0.3441
19205TIP3    H179106   0.221   4.742   5.088 -0.6408  0.0854 -1.3438
19205TIP3    H279107   0.271   4.881   5.055  0.4133 -0.2772 -1.2990
19206TIP3   OH279108   0.169   6.025  16.167 -0.0643  0.3228  0.0977
19206TIP3    H179109   0.134   5.964  16.103  0.4604 -1.2667  1.3076
19206TIP3    H279110   0.118   6.105  16.153  0.6426  0.3155 -2.8699
19207TIP3   OH279111   2.859   6.723  16.820  0.2699 -0.1262 -0.4645
19207TIP3    H179112   2.777   6.684  16.848  0.1393  0.2148 -0.3662
19207TIP3    H279113   2.901   6.751  16.902 -0.1899  1.0254 -0.6088
19208TIP3   OH279114   4.911   1.723  15.031 -0.2708  0.0661 -0.5246
19208TIP3    H179115   4.896   1.686  15.118 -1.2095 -2.1523 -1.5748
19208TIP3    H279116   4.906   1.817  15.043 -0.2008 -0.2059  1.8482
19209TIP3   OH279117   5.405   2.730   4.054  0.3174  0.4418 -0.7124
19209TIP3    H179118   5.407   2.782   3.975 -1.0591  0.8599 -0.4863
19209TIP3    H279119   5.312   2.709   4.067  0.7616 -1.5797 -0.4925
19210TIP3   OH279120   6.109   6.507   1.221  0.7619  0.2467 -0.0891
19210TIP3    H179121   6.044   6.444   1.252  1.2747  0.2815  1.0850
19210TIP3    H279122   6.069   6.592   1.234  0.8524  0.2458  0.2180
19211TIP3   OH279123   6.676   1.026  13.883  0.3100 -0.0357  0.1704
19211TIP3    H179124   6.675   0.960  13.953 -0.4568  1.0124  1.1720
19211TIP3    H279125   6.767   1.057  13.881  0.7632 -1.3963 -0.5717
19212TIP3   OH279126   5.945   6.115  12.858  0.0703  0.1636  0.1268
19212TIP3    H179127   5.921   6.201  12.892  0.7870 -0.1554  1.4504
19212TIP3    H279128   5.903   6.053  12.917  0.2147 -0.4091 -0.3586
19213TIP3   OH279129   2.568   4.032  16.571 -0.1313 -0.0203  0.2591
19213TIP3    H179130   2.481   4.046  16.609  0.2866  1.9952  0.5479
19213TIP3    H279131   2.591   4.116  16.531  1.4599 -0.6853 -0.2843
19214TIP3   OH279132   2.383   5.271  15.311 -0.5149 -0.0694  0.3536
19214TIP3    H179133   2.440   5.235  15.378  0.4523 -2.2497 -1.5753
19214TIP3    H279134   2.416   5.360  15.297  0.0115 -0.0084  1.8960
19215TIP3   OH279135   6.239   6.427   3.038  0.1951 -0.1696 -0.4199
19215TIP3    H179136   6.312   6.470   3.083 -0.8501 -1.7766  2.9530
19215TIP3    H279137   6.161   6.460   3.084 -1.1294  0.3601 -2.9881
19216TIP3   OH279138   6.404   1.967  16.065  0.3932  0.1450  0.5238
19216TIP3    H179139   6.322   2.002  16.101 -0.5149 -0.6983 -0.7010
19216TIP3    H279140   6.415   1.883  16.109 -1.1697 -1.2856 -1.7531
19217TIP3   OH279141   5.249   5.837   2.071 -0.4090  0.2289  0.1414
19217TIP3    H179142   5.286   5.824   1.984 -2.0145  0.0403 -0.5405
19217TIP3    H279143   5.312   5.894   2.116  1.7354 -1.7993 -0.2254
19218TIP3   OH279144   1.822   6.432   1.989 -0.1325  0.2849  0.8007
19218TIP3    H179145   1.844   6.469   1.904 -0.6336  0.4465  0.7453
19218TIP3    H279146   1.875   6.482   2.051 -0.1632  0.5162  0.6403
19219TIP3   OH279147   5.616   3.854  14.474 -0.4801  0.1749 -0.1603
19219TIP3    H179148   5.617   3.883  14.566 -0.2282 -0.8181  0.1625
19219TIP3    H279149   5.613   3.758  14.480  2.5753 -0.0239 -1.1767
19220TIP3   OH279150   1.690   0.605  13.509  0.3587 -0.3479  0.1226
19220TIP3    H179151   1.660   0.653  13.431  0.4822 -1.0256 -0.3513
19220TIP3    H279152   1.693   0.671  13.578  1.5175  0.5457 -0.7530
19221TIP3   OH279153   4.132   6.640  15.973 -0.2578 -0.2468 -0.1976
19221TIP3    H179154   4.076   6.653  15.897 -1.7033 -1.3339  0.6480
19221TIP3    H279155   4.073   6.650  16.048  1.5354  2.9574  0.9017
19222TIP3   OH279156   4.344   2.894  11.212 -0.4836  0.2991 -0.7697
19222TIP3    H179157   4.376   2.808  11.239  0.7302  1.3204  1.1735
19222TIP3    H279158   4.250   2.890  11.231 -0.4666 -0.6434 -0.8329
19223TIP3   OH279159   1.041   6.795  17.031 -0.2214 -0.3202 -0.4966
19223TIP3    H179160   1.020   6.752  16.947 -2.7487 -0.7329  0.2997
19223TIP3    H279161   1.114   6.745  17.066  1.7450  0.6627 -3.0439
19224TIP3   OH279162   1.910   2.253  13.603  0.2582  0.1362 -0.3514
19224TIP3    H179163   1.979   2.241  13.538  0.9010 -1.0214  0.5168
19224TIP3    H279164   1.852   2.320  13.566  0.4614 -0.7100 -2.2420
19225TIP3   OH279165   5.732   5.778  12.684  0.0912  0.2526 -0.4809
19225TIP3    H179166   5.699   5.696  12.647  1.0949  0.0935 -1.0576
19225TIP3    H279167   5.814   5.794  12.637  0.4046  1.0699  0.3201
19226TIP3   OH279168   5.394   5.285   2.650  0.2435 -0.1554 -0.2235
19226TIP3    H179169   5.381   5.190   2.659  0.2853 -0.3150 -1.6905
19226TIP3    H279170   5.434   5.295   2.564  1.8076  1.0681  0.6177
19227TIP3   OH279171   3.611   1.189  16.405  0.8812 -0.3195  0.2246
19227TIP3    H179172   3.686   1.219  16.456  0.6722 -1.4629  1.2191
19227TIP3    H279173   3.611   1.094  16.415 -0.2026 -0.4027 -0.4643
19228TIP3   OH279174   3.373   5.889   2.849  0.4203 -0.1017  0.1241
19228TIP3    H179175   3.309   5.938   2.901 -1.5926 -1.6217 -0.8433
19228TIP3    H279176   3.409   5.954   2.788  0.4375  0.9596  1.2372
19229TIP3   OH279177   1.885   4.430   6.100 -0.8130  0.1478 -1.1277
19229TIP3    H179178   1.942   4.360   6.133 -1.8508 -0.2470 -0.1088
19229TIP3    H279179   1.943   4.505   6.088 -0.3189  0.1870  1.2835
19230TIP3   OH279180   4.956   6.281   1.625 -0.0827 -0.1692  0.3408
19230TIP3    H179181   4.945   6.319   1.538 -0.9004 -0.5146  0.2879
19230TIP3    H279182   4.992   6.194   1.609 -1.6608 -0.8258  0.2508
19231TIP3   OH279183   2.869   5.130  15.957 -0.8097  0.0223  0.3574
19231TIP3    H179184   2.884   5.175  16.040 -0.2811  0.7476 -0.1197
19231TIP3    H279185   2.935   5.061  15.955 -0.2161  0.5862  0.1323
19232TIP3   OH279186   6.506   5.222   4.476 -0.2983  0.4569  0.2885
19232TIP3    H179187   6.474   5.273   4.402 -1.1868  0.5438  0.7187
19232TIP3    H279188   6.505   5.284   4.549  1.5763  0.6606  0.1515
19233TIP3   OH279189   2.064   2.275  12.610 -0.0160  0.1196 -0.1283
19233TIP3    H179190   2.091   2.362  12.581 -1.7669  0.4485 -0.8274
19233TIP3    H279191   2.037   2.231  12.530  0.6002 -0.9876  0.2672
19234TIP3   OH279192   2.259   4.080  15.675  0.7659  0.6930  0.1916
19234TIP3    H179193   2.305   4.076  15.759 -0.7308 -0.2581  0.9808
19234TIP3    H279194   2.201   4.155  15.683 -0.4826 -0.2944  0.6019
19235TIP3   OH279195   5.862   0.029   5.797  0.1441  0.4276 -0.3788
19235TIP3    H179196   5.905   0.097   5.745 -0.2264  0.1150 -1.0988
19235TIP3    H279197   5.928  -0.040   5.806  0.7791  1.1696  0.9727
19236TIP3   OH279198   2.729   0.063  15.788 -0.2282 -0.3364  0.4152
19236TIP3    H179199   2.763   0.052  15.877 -1.0600 -1.5985  0.5896
19236TIP3    H279200   2.641   0.025  15.791 -0.6694  0.5868 -0.6817
19237TIP3   OH279201   5.956   1.918  15.927  0.3881 -0.1651 -0.3353
19237TIP3    H179202   6.032   1.944  15.874 -0.6240  0.2263 -1.6212
19237TIP3    H279203   5.926   2.000  15.967 -0.9839  0.1703 -1.9958
19238TIP3   OH279204   6.329   4.207   2.871  0.5475 -0.1626 -0.0089
19238TIP3    H179205   6.348   4.182   2.962  0.3143  1.6552  0.5420
19238TIP3    H279206   6.309   4.124   2.828 -0.4878 -0.9246  1.8753
19239TIP3   OH279207   0.898   3.094  13.241  0.0208  0.1424 -0.1585
19239TIP3    H179208   0.861   3.034  13.176  0.8488 -0.3630 -0.1817
19239TIP3    H279209   0.858   3.179  13.221 -1.8858 -0.5909  0.4774
19240TIP3   OH279210   2.015   0.263  17.182  0.3904 -0.0225 -0.0498
19240TIP3    H179211   2.039   0.355  17.186  1.8446 -0.3270 -1.2095
19240TIP3    H279212   1.922   0.263  17.158  1.1330  1.1396 -3.1881
19241TIP3   OH279213   1.192   3.013  10.762  0.4448 -0.7153  0.0576
19241TIP3    H179214   1.121   3.076  10.752  1.0395 -0.1682 -0.8812
19241TIP3    H279215   1.213   2.987  10.672  1.5376 -0.7442  0.3127
19242TIP3   OH279216   6.393   3.263   1.005 -0.4014  0.6104  0.1356
19242TIP3    H179217   6.373   3.195   0.941  1.8429  0.7086 -0.7106
19242TIP3    H279218   6.388   3.219   1.089 -2.2354  0.2054 -0.1701
19243TIP3   OH279219   5.366   2.718  17.017  0.7290  0.2965  0.9491
19243TIP3    H179220   5.377   2.674  17.101 -0.7923 -1.5356  0.2313
19243TIP3    H279221   5.271   2.724  17.005  0.9171  2.0565  0.1211
19244TIP3   OH279222   3.738   4.975  15.943  0.1690  0.3411  0.1667
19244TIP3    H179223   3.744   4.912  16.015 -1.6355  1.0977  0.9933
19244TIP3    H279224   3.727   5.060  15.986  0.4284  0.9723 -0.9894
19245TIP3   OH279225   5.776   1.874  15.564  0.2744 -0.3653  0.5155
19245TIP3    H179226   5.771   1.813  15.490  2.4382  0.7040 -0.5451
19245TIP3    H279227   5.868   1.898  15.569 -0.0873  0.6537  2.7049
19246TIP3   OH279228   1.548   3.632  11.277 -0.1063 -0.2849 -0.1500
19246TIP3    H179229   1.540   3.705  11.216 -0.1744  0.6390  0.9492
19246TIP3    H279230   1.490   3.564  11.243 -0.1777  0.2415 -1.0699
19247TIP3   OH279231   1.697   1.279  12.959 -0.2545 -0.1949 -0.1401
19247TIP3    H179232   1.655   1.203  12.919 -0.9602  1.0633 -1.8546
19247TIP3    H279233   1.762   1.307  12.894  0.5974  0.1634  0.8499
19248TIP3   OH279234   0.896   1.185   3.941  0.5445 -0.1944 -0.1236
19248TIP3    H179235   0.844   1.109   3.969 -0.7693 -0.2189 -2.5238
19248TIP3    H279236   0.986   1.159   3.957  0.0588 -1.9730 -0.1670
19249TIP3   OH279237   5.555   5.597   0.292  0.1855 -0.4731  0.5135
19249TIP3    H179238   5.565   5.609   0.386  1.2540  2.5479  0.0630
19249TIP3    H279239   5.504   5.516   0.283  0.3130 -0.9450  3.6492
19250TIP3   OH279240   1.822   4.527   6.826 -0.3014  0.7123 -0.2050
19250TIP3    H179241   1.844   4.619   6.813 -2.7824  1.2289 -1.0472
19250TIP3    H279242   1.906   4.485   6.844  1.0887  2.8461 -1.3986
19251TIP3   OH279243   4.862   6.163  11.869  0.1401  0.1349 -0.5167
19251TIP3    H179244   4.870   6.255  11.845 -1.4553  0.0686 -1.3709
19251TIP3    H279245   4.791   6.161  11.933  0.2183 -0.4905 -0.4436
19252TIP3   OH279246   2.048   4.253  11.949 -0.0826  0.0287  0.3042
19252TIP3    H179247   2.033   4.159  11.945  0.2574 -0.1514  2.6953
19252TIP3    H279248   1.983   4.286  12.011 -1.7719  1.7505 -2.2666
19253TIP3   OH279249   1.996   4.612   0.614  0.8756 -0.1318 -0.0239
19253TIP3    H179250   2.047   4.605   0.533 -0.4993 -0.7511 -0.8473
19253TIP3    H279251   1.965   4.523   0.632  0.3673  0.1748  0.6531
19254TIP3   OH279252   1.386   0.437  13.648  0.1299 -0.0243 -0.2172
19254TIP3    H179253   1.473   0.465  13.677 -1.5022  2.5496  2.5887
19254TIP3    H279254   1.361   0.369  13.711 -0.9879  1.2455  0.7335
19255TIP3   OH279255   2.026   0.791  17.176  0.4728 -0.7430  0.6570
19255TIP3    H179256   1.940   0.775  17.215  0.2775  0.3552  0.6927
19255TIP3    H279257   2.006   0.832  17.092  0.9343 -1.7291  0.0594
19256TIP3   OH279258   0.777   1.245   0.572  0.3714  0.3367  0.2963
19256TIP3    H179259   0.695   1.207   0.538  0.3598  0.3775  0.2788
19256TIP3    H279260   0.822   1.171   0.612  0.8980  0.0581 -0.7839
19257TIP3   OH279261   1.549   2.365  11.753 -0.3782 -0.3404 -0.0642
19257TIP3    H179262   1.503   2.378  11.670 -2.1179 -0.8158  0.8070
19257TIP3    H279263   1.484   2.385  11.820  1.5547  1.9705  1.2123
19258TIP3   OH279264   0.062   6.146  11.677  0.5248  0.5203  0.4317
19258TIP3    H179265   0.139   6.090  11.682  0.3024  0.0599 -0.9607
19258TIP3    H279266   0.083   6.221  11.732  0.7381 -1.0092  2.4783
19259TIP3   OH279267   0.126   3.298  13.932  0.3294  0.3386 -0.5619
19259TIP3    H179268   0.168   3.383  13.929 -0.7472  0.8135 -3.1770
19259TIP3    H279269   0.046   3.312  13.984  0.8715  0.5725  0.2125
19260TIP3   OH279270   6.785   1.475  16.912 -0.2144 -0.2852  0.8778
19260TIP3    H179271   6.760   1.507  16.998 -1.9108  0.5092  0.1071
19260TIP3    H279272   6.820   1.553  16.867  1.2017 -0.8154  1.0285
19261TIP3   OH279273   3.200   6.343  12.703 -0.0949 -0.1262 -0.1773
19261TIP3    H179274   3.199   6.282  12.777 -0.8492  0.8879  0.6656
19261TIP3    H279275   3.135   6.308  12.642 -0.4132 -0.2496  0.2317
19262TIP3   OH279276   6.465   3.530   4.028  0.3545 -0.5757  0.1927
19262TIP3    H179277   6.442   3.442   3.998  2.1437 -1.1758  0.5121
19262TIP3    H279278   6.443   3.587   3.955 -0.1746 -1.3691 -0.2754
19263TIP3   OH279279   6.044   0.189   2.242  0.2051  0.0715 -0.1135
19263TIP3    H179280   6.099   0.188   2.320 -0.0352 -0.1274  0.0544
19263TIP3    H279281   5.975   0.253   2.262 -1.1986 -1.6769  0.7745
19264TIP3   OH279282   4.703   1.413  16.534 -0.0244  0.1525  0.8885
19264TIP3    H179283   4.661   1.435  16.451 -0.3762  1.1922  1.3317
19264TIP3    H279284   4.730   1.497  16.570  0.4443 -0.3253  1.6616
19265TIP3   OH279285   3.383   6.342  16.340  0.0495  0.6165 -1.2100
19265TIP3    H179286   3.454   6.401  16.312  1.2121  0.4250  1.1924
19265TIP3    H279287   3.426   6.258  16.354 -0.8239  0.2652 -0.5897
19266TIP3   OH279288   2.828   3.215  13.626  0.4833  0.8302 -0.6242
19266TIP3    H179289   2.754   3.273  13.606  0.1681  0.9668  0.8269
19266TIP3    H279290   2.790   3.147  13.682  0.7123 -1.1863 -2.8681
19267TIP3   OH279291   2.133   3.673   1.513  0.0549  0.0910  0.0449
19267TIP3    H179292   2.054   3.727   1.523 -1.0805 -1.5175  0.0704
19267TIP3    H279293   2.187   3.720   1.450 -2.2790 -0.2295 -2.2900
19268TIP3   OH279294   3.641   0.171   5.248  0.2993  0.7058  0.5019
19268TIP3    H179295   3.553   0.208   5.252 -0.1537 -0.3699  0.6870
19268TIP3    H279296   3.635   0.089   5.299  1.1054  0.0357 -0.4568
19269TIP3   OH279297   0.510   4.500  15.380  0.0374  0.4614  0.3339
19269TIP3    H179298   0.422   4.532  15.398  0.3114  0.0745  2.4126
19269TIP3    H279299   0.497   4.422  15.326 -0.9295  0.0516  1.1490
19270TIP3   OH279300   6.613   4.495  11.027 -0.1711 -0.4212 -0.2153
19270TIP3    H179301   6.521   4.488  11.052 -0.4548 -0.1992 -1.1570
19270TIP3    H279302   6.613   4.554  10.951  0.9108  0.7997  0.6879
19271TIP3   OH279303   6.262   2.090  15.529  1.1389  0.5788 -0.0129
19271TIP3    H179304   6.184   2.104  15.476 -2.0694 -0.9941  4.0446
19271TIP3    H279305   6.288   2.178  15.557 -2.0620  0.8491  2.3954
19272TIP3   OH279306   4.687   0.309  15.360 -0.4704  0.4562 -0.4213
19272TIP3    H179307   4.676   0.253  15.283  0.1427 -0.1672 -0.0746
19272TIP3    H279308   4.767   0.275  15.401 -0.8631  0.7015  0.5474
19273TIP3   OH279309   4.867   5.032   5.472  0.2287  0.1569  0.5959
19273TIP3    H179310   4.923   5.067   5.541  1.9835  0.3623 -0.8845
19273TIP3    H279311   4.888   4.938   5.469  0.1124  0.1360  0.3948
19274TIP3   OH279312   4.827   1.396   5.976 -0.0989  0.2592  0.3673
19274TIP3    H179313   4.876   1.457   6.031  0.9447  0.9240 -1.2300
19274TIP3    H279314   4.835   1.433   5.888 -1.5505 -0.8766 -0.2559
19275TIP3   OH279315   2.065   2.383  14.628  0.4282 -0.4110 -0.3862
19275TIP3    H179316   2.091   2.418  14.713  0.8600 -0.9387 -0.2986
19275TIP3    H279317   2.052   2.289  14.643 -0.8515 -0.2685 -0.5892
19276TIP3   OH279318   2.004   3.952   4.585 -0.6646  0.6784 -0.7363
19276TIP3    H179319   2.008   3.858   4.570 -1.7340  0.8651 -2.2666
19276TIP3    H279320   2.007   3.991   4.498 -0.0097  2.0854 -0.1092
19277TIP3   OH279321   2.713   2.965  10.916 -0.2691 -0.0123  0.1273
19277TIP3    H179322   2.635   2.910  10.925  0.3290 -0.9252 -0.1355
19277TIP3    H279323   2.697   3.016  10.837 -0.6805 -0.0674  0.1718
19278TIP3   OH279324   3.000   4.910  16.001 -0.3998 -0.1506 -0.1663
19278TIP3    H179325   3.054   4.854  16.057  0.7173  0.4700 -0.6113
19278TIP3    H279326   2.917   4.863  15.992  0.2600 -1.3625  0.0904
19279TIP3   OH279327   3.792   5.874   0.701  0.4226 -0.5636  0.5456
19279TIP3    H179328   3.728   5.838   0.640  0.0216 -0.0663  0.6687
19279TIP3    H279329   3.766   5.840   0.787 -1.9869  2.6510  1.1961
19280TIP3   OH279330   5.518   5.936  11.831 -0.1318  0.8656  0.2179
19280TIP3    H179331   5.536   5.861  11.888 -0.7593 -0.5098 -1.3742
19280TIP3    H279332   5.437   5.974  11.867 -0.4202  0.1153  0.3724
19281TIP3   OH279333   5.024   3.270   2.966  1.0061  0.0865  0.2460
19281TIP3    H179334   5.104   3.230   3.000  1.2920 -0.0041 -0.5350
19281TIP3    H279335   5.003   3.220   2.887 -0.3621 -0.5105  0.9671
19282TIP3   OH279336   4.377   2.130  12.793  0.1382  0.0267 -0.0246
19282TIP3    H179337   4.363   2.197  12.727  0.2869 -0.5754 -0.6697
19282TIP3    H279338   4.319   2.058  12.768  0.7796 -0.5255  0.0442
19283TIP3   OH279339   4.886   5.330  16.342  0.2770 -0.1803 -0.1330
19283TIP3    H179340   4.970   5.367  16.370 -1.3368  2.6177  1.2852
19283TIP3    H279341   4.896   5.236  16.353  2.1230  0.3392  3.2924
19284TIP3   OH279342   1.475   2.026  16.440 -0.5198 -0.2243 -0.0831
19284TIP3    H179343   1.436   2.034  16.528  0.2245 -0.7311  0.2970
19284TIP3    H279344   1.505   2.114  16.419  0.0039 -0.2562  0.5079
19285TIP3   OH279345   1.102   2.154  12.307  0.3408 -0.2988 -0.7613
19285TIP3    H179346   1.154   2.132  12.230 -0.4520  0.3586 -1.5060
19285TIP3    H279347   1.166   2.179  12.373  0.9844  0.4422 -1.6430
19286TIP3   OH279348   1.416   2.575   1.720 -0.3147  0.0119 -0.4976
19286TIP3    H179349   1.440   2.619   1.801 -0.6702 -0.2944 -0.2206
19286TIP3    H279350   1.465   2.620   1.652 -0.0039  0.2604 -0.1082
19287TIP3   OH279351   4.533   2.624  13.600  0.5460  0.1981  0.4593
19287TIP3    H179352   4.573   2.617  13.514 -0.1166  0.8317  0.0944
19287TIP3    H279353   4.605   2.651  13.658  0.8186  0.5520 -0.0424
19288TIP3   OH279354   1.994   4.928   5.075  0.0183 -0.0796 -0.4346
19288TIP3    H179355   1.995   4.927   5.171 -0.0141 -2.3649 -0.4272
19288TIP3    H279356   1.909   4.965   5.052  0.3273  1.1741  0.3995
19289TIP3   OH279357   3.203   6.103   0.719  0.4254 -0.3810  0.1721
19289TIP3    H179358   3.194   6.125   0.811  1.7322  1.1723 -0.0611
19289TIP3    H279359   3.273   6.038   0.716  1.4193  0.6930  0.1159
19290TIP3   OH279360   1.326   1.124  11.586 -0.6621  0.1961  0.7620
19290TIP3    H179361   1.323   1.036  11.625  1.1288 -0.2984 -0.1792
19290TIP3    H279362   1.234   1.150  11.580 -1.4675 -2.8197 -1.6461
19291TIP3   OH279363   5.083   4.826  16.571  0.9338 -0.5397 -0.3575
19291TIP3    H179364   5.037   4.776  16.503 -2.2820 -0.2848  1.4851
19291TIP3    H279365   5.080   4.916  16.540  0.2062 -0.5349 -0.2923
19292TIP3   OH279366   1.048   0.533  11.883 -0.0445 -0.5934 -0.0706
19292TIP3    H179367   1.005   0.532  11.968  0.3182 -0.0667  0.1281
19292TIP3    H279368   1.138   0.562  11.902  0.0289 -0.4339 -0.6324
19293TIP3   OH279369   4.686   6.059   0.906 -0.1012 -0.2842  0.0712
19293TIP3    H179370   4.779   6.036   0.907  0.5947  2.3808  3.1559
19293TIP3    H279371   4.667   6.074   0.813  2.3125 -1.6344 -0.7046
19294TIP3   OH279372   2.807   0.581   0.691  0.0432 -0.2533  0.6753
19294TIP3    H179373   2.818   0.489   0.668  0.3336 -0.1061  0.2203
19294TIP3    H279374   2.759   0.580   0.774  0.4690 -0.8252  0.9142
19295TIP3   OH279375   4.758   6.498  16.959  0.0720  0.0075  0.8880
19295TIP3    H179376   4.711   6.578  16.983  1.2738  0.5185  1.5414
19295TIP3    H279377   4.722   6.431  17.018 -1.6557 -0.1884 -0.3278
19296TIP3   OH279378   4.370   3.828   2.089  0.3357  0.2522 -0.2770
19296TIP3    H179379   4.463   3.843   2.077 -0.2329  3.0948 -1.4370
19296TIP3    H279380   4.331   3.848   2.004 -1.4084 -0.2241  0.3836
19297TIP3   OH279381   6.723   5.725   1.732  0.2057 -0.1409  0.0521
19297TIP3    H179382   6.700   5.685   1.648  1.5484 -1.0815  0.1117
19297TIP3    H279383   6.657   5.693   1.793  0.6793 -1.4762 -0.1212
19298TIP3   OH279384   0.981   1.353  16.039  0.0707 -0.0534  0.6696
19298TIP3    H179385   1.001   1.321  16.127 -0.5977 -0.6892  0.5962
19298TIP3    H279386   1.052   1.320  15.984 -0.8612 -1.8724  0.4989
19299TIP3   OH279387   0.790   4.107  17.220  0.0883 -0.1404 -0.0808
19299TIP3    H179388   0.858   4.146  17.274 -0.5928  0.4273  0.3800
19299TIP3    H279389   0.837   4.049  17.160  0.8370 -1.0113  1.3149
19300TIP3   OH279390   5.742   4.239  11.550  0.2386  0.5925 -0.3315
19300TIP3    H179391   5.736   4.249  11.455  0.0456  0.3590 -0.3440
19300TIP3    H279392   5.662   4.193  11.575  1.7317 -2.1780 -0.4628
19301TIP3   OH279393   2.656   2.654  12.521  0.5924 -0.0872  0.3013
19301TIP3    H179394   2.599   2.702  12.580 -0.4662 -0.0795 -0.7098
19301TIP3    H279395   2.725   2.716  12.497 -0.4216  0.7435 -0.5103
19302TIP3   OH279396   1.402   5.811  16.373 -0.3156 -0.2518  0.0414
19302TIP3    H179397   1.427   5.719  16.380  0.9816 -0.0251 -1.5494
19302TIP3    H279398   1.404   5.842  16.464  0.9696 -1.3486  0.4157
19303TIP3   OH279399   3.034   6.227   2.853 -0.2522  0.0250 -0.4789
19303TIP3    H179400   3.111   6.283   2.862 -0.1345 -0.2711  0.3720
19303TIP3    H279401   3.027   6.211   2.759  0.4976  0.3693 -0.5953
19304TIP3   OH279402   5.687   1.325  13.152 -0.1730  0.1640 -0.4371
19304TIP3    H179403   5.664   1.417  13.162  0.7071  0.2703  0.6084
19304TIP3    H279404   5.692   1.291  13.241 -1.1298 -1.0667 -0.8270
19305TIP3   OH279405   2.946   5.383   0.023 -0.0852  0.1953  0.2365
19305TIP3    H179406   2.980   5.378  -0.066 -0.3022 -0.7308  0.1973
19305TIP3    H279407   2.883   5.455   0.021 -0.5735 -0.2531 -0.5288
19306TIP3   OH279408   0.223   4.621   5.837 -0.2555 -0.0491  0.0858
19306TIP3    H179409   0.251   4.600   5.927 -0.1836  1.3459  0.4008
19306TIP3    H279410   0.237   4.540   5.788  0.1344 -0.6892  1.2342
19307TIP3   OH279411   1.385   4.927   0.632  0.1341  0.2907  0.1973
19307TIP3    H179412   1.324   4.854   0.637 -0.0572  0.2473 -2.1560
19307TIP3    H279413   1.335   5.003   0.662 -0.4883 -0.0771  0.0945
19308TIP3   OH279414   3.298   2.768  14.608  0.6822  0.2416  1.0433
19308TIP3    H179415   3.219   2.816  14.634  0.2120 -0.3196  0.6550
19308TIP3    H279416   3.334   2.819  14.535 -0.0287 -0.2051  0.3770
19309TIP3   OH279417   0.094   2.918  10.880  0.0770 -0.0032 -0.3031
19309TIP3    H179418   0.094   2.944  10.972 -0.3067  0.1105 -0.3361
19309TIP3    H279419   0.168   2.858  10.872  0.8026  0.8724 -0.1717
19310TIP3   OH279420   3.049   4.309   0.808 -0.3119 -0.4403 -0.1977
19310TIP3    H179421   3.108   4.295   0.882  1.0922 -1.3108 -1.4628
19310TIP3    H279422   3.104   4.299   0.730 -1.6423  1.0136 -1.3697
19311TIP3   OH279423   1.311   4.142   5.047  0.0689  0.1288  0.6220
19311TIP3    H179424   1.387   4.169   4.995 -0.8438 -1.2282 -1.5184
19311TIP3    H279425   1.267   4.224   5.069  0.5543  0.7544 -0.6836
19312TIP3   OH279426   2.737   1.325  15.792 -0.6161  0.6240 -1.0794
19312TIP3    H179427   2.698   1.294  15.710  0.0287 -1.0892 -0.7705
19312TIP3    H279428   2.830   1.333  15.774 -0.5199  0.5839 -0.6231
19313TIP3   OH279429   2.050   3.646  13.667  0.3197 -0.7311 -0.3836
19313TIP3    H179430   2.053   3.628  13.573  0.4231 -0.6738 -0.3921
19313TIP3    H279431   2.111   3.719  13.680  0.5919 -0.9843 -0.2171
19314TIP3   OH279432   5.701   5.261  12.087  0.0273 -0.3898 -0.1170
19314TIP3    H179433   5.790   5.230  12.106 -0.7927 -1.5740  1.9711
19314TIP3    H279434   5.658   5.187  12.045 -0.5319 -0.4890  0.6194
19315TIP3   OH279435   1.484   2.314  12.489 -0.1673 -0.0705 -0.5143
19315TIP3    H179436   1.550   2.314  12.420 -1.3417  2.2771 -1.6930
19315TIP3    H279437   1.533   2.331  12.569  0.6486  1.9272 -1.4101
19316TIP3   OH279438   2.013   2.768   0.770  0.1845  0.4814  0.3085
19316TIP3    H179439   2.001   2.764   0.864 -0.1477 -1.7613  0.1870
19316TIP3    H279440   2.066   2.692   0.748 -0.4229  0.5183 -1.4062
19317TIP3   OH279441   6.454   5.435  16.357 -0.5257  0.1452 -0.1397
19317TIP3    H179442   6.406   5.500  16.407  1.3512  0.4186  1.3595
19317TIP3    H279443   6.545   5.442  16.388  0.5799 -0.1356 -3.1022
19318TIP3   OH279444   6.749   5.278  15.992 -0.3891  0.3617  0.5200
19318TIP3    H179445   6.737   5.205  16.052 -2.4593  0.8843  0.7964
19318TIP3    H279446   6.713   5.245  15.909  1.6835 -0.0626 -0.2450
19319TIP3   OH279447   1.889   4.506  15.178 -0.4940  0.3723  0.1806
19319TIP3    H179448   1.850   4.420  15.162 -1.5845  0.5278  1.8858
19319TIP3    H279449   1.961   4.489  15.238 -1.4469  0.7733  1.4630
19320TIP3   OH279450   6.380   6.293   3.347 -0.6035  0.1936  0.1666
19320TIP3    H179451   6.362   6.270   3.438  1.0626 -1.0917  0.1800
19320TIP3    H279452   6.299   6.269   3.300 -1.7310  1.5162  1.3853
19321TIP3   OH279453   1.647   3.981   4.506 -0.2471  0.8950  0.3306
19321TIP3    H179454   1.647   3.924   4.583 -0.3072 -0.2729 -0.5117
19321TIP3    H279455   1.712   3.942   4.447 -0.9698  1.1490 -0.6508
19322TIP3   OH279456   6.451   6.579  13.911  0.3093 -0.6123 -0.4403
19322TIP3    H179457   6.390   6.628  13.856 -0.3550 -0.6919  0.2186
19322TIP3    H279458   6.395   6.535  13.976  0.9031 -2.1558 -0.9514
19323TIP3   OH279459   0.793   4.071   3.276  0.6195 -0.3002  0.3206
19323TIP3    H179460   0.797   3.997   3.337  1.1479  0.2719  0.9806
19323TIP3    H279461   0.823   4.035   3.193  3.4564 -0.1908  1.2528
19324TIP3   OH279462   2.441   1.091  15.481  0.1572  0.4615  0.1690
19324TIP3    H179463   2.370   1.146  15.448  0.2057 -0.6108 -1.8140
19324TIP3    H279464   2.398   1.033  15.544 -0.4971  0.6484 -0.0998
19325TIP3   OH279465   2.721   1.566  17.274 -0.3981 -0.0670 -0.4525
19325TIP3    H179466   2.690   1.653  17.251  0.9413 -0.2011 -2.9732
19325TIP3    H279467   2.641   1.513  17.281 -1.0523  0.6597 -2.1129
19326TIP3   OH279468   6.552   3.471  14.247  0.0316  0.0075  0.1410
19326TIP3    H179469   6.612   3.531  14.204  1.4188 -1.7097 -0.3941
19326TIP3    H279470   6.505   3.525  14.310  1.3518  1.6137 -0.2125
19327TIP3   OH279471   1.445   4.065   6.263  0.2744 -0.2521  0.5011
19327TIP3    H179472   1.428   3.975   6.291  2.5518 -0.7870  0.1898
19327TIP3    H279473   1.408   4.118   6.334  2.1197 -1.5110  2.4614
19328TIP3   OH279474   3.633   5.563   2.689 -0.5395 -0.1695 -0.5514
19328TIP3    H179475   3.697   5.504   2.650  0.2004  0.3878 -0.1808
19328TIP3    H279476   3.683   5.641   2.714 -0.9708 -0.5062  1.5085
19329TIP3   OH279477   4.184   4.636   0.617  0.3281  0.2118  0.2248
19329TIP3    H179478   4.233   4.651   0.699  0.4009 -0.1746  0.2564
19329TIP3    H279479   4.101   4.682   0.630 -0.3232 -1.1571  1.1738
19330TIP3   OH279480   4.698   1.131   3.847 -0.3344  0.0360  0.1261
19330TIP3    H179481   4.646   1.166   3.775  1.8717  0.4453 -1.3254
19330TIP3    H279482   4.740   1.208   3.886  1.1763 -0.5064 -0.3682
19331TIP3   OH279483   2.261   0.082   2.537 -0.0325  0.2249 -0.2594
19331TIP3    H179484   2.249  -0.009   2.510 -1.0416  0.1352  0.5134
19331TIP3    H279485   2.179   0.125   2.515  0.1654  0.7843  0.0916
19332TIP3   OH279486   0.907   5.049  11.698 -0.6666 -0.4733 -0.4852
19332TIP3    H179487   0.971   5.066  11.766 -2.5841 -1.1343  1.5258
19332TIP3    H279488   0.881   5.136  11.667  2.3175 -0.1989 -2.4747
19333TIP3   OH279489   3.372   1.731  11.504 -0.4268 -0.4739  0.1214
19333TIP3    H179490   3.399   1.821  11.487 -1.4268 -0.1254  0.3601
19333TIP3    H279491   3.302   1.738  11.569  1.2594 -1.6037  2.1098
19334TIP3   OH279492   1.366   2.354   0.169 -0.2729 -0.1306 -0.1454
19334TIP3    H179493   1.396   2.268   0.139  2.7411  0.6466  0.5018
19334TIP3    H279494   1.342   2.340   0.261 -1.0267 -0.5411 -0.3970
19335TIP3   OH279495   0.699   3.184  14.465  0.0156  0.2838 -0.5456
19335TIP3    H179496   0.686   3.275  14.438  0.4080  1.3942  2.8165
19335TIP3    H279497   0.613   3.156  14.498  0.5173  0.2570  0.7534
19336TIP3   OH279498   2.712   4.993  15.634  0.1067  0.3199  0.6668
19336TIP3    H179499   2.762   5.069  15.664  0.3517  0.7654 -0.8090
19336TIP3    H279500   2.760   4.918  15.669  1.0816  0.7913  0.3699
19337TIP3   OH279501   2.964   0.236   3.042 -0.0835  0.1061  0.5780
19337TIP3    H179502   3.031   0.301   3.064 -0.7402  1.3035 -0.8432
19337TIP3    H279503   2.888   0.288   3.017 -0.9820 -1.2339  0.4679
19338TIP3   OH279504   5.505   5.082  11.858  0.5300 -0.7356 -0.4047
19338TIP3    H179505   5.455   5.008  11.824  1.5051 -1.6881  0.1835
19338TIP3    H279506   5.580   5.041  11.903 -0.1870  0.4915  2.0125
19339TIP3   OH279507   5.098   0.137  16.556 -0.1504  0.2714  0.4590
19339TIP3    H179508   5.167   0.079  16.524 -0.4072 -1.0469  2.2326
19339TIP3    H279509   5.019   0.108  16.509  0.1494  0.6030 -0.2451
19340TIP3   OH279510   1.414   3.318  15.510  0.2290 -0.0318  0.2409
19340TIP3    H179511   1.444   3.389  15.453  1.2904 -0.6331  0.0377
19340TIP3    H279512   1.417   3.355  15.598 -0.4569  0.5840  0.0077
19341TIP3   OH279513   3.030   5.097   1.977 -0.1890  0.2188 -0.3426
19341TIP3    H179514   3.026   5.179   2.027 -0.8563 -0.0762  0.0969
19341TIP3    H279515   2.996   5.031   2.037 -0.1276 -0.2954 -0.8738
19342TIP3   OH279516   2.932   2.381  13.643  0.4489  0.1382  0.2204
19342TIP3    H179517   2.872   2.359  13.571  0.2316 -0.6385  0.6259
19342TIP3    H279518   2.912   2.472  13.664  0.5143  0.3722 -0.7021
19343TIP3   OH279519   4.740   5.369  11.731 -0.3054 -0.2607  0.1964
19343TIP3    H179520   4.791   5.426  11.674 -0.0669 -0.5208  0.1445
19343TIP3    H279521   4.755   5.402  11.819 -0.8161  0.2521  0.0923
19344TIP3   OH279522   0.735   5.611  15.094 -0.2924 -0.1150  0.1772
19344TIP3    H179523   0.780   5.551  15.035  0.0888 -0.5380  0.8939
19344TIP3    H279524   0.803   5.673  15.122 -0.5175  0.2077  0.0134
19345TIP3   OH279525   2.971   1.930   0.807 -0.2113  0.0511  0.5907
19345TIP3    H179526   2.936   1.845   0.834 -3.6775  0.8923 -0.9925
19345TIP3    H279527   2.901   1.992   0.828  1.8050  2.3786  0.6443
19346TIP3   OH279528   4.225   2.020  16.250 -0.3014  0.4313 -0.4753
19346TIP3    H179529   4.294   2.029  16.316  0.2095  1.9164 -1.1849
19346TIP3    H279530   4.253   1.947  16.195 -0.3358 -0.3031  0.4676
19347TIP3   OH279531   6.679   4.684  14.706 -0.3572 -0.9231  0.1837
19347TIP3    H179532   6.713   4.690  14.616 -1.6503 -0.8192 -0.3044
19347TIP3    H279533   6.707   4.766  14.747  0.1238 -0.9101 -0.1544
19348TIP3   OH279534   3.635   0.759   2.309 -0.2605 -0.4497 -0.5280
19348TIP3    H179535   3.620   0.743   2.216 -1.0692 -2.5478 -0.0644
19348TIP3    H279536   3.563   0.713   2.353 -0.9320  2.0080  1.0685
19349TIP3   OH279537   0.908   2.079   3.021 -0.1963  0.2932 -0.0472
19349TIP3    H179538   0.982   2.109   2.968  0.1343 -0.6462 -0.1156
19349TIP3    H279539   0.831   2.119   2.980  0.1651  0.4406 -0.5814
19350TIP3   OH279540   5.359   0.332  13.124 -0.0838 -0.9118 -0.0802
19350TIP3    H179541   5.336   0.240  13.111 -2.2773 -0.4446  0.2463
19350TIP3    H279542   5.410   0.355  13.046  0.5797 -2.4089 -0.1194
19351TIP3   OH279543   6.233   5.302   5.804  0.1761  0.7154 -0.0079
19351TIP3    H179544   6.302   5.368   5.812  0.6645  0.2993 -0.6939
19351TIP3    H279545   6.152   5.350   5.822  0.6445  1.2023  0.8126
19352TIP3   OH279546   1.044   0.410  15.177 -0.0793 -0.3639  0.3268
19352TIP3    H179547   1.029   0.492  15.223  0.1636  0.0186 -0.2762
19352TIP3    H279548   1.138   0.395  15.184 -0.1454 -0.6791  0.5789
19353TIP3   OH279549   6.340   5.071  15.982 -0.4553  0.5381 -0.2930
19353TIP3    H179550   6.351   5.007  15.912 -0.5105 -1.0193  1.0885
19353TIP3    H279551   6.284   5.027  16.046  0.7593  1.4050  1.3855
19354TIP3   OH279552   2.649   3.339  15.317 -0.2445 -0.0499 -0.5174
19354TIP3    H179553   2.645   3.262  15.260 -0.4523 -0.8418  0.5537
19354TIP3    H279554   2.727   3.325  15.371 -0.0217  0.7202 -0.6298
19355TIP3   OH279555   5.869   3.830  13.191 -0.3201 -0.3551  0.1334
19355TIP3    H179556   5.824   3.890  13.132 -0.3261 -0.4770  0.0127
19355TIP3    H279557   5.813   3.752  13.193 -0.5847 -0.1562  0.7008
19356TIP3   OH279558   6.254   3.088   4.356  0.2609  0.3112  0.0312
19356TIP3    H179559   6.225   3.041   4.435  0.1060  2.7818  1.4781
19356TIP3    H279560   6.248   3.022   4.287 -4.5206 -0.5570  1.0937
19357TIP3   OH279561   0.803   4.863   2.716  0.2127 -0.3496 -0.0784
19357TIP3    H179562   0.776   4.929   2.780  1.7753  0.4812 -0.2561
19357TIP3    H279563   0.856   4.802   2.767  1.5399  0.3663 -0.5803
19358TIP3   OH279564   4.085   0.533  10.764  0.5533 -0.0245  0.9337
19358TIP3    H179565   4.121   0.457  10.810  0.1090  0.1074  1.4989
19358TIP3    H279566   4.148   0.603  10.779  0.0020  0.2477  2.0488
19359TIP3   OH279567   5.526   3.369   0.577 -0.0133 -0.2447 -0.6079
19359TIP3    H179568   5.524   3.457   0.540 -2.1516 -0.8668 -2.0286
19359TIP3    H279569   5.447   3.363   0.631  0.2799 -1.1968 -0.2611
19360TIP3   OH279570   3.476   5.934  15.455  0.3441 -0.0415  0.1188
19360TIP3    H179571   3.458   5.856  15.506 -1.6266  0.4195  0.1670
19360TIP3    H279572   3.509   5.901  15.371  0.6657 -0.8823  0.5781
19361TIP3   OH279573   2.998   5.920   5.419 -0.5409  0.7308  0.5915
19361TIP3    H179574   2.924   5.973   5.448  0.1889  2.0531  0.1223
19361TIP3    H279575   3.026   5.872   5.498 -0.7814  1.5937  1.2109
19362TIP3   OH279576   6.409   2.159   4.160  0.0068  0.3451  0.2114
19362TIP3    H179577   6.379   2.127   4.245  0.4293  0.0434  0.2516
19362TIP3    H279578   6.479   2.098   4.135  1.0734  1.4460  0.4679
19363TIP3   OH279579   5.680   0.359   1.048  0.3510  0.1660  0.2806
19363TIP3    H179580   5.736   0.283   1.035  0.1177 -0.1701  1.2584
19363TIP3    H279581   5.605   0.327   1.098 -0.9838  0.4956 -1.4580
19364TIP3   OH279582   1.556   2.529  14.307  0.4040 -0.1202  0.2020
19364TIP3    H179583   1.560   2.620  14.276 -2.4700 -0.2279 -0.5941
19364TIP3    H279584   1.527   2.537  14.398 -2.1615 -0.3270 -0.5771
19365TIP3   OH279585   2.971   1.258  11.284  0.0560  0.2313  0.2556
19365TIP3    H179586   2.945   1.240  11.193 -1.1979 -0.0418  0.6610
19365TIP3    H279587   2.936   1.346  11.302  3.1966  1.7483 -0.5906
19366TIP3   OH279588   3.567   0.713   3.231 -0.1493 -0.3132  0.3475
19366TIP3    H179589   3.594   0.713   3.139  1.3915  1.1721  0.7550
19366TIP3    H279590   3.645   0.684   3.279 -0.2218  1.0459  1.3288
19367TIP3   OH279591   6.051   2.015  12.780 -0.6975 -0.6096 -0.3969
19367TIP3    H179592   6.121   1.972  12.830 -1.9398 -1.0886  0.9846
19367TIP3    H279593   6.080   2.011  12.689  1.0868 -0.7613  0.1641
19368TIP3   OH279594   6.327   0.852  14.209  0.1848  0.5248 -0.1207
19368TIP3    H179595   6.380   0.911  14.262  0.3204  1.4324 -1.2571
19368TIP3    H279596   6.238   0.865  14.240  0.5087 -0.5047  1.3258
19369TIP3   OH279597   6.422   2.627   2.345  0.5187  0.0682 -0.6218
19369TIP3    H179598   6.349   2.687   2.331 -0.1802 -0.3255  1.1318
19369TIP3    H279599   6.479   2.672   2.408 -0.5647 -1.4897  1.5604
19370TIP3   OH279600   3.459   2.024  11.080  0.0660 -0.4724  0.7260
19370TIP3    H179601   3.403   1.947  11.070 -0.0679 -0.2332 -0.3944
19370TIP3    H279602   3.497   2.038  10.993 -0.3563  1.0570  0.7709
19371TIP3   OH279603   1.596   5.727   6.440 -0.3139 -0.3235  0.4006
19371TIP3    H179604   1.555   5.647   6.408 -1.5933  0.5811 -0.2361
19371TIP3    H279605   1.671   5.741   6.383  0.7854 -1.8599  1.4308
19372TIP3   OH279606   0.737   2.556  11.453  0.0946  0.8022  0.1341
19372TIP3    H179607   0.724   2.568  11.547  0.9850  0.9200  0.2540
19372TIP3    H279608   0.782   2.636  11.425 -2.8638  2.1090 -0.9905
19373TIP3   OH279609   4.006   5.406  14.266  0.8587  0.8144  0.5351
19373TIP3    H179610   4.042   5.390  14.353  1.5162 -0.3445  0.0662
19373TIP3    H279611   4.069   5.364  14.206 -0.8690 -0.5845 -0.3475
19374TIP3   OH279612   2.069   2.322  16.057  0.3068  0.1732 -0.0100
19374TIP3    H179613   2.103   2.244  16.012 -1.0557 -0.1840 -0.4542
19374TIP3    H279614   2.014   2.287  16.127  1.5525  0.7418  1.2699
19375TIP3   OH279615   3.856   4.362  11.815  0.0694 -0.1089  0.3161
19375TIP3    H179616   3.921   4.313  11.865  0.9666  2.7472  2.0851
19375TIP3    H279617   3.907   4.421  11.759 -0.9671 -0.0166 -0.5490
19376TIP3   OH279618   0.580   6.247  14.678  0.0072 -0.2442  0.6806
19376TIP3    H179619   0.488   6.234  14.701  0.0320 -2.1375 -0.1643
19376TIP3    H279620   0.582   6.238  14.583  1.1971 -1.1067  0.7767
19377TIP3   OH279621   4.434   6.338   1.987  0.4880  0.1090  0.7857
19377TIP3    H179622   4.375   6.408   2.014  1.0051  1.2479 -0.9457
19377TIP3    H279623   4.378   6.261   1.979 -0.3370  0.6354  1.4071
19378TIP3   OH279624   1.984   1.277   1.491 -0.0708 -0.1167  0.4551
19378TIP3    H179625   1.944   1.232   1.417  0.0301  0.7421 -0.1279
19378TIP3    H279626   1.940   1.241   1.568 -1.7650  0.5899 -0.1544
19379TIP3   OH279627   2.628   6.613  13.172  0.1631 -0.1939 -0.3175
19379TIP3    H179628   2.683   6.608  13.094  0.5739 -0.0134 -0.0422
19379TIP3    H279629   2.550   6.562  13.151  1.3552 -2.2180  0.0592
19380TIP3   OH279630   1.300   6.638  11.109 -0.2379  0.0430  0.7744
19380TIP3    H179631   1.377   6.590  11.077 -0.7478  0.6450 -1.4380
19380TIP3    H279632   1.335   6.721  11.142  0.0812  0.3007 -0.1972
19381TIP3   OH279633   2.632   6.246   6.013 -0.4767  0.3244  0.5297
19381TIP3    H179634   2.544   6.239   5.977 -0.8144  5.2571 -0.0089
19381TIP3    H279635   2.619   6.283   6.101  0.8877 -2.5926  2.0192
19382TIP3   OH279636   0.747   0.796   1.455 -0.8122  0.3764 -0.2131
19382TIP3    H179637   0.763   0.715   1.503  0.6267  0.2648 -0.8721
19382TIP3    H279638   0.750   0.865   1.522 -1.4602 -0.0439  0.2545
19383TIP3   OH279639   1.725   6.168  11.659 -0.2630 -0.1808  0.0604
19383TIP3    H179640   1.651   6.220  11.689 -0.8047 -1.7763  1.6108
19383TIP3    H279641   1.800   6.226  11.667 -1.2082  1.1307 -0.5714
19384TIP3   OH279642   4.452   6.454  11.997  0.3002  0.5866  0.0273
19384TIP3    H179643   4.394   6.435  12.071  0.2432 -1.1140 -0.4467
19384TIP3    H279644   4.394   6.482  11.927  0.2160  0.6379  0.1172
19385TIP3   OH279645   5.420   0.798  12.665 -0.3642  0.4881 -0.0219
19385TIP3    H179646   5.467   0.876  12.634  1.4419  0.3076  2.1484
19385TIP3    H279647   5.476   0.725  12.639 -0.2142  0.1621  1.2095
19386TIP3   OH279648   3.809   1.780  12.776  0.2297 -0.0215 -0.4003
19386TIP3    H179649   3.747   1.710  12.793  0.1469  0.0171 -0.5429
19386TIP3    H279650   3.757   1.850  12.737 -0.1194  0.9986  1.7960
19387TIP3   OH279651   0.398   0.629  10.418  0.9655  0.3451 -0.1978
19387TIP3    H179652   0.352   0.565  10.364  1.1997  1.0583 -1.2639
19387TIP3    H279653   0.383   0.713  10.374  1.5291  0.8773  0.6016
19388TIP3   OH279654   1.171   4.427  16.384  0.5048 -0.5069 -0.8260
19388TIP3    H179655   1.256   4.471  16.392  0.2311 -0.4867  2.4727
19388TIP3    H279656   1.188   4.337  16.410 -0.7154 -0.2049  1.0854
19389TIP3   OH279657   3.263   5.862   4.140 -0.4336  0.3271 -0.2465
19389TIP3    H179658   3.211   5.787   4.111 -0.7067  0.9499 -1.3840
19389TIP3    H279659   3.248   5.867   4.234 -0.0616 -1.3224 -0.0813
19390TIP3   OH279660   4.258   5.544  10.376 -0.4616  0.0847  0.1108
19390TIP3    H179661   4.334   5.509  10.424 -0.5901 -2.1001 -1.2123
19390TIP3    H279662   4.276   5.638  10.370  2.0592 -0.3453 -0.0105
19391TIP3   OH279663   0.344   5.769  16.548 -0.0190  0.1765 -0.0983
19391TIP3    H179664   0.346   5.837  16.481 -1.0825  0.9540  0.6276
19391TIP3    H279665   0.323   5.688  16.501  3.4579 -0.0746 -1.2820
19392TIP3   OH279666   4.907   6.155   5.266  0.0581  0.2050  0.2745
19392TIP3    H179667   4.992   6.194   5.244 -0.0275  0.3322  0.1656
19392TIP3    H279668   4.851   6.177   5.191 -1.2330  3.6386  2.0928
19393TIP3   OH279669   6.361   5.916   4.631 -0.2005 -0.3162 -0.4963
19393TIP3    H179670   6.326   5.987   4.577 -0.2008  0.5065  0.5847
19393TIP3    H279671   6.434   5.880   4.579  0.3491  1.0280 -0.6678
19394TIP3   OH279672   1.722   5.819  16.108  0.0293  0.0080 -0.0438
19394TIP3    H179673   1.713   5.730  16.073  1.3400 -0.3015  0.3951
19394TIP3    H279674   1.777   5.865  16.044 -0.1470  0.3380  0.0396
19395TIP3   OH279675   6.648   1.650  13.148  0.1912  0.6579  0.1284
19395TIP3    H179676   6.576   1.653  13.084  0.7505 -1.8556 -0.6885
19395TIP3    H279677   6.727   1.653  13.094  0.7392  2.9442  0.9993
19396TIP3   OH279678   5.833   0.082   3.268  0.3438 -0.2998 -0.4218
19396TIP3    H179679   5.865   0.111   3.183  3.0200 -0.1023  0.5724
19396TIP3    H279680   5.893   0.011   3.293 -0.5198 -0.5005  1.1827
19397TIP3   OH279681   4.069   4.413  13.696  0.2157  0.1837 -0.0598
19397TIP3    H179682   4.047   4.339  13.640  0.2734 -0.8196  1.2136
19397TIP3    H279683   4.137   4.460  13.649  1.2870 -1.4679 -0.1870
19398TIP3   OH279684   3.882   3.681  15.117  0.7500 -0.2227 -0.2510
19398TIP3    H179685   3.903   3.612  15.180 -0.5719  0.7207  1.2787
19398TIP3    H279686   3.826   3.638  15.052  1.8588 -1.1319 -0.6073
19399TIP3   OH279687   1.764   2.245   5.180  0.0452  0.1853 -0.0059
19399TIP3    H179688   1.720   2.279   5.102 -2.4095 -1.0011  0.8109
19399TIP3    H279689   1.710   2.171   5.208  2.1273 -0.8124  1.5401
19400TIP3   OH279690   0.071   1.787   5.000  0.8286  0.1761  0.0136
19400TIP3    H179691  -0.005   1.784   4.943  1.5962  0.1160 -1.0267
19400TIP3    H279692   0.043   1.837   5.076 -0.3745 -0.2138 -0.1706
19401TIP3   OH279693   4.759   1.496   1.549 -0.0910  0.5825  0.0457
19401TIP3    H179694   4.804   1.447   1.481  0.1881  2.9847 -1.5702
19401TIP3    H279695   4.828   1.546   1.592 -0.7225  1.6870 -0.1961
19402TIP3   OH279696   1.834   5.531  15.342 -0.2554  0.5378  0.1767
19402TIP3    H179697   1.850   5.577  15.424  1.0451 -1.2900  0.9950
19402TIP3    H279698   1.911   5.474  15.332 -1.4637 -0.8952 -1.1407
19403TIP3   OH279699   4.179   3.105  16.276 -0.3196  0.0448 -0.5070
19403TIP3    H179700   4.251   3.160  16.304 -0.7893  0.3745  0.0687
19403TIP3    H279701   4.218   3.019  16.262 -0.1137 -0.2043  1.4659
19404TIP3   OH279702   6.690   2.322  12.427 -0.7360  0.0359 -0.1283
19404TIP3    H179703   6.771   2.372  12.416 -0.2317 -1.0402 -1.4015
19404TIP3    H279704   6.716   2.243  12.474 -0.8813 -0.6837 -1.2204
19405TIP3   OH279705   5.695   2.412  14.360  0.4206  0.2276  0.2659
19405TIP3    H179706   5.683   2.507  14.356 -0.3284  0.1536  0.5920
19405TIP3    H279707   5.788   2.400  14.382  1.1118  0.8365 -2.2575
19406TIP3   OH279708   1.095   0.505   3.614 -0.3784  0.5818 -0.3283
19406TIP3    H179709   1.007   0.473   3.632 -1.0863  1.2294 -2.5110
19406TIP3    H279710   1.148   0.426   3.604 -0.7836  0.1866  0.6028
19407TIP3   OH279711   1.498   1.032   3.350 -0.4998 -0.2222  0.3165
19407TIP3    H179712   1.521   1.125   3.356  0.3342 -0.3520 -0.5839
19407TIP3    H279713   1.470   1.008   3.438 -1.5039  1.0873  0.3627
19408TIP3   OH279714   1.056   1.070  12.810 -0.0525 -0.2569 -0.1710
19408TIP3    H179715   0.993   1.000  12.790 -0.6995  1.0635 -3.0380
19408TIP3    H279716   1.113   1.073  12.734  1.5277  0.7088  1.0206
19409TIP3   OH279717   3.171   4.226  12.382 -0.3992 -0.0952 -0.5915
19409TIP3    H179718   3.089   4.193  12.419  0.3028  0.3799  1.4931
19409TIP3    H279719   3.149   4.314  12.350 -0.7916 -0.1056 -0.3575
19410TIP3   OH279720   3.339   5.515  15.426  0.2485  0.5639 -0.3421
19410TIP3    H179721   3.301   5.477  15.505  2.9698  0.5378  1.0006
19410TIP3    H279722   3.305   5.461  15.355  0.0964 -1.2612  1.0913
19411TIP3   OH279723   5.843   1.985   4.723  0.5970 -0.3891  0.1796
19411TIP3    H179724   5.936   1.996   4.743 -0.0884  1.2958  2.6424
19411TIP3    H279725   5.818   1.904   4.767  0.8350 -0.7564 -0.3493
19412TIP3   OH279726   6.273   6.451  16.624 -0.0194 -0.3214 -0.0752
19412TIP3    H179727   6.237   6.378  16.675  0.8884  0.1763  1.3052
19412TIP3    H279728   6.367   6.432  16.619  0.5265  1.6921  1.9115
19413TIP3   OH279729   2.840   1.356   6.605 -0.2345 -0.2524  0.4117
19413TIP3    H179730   2.800   1.278   6.643 -0.6361 -1.0926 -1.6905
19413TIP3    H279731   2.934   1.336   6.600  0.1949  0.7954  3.1079
19414TIP3   OH279732   2.696   6.439  12.579 -0.7195  0.0699  0.2964
19414TIP3    H179733   2.700   6.450  12.484 -0.1381 -0.1284  0.3005
19414TIP3    H279734   2.774   6.482  12.612 -1.1134  0.4661  0.7155
19415TIP3   OH279735   1.928   3.825  11.584 -0.1726 -0.3717 -0.1193
19415TIP3    H179736   1.863   3.770  11.539 -2.2302  0.6552  1.5114
19415TIP3    H279737   1.939   3.783  11.669  1.0780 -0.3422 -0.2662
19416TIP3   OH279738   4.672   3.116   1.154  0.0868  0.5754 -0.3767
19416TIP3    H179739   4.581   3.119   1.127 -0.0593 -1.1783 -0.1287
19416TIP3    H279740   4.711   3.046   1.101  1.1601  0.9582 -0.1135
19417TIP3   OH279741   0.412   1.567   0.764  0.5442 -0.0907 -0.0186
19417TIP3    H179742   0.475   1.589   0.832  0.4735  0.5595 -0.1599
19417TIP3    H279743   0.353   1.642   0.761 -0.6992 -1.0209  0.6360
19418TIP3   OH279744   0.094   3.752  11.112 -0.2463  0.2133 -0.4429
19418TIP3    H179745   0.148   3.710  11.179 -1.6324 -0.8133  0.0446
19418TIP3    H279746   0.106   3.697  11.034  0.6302  0.8816 -0.7959
19419TIP3   OH279747   5.057   1.877   2.671 -0.3401  0.3903 -0.4461
19419TIP3    H179748   5.056   1.868   2.766 -1.6587  0.3140 -0.4549
19419TIP3    H279749   4.990   1.943   2.653  0.0682  0.5739 -1.3034
19420TIP3   OH279750   5.151   0.865  14.157 -0.4994  0.5213  0.1583
19420TIP3    H179751   5.084   0.926  14.125 -0.3316  0.9936  0.6958
19420TIP3    H279752   5.176   0.900  14.243  1.2900  1.0274 -0.5333
19421TIP3   OH279753   5.579   6.642  11.979 -0.3817  0.3259  0.5697
19421TIP3    H179754   5.522   6.579  11.935  1.9750 -1.2609 -0.2699
19421TIP3    H279755   5.561   6.629  12.072 -0.8066 -0.7165  0.3542
19422TIP3   OH279756   5.860   0.095   5.152 -0.9735 -0.1882  0.3510
19422TIP3    H179757   5.903   0.157   5.211 -1.2676  0.7565 -0.4253
19422TIP3    H279758   5.898   0.010   5.176 -1.0180  0.1877  1.8354
19423TIP3   OH279759   4.896   4.550   1.680  0.2744  0.6228  0.1203
19423TIP3    H179760   4.847   4.541   1.598  1.6445 -0.6245 -0.5872
19423TIP3    H279761   4.933   4.638   1.676 -0.6224  0.9920 -0.0639
19424TIP3   OH279762   4.291   2.742  12.997  0.0295 -0.5500 -0.4510
19424TIP3    H179763   4.253   2.655  12.987 -0.2303 -0.5493  0.4120
19424TIP3    H279764   4.240   2.782  13.068 -0.0221  0.3981 -1.0063
19425TIP3   OH279765   6.090   5.783  12.887 -0.4295  0.5164 -0.2740
19425TIP3    H179766   6.139   5.701  12.891 -0.3334  0.5710 -0.3156
19425TIP3    H279767   6.141   5.839  12.828 -1.0501  0.2368 -1.0882
19426TIP3   OH279768   5.202   4.858  12.690  0.1339 -0.6362  0.2283
19426TIP3    H179769   5.121   4.870  12.740  0.0798  0.8379 -0.1809
19426TIP3    H279770   5.271   4.889  12.748  0.1370  0.4546 -0.3360
19427TIP3   OH279771   0.431   4.663   4.317 -0.5701 -0.1862  0.3674
19427TIP3    H179772   0.339   4.685   4.332 -0.7969 -0.6683 -0.2746
19427TIP3    H279773   0.428   4.594   4.250  0.3434  0.8491 -0.7413
19428TIP3   OH279774   1.258   3.369  14.637 -0.2330  0.6498  0.4168
19428TIP3    H179775   1.315   3.358  14.714  0.3126  0.6441  0.0132
19428TIP3    H279776   1.258   3.463  14.621  3.2271  0.2863 -2.2535
19429TIP3   OH279777   2.091   3.155   5.445 -0.1037 -0.0076 -0.2462
19429TIP3    H179778   2.186   3.155   5.457 -0.1727  0.9208  0.3791
19429TIP3    H279779   2.074   3.231   5.389 -0.5344  0.1683  0.1221
19430TIP3   OH279780   1.053   0.854   1.187  0.8499 -0.5257  0.1665
19430TIP3    H179781   1.137   0.851   1.233  0.4451 -0.5192  0.9236
19430TIP3    H279782   1.007   0.775   1.216  0.8172 -0.8275 -0.6854
19431TIP3   OH279783   3.567   5.458   3.068 -0.0307 -0.4970 -0.2391
19431TIP3    H179784   3.535   5.533   3.017  1.6178 -0.7000 -1.6702
19431TIP3    H279785   3.649   5.489   3.106 -1.2001 -0.3991  2.2295
19432TIP3   OH279786   6.066   3.713  11.544 -0.0263 -0.3826  0.0553
19432TIP3    H179787   6.033   3.798  11.572  0.1701 -0.0510 -0.7127
19432TIP3    H279788   5.989   3.666  11.513 -0.5779 -1.4802  2.9016
19433TIP3   OH279789   6.415   2.965  11.753 -0.0287  0.0802 -0.7312
19433TIP3    H179790   6.415   2.967  11.849  1.1264 -1.8040 -0.6743
19433TIP3    H279791   6.338   3.018  11.729  0.0403  1.1374  1.1957
19434TIP3   OH279792   3.427   0.841   5.276 -0.4320  0.1260  0.7038
19434TIP3    H179793   3.510   0.796   5.296 -0.6362 -1.6711 -2.1761
19434TIP3    H279794   3.452   0.910   5.214 -0.9206  0.3054  0.7088
19435TIP3   OH279795   4.026   0.603  12.668  0.0194 -0.1074 -0.2567
19435TIP3    H179796   4.031   0.693  12.699  0.5254  0.2647 -1.3920
19435TIP3    H279797   4.099   0.558  12.712  0.9396  0.4948 -1.1335
19436TIP3   OH279798   5.621   0.577   0.905  0.2362 -0.1709 -0.2226
19436TIP3    H179799   5.655   0.498   0.947  2.9800  0.0263 -1.9334
19436TIP3    H279800   5.598   0.635   0.977  3.0672 -0.5684  1.0655
19437TIP3   OH279801   3.468   4.635  13.954  0.6558  0.3525 -0.7989
19437TIP3    H179802   3.557   4.658  13.980  0.2007  1.2763 -0.0597
19437TIP3    H279803   3.430   4.716  13.922 -0.7281  0.5328  1.1971
19438TIP3   OH279804   6.409   0.110   1.214 -0.4131  0.2295 -0.0718
19438TIP3    H179805   6.450   0.038   1.166 -1.3063 -0.0083 -0.4778
19438TIP3    H279806   6.435   0.097   1.305 -0.2715 -0.3958 -0.2040
19439TIP3   OH279807   0.801   6.171   6.898 -0.0808  0.1604  0.1586
19439TIP3    H179808   0.712   6.169   6.932 -0.8710  0.4066 -1.8362
19439TIP3    H279809   0.810   6.258   6.859  0.1164 -0.8257 -2.0173
19440TIP3   OH279810   0.345   4.838  12.336 -0.0550  0.3377 -0.1014
19440TIP3    H179811   0.414   4.803  12.392  0.1893 -0.3943 -0.8609
19440TIP3    H279812   0.373   4.928  12.318  0.0085  0.4832  0.7164
19441TIP3   OH279813   2.545   3.036  11.933 -0.2661  0.2251  0.1556
19441TIP3    H179814   2.573   3.010  11.846 -1.7582 -0.0795 -0.2463
19441TIP3    H279815   2.599   3.112  11.955  0.1770  0.2357 -0.9822
19442TIP3   OH279816   3.015   6.679   3.490  0.3009 -0.3287 -0.5962
19442TIP3    H179817   3.056   6.665   3.405 -1.2649  1.1016 -1.6174
19442TIP3    H279818   3.040   6.768   3.515 -1.9288  0.4624 -1.1072
19443TIP3   OH279819   0.256   5.541  11.994 -0.6864  0.2004  0.3005
19443TIP3    H179820   0.293   5.594  11.924 -0.2386  0.1286  0.4782
19443TIP3    H279821   0.303   5.569  12.073 -0.2026 -0.6842  0.3395
19444TIP3   OH279822   1.653   4.747  12.221 -0.6760  0.1342  0.6401
19444TIP3    H179823   1.681   4.820  12.166 -0.0475 -0.3515  0.3111
19444TIP3    H279824   1.724   4.738  12.285  0.8045 -2.2012 -1.2367
19445TIP3   OH279825   2.749   3.995  17.008 -0.1899  0.0023 -0.5670
19445TIP3    H179826   2.733   4.075  16.958 -0.8500  0.3333  0.1622
19445TIP3    H279827   2.672   3.941  16.991  0.2948 -0.5228 -1.1282
19446TIP3   OH279828   6.510   0.309   1.680 -0.5288  0.6223  0.5456
19446TIP3    H179829   6.553   0.322   1.764 -0.5907 -2.9575  1.2115
19446TIP3    H279830   6.512   0.214   1.666  0.7238  1.2119 -4.1673
19447TIP3   OH279831   2.875   4.812   4.038  0.0571  0.3754 -0.4703
19447TIP3    H179832   2.812   4.791   4.106 -0.8564  0.2156 -1.3541
19447TIP3    H279833   2.881   4.733   3.984  0.5398  0.5993 -0.7601
19448TIP3   OH279834   4.687   1.675   1.961 -0.0325  0.4334  0.3794
19448TIP3    H179835   4.633   1.628   1.897 -0.6526  0.3993  0.9316
19448TIP3    H279836   4.625   1.707   2.027  0.3898  1.9558  0.0650
19449TIP3   OH279837   4.320   2.633  10.756 -0.0785  0.0083 -0.0120
19449TIP3    H179838   4.348   2.698  10.692  1.2062  0.6930  1.2122
19449TIP3    H279839   4.382   2.643  10.829 -1.0307 -1.2798  0.9965
19450TIP3   OH279840   4.670   5.334   0.705  0.2447  0.3260 -0.0431
19450TIP3    H179841   4.713   5.372   0.628  2.9967 -0.5599  1.0198
19450TIP3    H279842   4.687   5.240   0.698  0.5935  0.2543  1.7033
19451TIP3   OH279843   2.003   1.795  12.076 -0.5087 -0.1940  0.6174
19451TIP3    H179844   1.982   1.806  11.983 -1.6225  0.4497  0.9420
19451TIP3    H279845   2.040   1.880  12.102  1.7797 -1.0325  0.2644
19452TIP3   OH279846   3.823   3.356   2.813  0.1638  0.3007 -0.0615
19452TIP3    H179847   3.823   3.311   2.898 -0.2995  0.5767  0.0800
19452TIP3    H279848   3.745   3.410   2.814  0.4298  0.6949 -0.4613
19453TIP3   OH279849   2.639   3.303  16.729  0.5223  0.3852  0.0287
19453TIP3    H179850   2.548   3.305  16.756  0.2710  1.0051 -0.8313
19453TIP3    H279851   2.662   3.210  16.728 -0.1884  0.2087 -0.0300
19454TIP3   OH279852   6.734   4.831  16.347 -0.6489  0.2422 -0.3466
19454TIP3    H179853   6.641   4.831  16.324 -0.2550  0.0693 -1.9901
19454TIP3    H279854   6.769   4.753  16.304  0.5665  1.1455 -1.0408
19455TIP3   OH279855   3.958   6.509   5.504 -0.0012  0.4032  0.2138
19455TIP3    H179856   3.865   6.485   5.502 -0.8685  3.6340 -0.6731
19455TIP3    H279857   3.981   6.522   5.412  1.8665 -2.1344  0.2646
19456TIP3   OH279858   1.622   6.686  15.845 -0.1400 -0.4479  0.2207
19456TIP3    H179859   1.649   6.743  15.773  0.5357 -0.7266  0.2490
19456TIP3    H279860   1.697   6.628  15.859 -0.8777 -1.4395  0.0914
19457TIP3   OH279861   6.090   3.961  12.462 -0.3322  0.3053  0.1585
19457TIP3    H179862   6.050   3.938  12.546 -2.1401  1.5395 -0.3394
19457TIP3    H279863   6.044   4.041  12.435  0.3433  0.0092 -1.9273
19458TIP3   OH279864   3.871   3.170  15.037  0.0652 -0.1407  0.5247
19458TIP3    H179865   3.793   3.138  15.083 -0.6120  0.5095 -0.1540
19458TIP3    H279866   3.836   3.211  14.958  1.1551 -0.4123 -0.0931
19459TIP3   OH279867   3.082   0.809   3.726  0.4822  0.3266 -0.1608
19459TIP3    H179868   3.163   0.768   3.755 -0.0408 -1.5772 -1.2589
19459TIP3    H279869   3.050   0.856   3.802  1.9633  0.0606  0.6562
19460TIP3   OH279870   1.071   5.732   0.791  0.1492  1.1815 -0.2987
19460TIP3    H179871   0.993   5.677   0.797  1.5984 -0.7724  0.9578
19460TIP3    H279872   1.038   5.816   0.759 -2.2300 -0.1024 -1.3500
19461TIP3   OH279873   5.106   2.187  11.794  0.0125 -0.0531 -0.7316
19461TIP3    H179874   5.066   2.192  11.881  0.3267  0.1164 -0.5981
19461TIP3    H279875   5.033   2.167  11.736 -0.0192 -1.3529 -0.2742
19462TIP3   OH279876   3.928   6.457   2.217  0.2347  0.2853 -0.1683
19462TIP3    H179877   3.969   6.371   2.220  1.8191  1.0621  1.7890
19462TIP3    H279878   3.871   6.459   2.294 -0.2103  0.7763 -0.5088
19463TIP3   OH279879   4.599   4.020   0.168  0.1654  0.5723 -0.3818
19463TIP3    H179880   4.526   4.071   0.203  0.7670  0.4258  1.1124
19463TIP3    H279881   4.651   4.083   0.118  0.6007  1.3285  0.9901
19464TIP3   OH279882   6.698   4.296   5.702  0.0777  0.0365 -0.2627
19464TIP3    H179883   6.749   4.266   5.777 -0.7401  1.2507  0.8001
19464TIP3    H279884   6.731   4.245   5.628  2.6451  0.5991  0.4359
19465TIP3   OH279885   5.428   3.018   5.461 -0.7389  0.1126 -1.0927
19465TIP3    H179886   5.408   2.974   5.379 -1.2869 -0.3799 -0.7052
19465TIP3    H279887   5.441   3.109   5.437 -0.8937 -0.0303 -1.7239
19466TIP3   OH279888   0.561   3.709  16.534  0.2678 -0.3726 -0.1963
19466TIP3    H179889   0.469   3.724  16.554  0.3683  2.6416 -1.7652
19466TIP3    H279890   0.560   3.656  16.454 -0.0518 -1.2314  0.3602
19467TIP3   OH279891   4.538   6.328  16.308 -0.1343 -0.0754  0.1197
19467TIP3    H179892   4.466   6.273  16.340  1.2473 -2.4797 -0.7553
19467TIP3    H279893   4.616   6.289  16.347  0.8087  1.9036  0.2585
19468TIP3   OH279894   4.257   0.614  13.642  0.3088 -0.1772 -0.2089
19468TIP3    H179895   4.314   0.673  13.592  2.2099 -0.7694  1.2168
19468TIP3    H279896   4.313   0.540  13.664 -1.5700 -1.6837 -0.4189
19469TIP3   OH279897   1.116   5.428   1.377  0.0188  0.5511 -0.1544
19469TIP3    H179898   1.045   5.388   1.427 -1.3536  0.9188 -1.7649
19469TIP3    H279899   1.191   5.371   1.393 -0.5646  0.2857  1.7561
19470TIP3   OH279900   4.599   0.499  13.856  0.6187  0.1779 -0.2361
19470TIP3    H179901   4.531   0.566  13.863  0.1416 -0.5292  2.1118
19470TIP3    H279902   4.571   0.429  13.914  1.5809 -1.7003 -1.9479
19471TIP3   OH279903   0.100   0.962  16.577 -0.3319 -0.2054  0.2334
19471TIP3    H179904   0.077   0.997  16.663 -1.3289 -0.7709  0.2069
19471TIP3    H279905   0.187   0.998  16.559  1.1471 -2.2893  2.7427
19472TIP3   OH279906   3.431   3.168  11.315  0.1402  0.3351  0.5637
19472TIP3    H179907   3.379   3.106  11.367  0.1561  1.3179  1.7659
19472TIP3    H279908   3.488   3.210  11.379 -0.5254  2.2745 -0.1034
19473TIP3   OH279909   0.126   2.725  15.645  0.0189  0.1613  0.3672
19473TIP3    H179910   0.049   2.780  15.663 -0.3533 -0.2627  0.0613
19473TIP3    H279911   0.178   2.729  15.726  0.1933  1.2882  0.2124
19474TIP3   OH279912   5.947   4.965   0.642  0.1989 -0.1181  0.0862
19474TIP3    H179913   5.863   4.933   0.610 -0.9027  2.3104  0.4843
19474TIP3    H279914   5.928   5.001   0.728  1.6401  0.5365  0.1405
19475TIP3   OH279915   1.832   2.682   0.424  0.5356  0.0103  0.8817
19475TIP3    H179916   1.801   2.658   0.512  0.9408 -2.2291  0.4440
19475TIP3    H279917   1.770   2.749   0.395 -2.0041 -2.0671  1.3109
19476TIP3   OH279918   6.407   4.933  12.658 -0.4512  0.4249 -0.2424
19476TIP3    H179919   6.387   4.927  12.564 -0.8388  0.0479 -0.1366
19476TIP3    H279920   6.328   4.901  12.701 -0.2550  0.5561  0.2147
19477TIP3   OH279921   1.044   3.557   0.544  0.5260  0.4403  0.1042
19477TIP3    H179922   1.074   3.477   0.501 -0.5286  0.9071 -1.5327
19477TIP3    H279923   1.022   3.616   0.472  2.7208  2.7578  1.2871
19478TIP3   OH279924   1.330   3.135  14.030 -0.1745  0.5225 -0.2763
19478TIP3    H179925   1.381   3.204  14.071 -0.3111  0.2641  0.3363
19478TIP3    H279926   1.272   3.104  14.099 -0.3207  0.0019 -0.6293
19479TIP3   OH279927   6.674   1.784  11.166  0.3015 -0.0036  0.3035
19479TIP3    H179928   6.725   1.712  11.128  1.2777 -0.0108  1.5993
19479TIP3    H279929   6.585   1.750  11.172  1.2349 -2.0683  3.3266
19480TIP3   OH279930   6.220   5.780   5.693 -0.0799  0.9164  0.4310
19480TIP3    H179931   6.127   5.802   5.691 -0.8683 -2.2752 -0.4727
19480TIP3    H279932   6.230   5.723   5.769  0.8585  0.2009 -0.2137
19481TIP3   OH279933   4.497   3.901   1.225  0.2716 -0.4687 -0.2944
19481TIP3    H179934   4.561   3.869   1.289 -0.6067 -1.6419  0.0004
19481TIP3    H279935   4.550   3.951   1.162  1.3761 -0.7909  0.3638
19482TIP3   OH279936   6.123   6.122   5.257  0.2365  0.4027  0.1946
19482TIP3    H179937   6.050   6.064   5.281  1.8713 -0.9266  2.1202
19482TIP3    H279938   6.093   6.166   5.178 -1.9133 -1.5270 -0.1351
19483TIP3   OH279939   0.842   2.220   0.979  0.7217 -0.1930  0.3333
19483TIP3    H179940   0.828   2.213   0.884 -0.2634 -3.2122  0.6225
19483TIP3    H279941   0.800   2.141   1.014  2.9633 -0.2136  3.0758
19484TIP3   OH279942   0.297   5.349  12.333 -0.6405 -0.1456 -0.3309
19484TIP3    H179943   0.205   5.363  12.310 -0.8437 -0.5024  0.2450
19484TIP3    H279944   0.341   5.338  12.250 -1.2298 -0.6103 -0.5852
19485TIP3   OH279945   5.928   6.698   1.264 -0.0607 -0.0026  0.0800
19485TIP3    H179946   5.879   6.687   1.345 -1.3088 -0.7244 -0.7529
19485TIP3    H279947   5.875   6.654   1.198  1.0431  0.3964 -1.0919
19486TIP3   OH279948   4.519   4.603   2.023  0.9926  0.1840 -0.4323
19486TIP3    H179949   4.531   4.519   1.979  0.6373  0.3609 -0.8778
19486TIP3    H279950   4.488   4.662   1.953 -3.9212 -0.5948  0.8508
19487TIP3   OH279951   0.194   0.227   4.903 -0.3348  0.5376 -0.1716
19487TIP3    H179952   0.152   0.312   4.922 -2.0030 -0.0345 -1.1703
19487TIP3    H279953   0.181   0.215   4.809 -0.5839 -1.0820  0.0640
19488TIP3   OH279954   1.951   0.356   5.674 -0.4080 -0.4741 -0.2838
19488TIP3    H179955   1.997   0.336   5.755  0.5579 -0.7141 -0.8812
19488TIP3    H279956   1.940   0.271   5.631  1.2100 -0.0759 -1.5171
19489TIP3   OH279957   5.428   5.340   1.676  0.3603 -0.3686 -0.1720
19489TIP3    H179958   5.503   5.396   1.656 -0.3886  1.0748  0.9522
19489TIP3    H279959   5.464   5.270   1.730  1.0958 -0.2817 -0.5482
19490TIP3   OH279960   3.853   6.634   1.599 -0.3148 -0.7060  0.0543
19490TIP3    H179961   3.849   6.724   1.631 -0.1061 -0.1462 -1.4562
19490TIP3    H279962   3.771   6.594   1.627 -0.7880  0.2126 -0.0213
19491TIP3   OH279963   6.760   0.066   3.439  0.0743 -0.0616  0.3430
19491TIP3    H179964   6.828  -0.001   3.448 -0.4635 -0.7239 -0.4848
19491TIP3    H279965   6.808   0.146   3.415  0.6732 -0.2341  0.9372
19492TIP3   OH279966   1.399   5.811   3.028  0.5942 -0.4958 -0.5718
19492TIP3    H179967   1.383   5.854   2.944  0.7229  1.8438  0.5666
19492TIP3    H279968   1.473   5.753   3.011  0.2243 -0.5113 -2.2243
19493TIP3   OH279969   4.625   1.847  13.868  0.5567 -0.2061  0.5266
19493TIP3    H179970   4.586   1.922  13.912  0.3258  0.3730 -0.6356
19493TIP3    H279971   4.580   1.844  13.783  0.6336 -1.5922  0.5298
19494TIP3   OH279972   0.049   2.866  11.152  0.2181 -0.4606  0.0029
19494TIP3    H179973  -0.043   2.851  11.172  0.7212 -0.1647  2.6309
19494TIP3    H279974   0.061   2.961  11.160  0.6508 -0.4357 -0.8222
19495TIP3   OH279975   1.416   4.013   5.267  0.3714 -0.4131  0.6794
19495TIP3    H179976   1.367   4.046   5.191  0.8548 -0.5007  0.3238
19495TIP3    H279977   1.507   4.029   5.245  0.4661  0.5014  1.7004
19496TIP3   OH279978   6.152   3.983   4.926  0.2999  0.3607 -0.4770
19496TIP3    H179979   6.196   3.993   5.010 -0.2887  0.4992 -0.1781
19496TIP3    H279980   6.082   4.049   4.928 -1.7430 -1.7638  0.2536
19497TIP3   OH279981   2.913   3.835  16.244 -0.4280  0.1078  0.9241
19497TIP3    H179982   2.939   3.793  16.326  2.2147  0.2026  0.1952
19497TIP3    H279983   2.991   3.883  16.216 -2.1272  2.2964 -0.2868
19498TIP3   OH279984   2.125   3.820   1.765  0.4332  0.2871 -0.4411
19498TIP3    H179985   2.177   3.758   1.816  0.8523  1.4117  0.5488
19498TIP3    H279986   2.036   3.785   1.768  0.5467  0.0778  0.6613
19499TIP3   OH279987   2.039   3.175  10.839  0.6641 -0.6820 -0.2945
19499TIP3    H179988   2.003   3.263  10.835  2.7935  0.2511  0.2906
19499TIP3    H279989   1.999   3.129  10.765 -1.4966  0.3552  0.2034
19500TIP3   OH279990   4.024   1.511   2.468 -0.2113 -0.1063 -0.0217
19500TIP3    H179991   4.064   1.453   2.532 -0.6983 -0.4411 -0.0219
19500TIP3    H279992   3.939   1.472   2.450  0.6138 -0.9822 -2.1979
19501TIP3   OH279993   2.509   0.682   0.182 -0.1269 -0.0068 -0.3062
19501TIP3    H179994   2.484   0.772   0.162  3.8025  1.0951 -0.6065
19501TIP3    H279995   2.523   0.681   0.277  2.4176  0.4029 -0.6665
19502TIP3   OH279996   1.971   5.036   3.457  0.0165 -0.1683  0.1811
19502TIP3    H179997   1.892   5.001   3.418 -0.5224 -0.1576  1.2475
19502TIP3    H279998   1.982   5.122   3.417 -0.5423 -0.1477  0.0717
19503TIP3   OH279999   4.604   6.032  15.954  0.8005  0.0948  0.9318
19503TIP3    H180000   4.621   6.092  15.881  0.8956  0.0610  0.9270
19503TIP3    H280001   4.535   6.075  16.004 -0.4686 -0.6897 -0.1168
19504TIP3   OH280002   6.282   4.742   6.090 -0.3016 -0.5492  0.6528
19504TIP3    H180003   6.272   4.656   6.050  0.1769 -0.4693  0.3529
19504TIP3    H280004   6.193   4.770   6.111 -0.4880 -0.9341  0.3687
19505TIP3   OH280005   0.360   1.025  11.281  0.2382  0.4765  0.1070
19505TIP3    H180006   0.317   0.946  11.247  1.0248  1.0546 -2.2552
19505TIP3    H280007   0.438   0.991  11.325  2.4271  0.1040 -3.8363
19506TIP3   OH280008   1.102   2.786   1.408  0.8077  0.4928 -0.2043
19506TIP3    H180009   1.088   2.693   1.425  0.5880  0.5117 -0.2774
19506TIP3    H280010   1.144   2.820   1.487  2.6747 -0.0746 -0.9095
19507TIP3   OH280011   0.010   5.925   1.898 -0.3465  0.4418 -0.6740
19507TIP3    H180012   0.007   5.846   1.843 -2.4595  0.3569 -0.4679
19507TIP3    H280013  -0.069   5.919   1.952  0.4282  1.7884  0.6330
19508TIP3   OH280014   3.060   0.385   4.715  0.2252  0.5339  0.3163
19508TIP3    H180015   3.080   0.315   4.776  0.1149  1.9865  2.0593
19508TIP3    H280016   3.022   0.341   4.639  1.8297 -1.4397  0.6157
19509TIP3   OH280017   3.830   4.193   4.010  0.0285 -0.7318 -0.0337
19509TIP3    H180018   3.792   4.239   4.086  0.6150  1.5069 -1.0520
19509TIP3    H280019   3.882   4.123   4.048  0.2879  0.3424  1.6517
19510TIP3   OH280020   6.460   1.575   2.981  0.2157  0.0838 -0.0102
19510TIP3    H180021   6.388   1.637   2.990  1.3304  1.2025  1.2683
19510TIP3    H280022   6.461   1.555   2.887 -0.3721  1.7356 -0.3935
19511TIP3   OH280023   2.686   2.358   6.518  0.6319 -0.4174 -0.3285
19511TIP3    H180024   2.628   2.391   6.586  2.0821  2.6390 -0.4764
19511TIP3    H280025   2.766   2.335   6.563  0.5790 -1.1795 -0.6154
19512TIP3   OH280026   3.639   2.325   1.019 -0.4469 -0.0105 -0.5082
19512TIP3    H180027   3.710   2.375   1.060 -0.4473  0.5640 -1.1896
19512TIP3    H280028   3.680   2.285   0.942 -0.9140  0.5184 -1.0371
19513TIP3   OH280029   2.137   0.291   4.378 -0.2729 -0.3454 -0.9002
19513TIP3    H180030   2.146   0.250   4.292 -2.3926 -3.2288  0.1852
19513TIP3    H280031   2.204   0.249   4.432  0.7862  1.1720 -1.0035
19514TIP3   OH280032   6.443   5.807  11.790 -0.0812  0.2017  0.4310
19514TIP3    H180033   6.417   5.809  11.882  0.5092  1.0607  0.5859
19514TIP3    H280034   6.522   5.861  11.786  1.5781 -2.1669 -0.0620
19515TIP3   OH280035   4.112   5.967   1.729 -0.3418 -0.3922 -0.0354
19515TIP3    H180036   4.100   6.040   1.790 -0.0394  0.1633 -0.6446
19515TIP3    H280037   4.116   6.007   1.643 -0.5126 -1.1607 -0.4099
19516TIP3   OH280038   2.979   6.790  15.344  0.0751 -0.2029  0.0315
19516TIP3    H180039   2.955   6.827  15.429  1.3776  0.1432  0.2434
19516TIP3    H280040   2.918   6.831  15.282 -0.7971 -0.3674  0.7720
19517TIP3   OH280041   5.604   4.196  14.197  0.0132  0.1822 -0.5029
19517TIP3    H180042   5.535   4.247  14.155 -0.0794 -0.2371 -0.8617
19517TIP3    H280043   5.560   4.117  14.228  0.6142 -0.7501 -1.9974
19518TIP3   OH280044   1.366   2.083   4.766 -0.3583  0.2388  0.2063
19518TIP3    H180045   1.319   2.134   4.832 -0.0086  1.0883 -0.1931
19518TIP3    H280046   1.317   2.001   4.760 -0.1430 -0.0296  1.8232
19519TIP3   OH280047   0.974   1.550  12.568  0.6615  0.0996  0.3231
19519TIP3    H180048   0.998   1.642  12.568  0.8419  0.0654 -0.7578
19519TIP3    H280049   0.878   1.551  12.569  0.6763  0.2802  1.5374
19520TIP3   OH280050   2.816   4.357   5.900  0.0276 -0.2971 -0.5883
19520TIP3    H180051   2.747   4.314   5.849 -0.6950  0.1879 -0.0295
19520TIP3    H280052   2.831   4.300   5.975 -0.0222 -0.2186 -0.5180
19521TIP3   OH280053   0.955   6.283   2.773 -0.2367 -1.0880  0.3138
19521TIP3    H180054   1.004   6.326   2.703 -0.7737 -0.4004  0.3437
19521TIP3    H280055   0.891   6.350   2.801  0.2060 -1.2283  1.6885
19522TIP3   OH280056   1.030   5.576  16.428  0.0403 -0.4441 -0.0318
19522TIP3    H180057   0.995   5.664  16.442 -0.7433 -1.2625  3.7287
19522TIP3    H280058   0.957   5.518  16.446  0.5929 -1.9266 -2.3239
19523TIP3   OH280059   5.235   3.479   0.414  0.3919 -0.4267  0.3317
19523TIP3    H180060   5.298   3.550   0.428  1.9251 -1.7592  0.4112
19523TIP3    H280061   5.188   3.503   0.335  2.0085 -0.0848 -0.5486
19524TIP3   OH280062   4.453   2.061   0.995 -0.4416  0.1965  0.2654
19524TIP3    H180063   4.383   2.003   0.964 -1.1840  0.2220  1.8029
19524TIP3    H280064   4.407   2.135   1.034  0.4481  0.3618  1.0205
19525TIP3   OH280065   3.881   6.037  12.774  0.6624 -0.2230  0.5995
19525TIP3    H180066   3.892   6.103  12.706 -1.6189 -0.2035  0.2166
19525TIP3    H280067   3.912   6.080  12.854  0.3129  0.8999  0.1403
19526TIP3   OH280068   3.516   3.249  12.394  0.3889 -0.2222 -0.2276
19526TIP3    H180069   3.433   3.294  12.379  0.9090  0.6621 -0.5150
19526TIP3    H280070   3.566   3.310  12.450  1.5118  0.0370 -1.4894
19527TIP3   OH280071   1.135   6.267  10.933  0.4751 -0.2307  0.3030
19527TIP3    H180072   1.142   6.358  10.903  2.7001 -0.4078  0.1774
19527TIP3    H280073   1.059   6.231  10.886 -0.1232  1.4095 -0.0148
19528TIP3   OH280074   4.832   5.394   3.127 -0.4379 -0.1781 -0.0286
19528TIP3    H180075   4.856   5.321   3.071 -0.6041 -0.8976  0.8149
19528TIP3    H280076   4.893   5.388   3.201  0.3819  1.3108 -0.5796
19529TIP3   OH280077   5.878   1.890  13.757 -0.1723  0.8522 -0.0154
19529TIP3    H180078   5.796   1.938  13.756 -0.6177  0.0994  0.0310
19529TIP3    H280079   5.908   1.896  13.848 -1.8557 -1.6823  0.7373
19530TIP3   OH280080   4.522   6.466   5.532  0.1307  0.1464 -0.1457
19530TIP3    H180081   4.507   6.375   5.505  0.7714 -0.0194  0.0691
19530TIP3    H280082   4.451   6.484   5.594  0.1047 -0.2605 -0.0559
19531TIP3   OH280083   1.342   6.363   1.616  0.0288 -0.3426  0.2934
19531TIP3    H180084   1.270   6.330   1.563 -0.0084  2.4788 -1.5157
19531TIP3    H280085   1.320   6.454   1.634  2.5292  0.2162  0.8017
19532TIP3   OH280086   1.432   3.972   4.265  0.5671 -0.5143  0.1942
19532TIP3    H180087   1.520   3.935   4.268  1.7751  2.2294  0.1222
19532TIP3    H280088   1.416   4.003   4.355 -0.1468 -0.5937  0.0973
19533TIP3   OH280089   1.900   4.622  12.436 -0.4987 -0.7552 -0.1420
19533TIP3    H180090   1.978   4.569  12.416  0.0315 -0.2241  0.5007
19533TIP3    H280091   1.934   4.710  12.447 -1.0957 -0.6502  0.8775
19534TIP3   OH280092   6.061   4.720  11.435  0.3727  0.1011 -0.0669
19534TIP3    H180093   6.023   4.789  11.489  1.0901 -0.7514  1.5522
19534TIP3    H280094   6.127   4.765  11.383  0.1476  0.8086  0.2397
19535TIP3   OH280095   1.575   0.979   4.770  0.1712 -0.2155 -0.5182
19535TIP3    H180096   1.591   0.976   4.864 -2.0388 -0.6599 -0.1453
19535TIP3    H280097   1.653   1.022   4.734  0.3353  1.4171  1.6818
19536TIP3   OH280098   1.013   6.172   0.051  0.0509 -0.1462  0.7899
19536TIP3    H180099   1.084   6.185   0.114 -0.6773  2.8074  1.0718
19536TIP3    H280100   1.004   6.256   0.007 -0.9660 -1.5234 -1.7140
19537TIP3   OH280101   2.397   4.600   2.559  0.0931  0.2833 -0.4788
19537TIP3    H180102   2.484   4.632   2.537 -0.3426  1.7061 -0.1868
19537TIP3    H280103   2.410   4.508   2.582  0.8135 -0.8948 -5.1128
19538TIP3   OH280104   4.241   2.902  12.692 -0.2761  0.2016  0.3900
19538TIP3    H180105   4.219   2.898  12.600 -0.1527  1.1486  0.3130
19538TIP3    H280106   4.328   2.863  12.698  0.2370  1.2514 -0.0819
19539TIP3   OH280107   3.621   1.599   1.603  0.1099  0.1002  0.0591
19539TIP3    H180108   3.657   1.516   1.635 -0.7293 -0.7548 -1.1673
19539TIP3    H280109   3.685   1.665   1.631  1.2752 -1.0691  0.2269
19540TIP3   OH280110   0.428   6.056   0.575  0.0630 -0.3487  0.0366
19540TIP3    H180111   0.360   6.010   0.625  1.3625 -2.5637 -0.1464
19540TIP3    H280112   0.396   6.056   0.485 -0.5955  0.3757  0.2682
19541TIP3   OH280113   6.686   0.342   5.914  0.3031 -0.1923  0.1396
19541TIP3    H180114   6.728   0.298   5.840  1.4300  0.6952  0.2379
19541TIP3    H280115   6.603   0.295   5.926  1.6640 -2.6011  0.5356
19542TIP3   OH280116   0.002   6.533  12.762 -0.4075 -0.0702 -0.5443
19542TIP3    H180117   0.034   6.487  12.684 -1.3558 -1.7116 -0.0078
19542TIP3    H280118  -0.093   6.540  12.749 -0.5473 -0.1850  0.3498
19543TIP3   OH280119   4.104   5.365   3.731 -0.1883  0.5079  0.3729
19543TIP3    H180120   4.200   5.362   3.723 -0.1031  1.5850  0.8867
19543TIP3    H280121   4.074   5.404   3.649 -0.3511 -1.7246 -0.6708
19544TIP3   OH280122   4.717   4.416   0.704 -0.1357  0.3212 -0.0642
19544TIP3    H180123   4.785   4.406   0.770  1.6303  1.2309 -1.6977
19544TIP3    H280124   4.717   4.332   0.657 -3.7164 -1.6004  3.1567
19545TIP3   OH280125   6.784   0.057   5.239 -0.2791 -0.0070  0.0099
19545TIP3    H180126   6.732   0.026   5.313 -0.0507  0.1951  0.2606
19545TIP3    H280127   6.857   0.105   5.280 -0.7318  1.0207 -0.3697
19546TIP3   OH280128   0.058   5.023   3.945  0.1483  0.4264 -0.0129
19546TIP3    H180129   0.116   4.983   4.009  1.7032  2.4646 -0.0991
19546TIP3    H280130   0.094   4.998   3.860  0.5437  1.1529 -0.0666
19547TIP3   OH280131   3.010   0.857  17.280 -0.6717 -0.3839  0.1896
19547TIP3    H180132   2.926   0.812  17.290  0.3193 -2.7968 -1.6399
19547TIP3    H280133   3.062   0.798  17.225  2.0432  1.2948  0.8476
19548TIP3   OH280134   0.173   1.780  14.435  0.2456  0.3536 -0.2125
19548TIP3    H180135   0.122   1.818  14.364 -1.2436 -2.2267 -0.5944
19548TIP3    H280136   0.264   1.788  14.406 -0.2474  0.7131 -1.7000
19549TIP3   OH280137   5.475   3.985  11.925  0.9994  1.0008  0.1521
19549TIP3    H180138   5.399   4.004  11.870  1.3752  1.8353 -0.0880
19549TIP3    H280139   5.438   3.972  12.013  0.6084  1.6279  0.0810
19550TIP3   OH280140   2.711   6.166  13.573  0.0869  0.3440  0.5601
19550TIP3    H180141   2.721   6.254  13.610  0.3611  0.4897  0.1517
19550TIP3    H280142   2.656   6.120  13.635  1.1500  0.3530  1.5384
19551TIP3   OH280143   1.850   2.877  13.949 -0.4970  0.1403  0.1583
19551TIP3    H180144   1.854   2.900  13.857 -0.3279 -0.5990 -0.0218
19551TIP3    H280145   1.760   2.894  13.975 -0.7229 -0.2981 -0.3191
19552TIP3   OH280146   0.185   5.107  14.634  0.2790  0.1056 -1.2591
19552TIP3    H180147   0.104   5.106  14.584  0.2113  0.1118 -1.1509
19552TIP3    H280148   0.220   5.018  14.626 -0.2159 -0.1547 -0.5297
19553TIP3   OH280149   3.965   4.808   0.288  0.7367 -0.1620 -0.0429
19553TIP3    H180150   3.921   4.738   0.337  1.6682 -1.4223 -0.9928
19553TIP3    H280151   3.969   4.881   0.350 -0.3611 -0.8914  0.9181
19554TIP3   OH280152   4.454   4.620   6.386  0.3449  0.4882 -0.2528
19554TIP3    H180153   4.422   4.685   6.449 -0.5235  0.0581 -0.2320
19554TIP3    H280154   4.472   4.670   6.307  0.4388  0.8770  0.0111
19555TIP3   OH280155   0.162   2.575  12.901  0.2032  0.2890 -0.3813
19555TIP3    H180156   0.173   2.492  12.948 -1.8305  1.1745  1.7706
19555TIP3    H280157   0.236   2.628  12.930 -0.4910  0.4739  1.0937
19556TIP3   OH280158   2.506   6.608  12.432  0.4107 -0.1116 -0.4295
19556TIP3    H180159   2.484   6.680  12.492  3.2802 -0.2311  0.8696
19556TIP3    H280160   2.514   6.650  12.346 -1.0282  0.5387 -0.2747
19557TIP3   OH280161   4.948   5.066  10.852  0.3849  0.1244 -0.0415
19557TIP3    H180162   4.857   5.037  10.849  0.9217 -2.1786  3.1369
19557TIP3    H280163   4.994   5.007  10.792  0.0225  0.5361 -0.7427
19558TIP3   OH280164   1.332   5.509   3.464  0.5802 -0.0435  0.2581
19558TIP3    H180165   1.401   5.575   3.461  0.5342  0.0057  0.2713
19558TIP3    H280166   1.254   5.555   3.432  0.8840 -0.4994 -1.1737
19559TIP3   OH280167   0.394   5.051  11.886 -0.0666  1.0609  0.7952
19559TIP3    H180168   0.366   5.138  11.914 -0.9646  0.3849  2.0268
19559TIP3    H280169   0.346   4.990  11.943  0.6690 -0.2362  0.0604
19560TIP3   OH280170   3.806   5.141  11.594 -0.0344  0.3011  0.1518
19560TIP3    H180171   3.786   5.220  11.643  0.1601  1.2402 -1.2369
19560TIP3    H280172   3.733   5.131  11.533  0.1318 -0.3666  0.0582
19561TIP3   OH280173   0.826   0.808  11.699 -0.1265  0.3144  0.1887
19561TIP3    H180174   0.800   0.888  11.653 -1.4933 -1.2423 -1.8286
19561TIP3    H280175   0.834   0.742  11.630  2.0690 -1.0358  1.6906
19562TIP3   OH280176   4.572   1.636   0.250 -0.4002 -0.3234 -0.4691
19562TIP3    H180177   4.652   1.597   0.215  0.8504  1.2771  0.5418
19562TIP3    H280178   4.601   1.717   0.291 -2.0936 -1.1169  2.4524
19563TIP3   OH280179   5.032   6.526  16.689  0.3221 -0.5914  0.1145
19563TIP3    H180180   5.091   6.454  16.667  0.2531 -0.6681  0.1813
19563TIP3    H280181   5.038   6.533  16.785  0.8803 -0.0421  0.0503
19564TIP3   OH280182   3.710   4.789   4.864 -0.4109  0.1771  0.2252
19564TIP3    H180183   3.771   4.757   4.930 -0.8029  0.4825  0.7423
19564TIP3    H280184   3.710   4.721   4.797 -0.4811 -0.4499  0.8445
19565TIP3   OH280185   4.033   0.277  13.965  0.2019  0.7269 -0.2415
19565TIP3    H180186   3.945   0.302  13.937 -0.7374 -1.2046  0.9365
19565TIP3    H280187   4.020   0.204  14.026  2.6519 -0.0764 -0.6138
19566TIP3   OH280188   3.543   1.879   1.455  0.2778  0.4931  0.3047
19566TIP3    H180189   3.516   1.789   1.474  2.0051 -0.0848  0.1081
19566TIP3    H280190   3.511   1.895   1.366  1.2672 -0.4707 -0.2398
19567TIP3   OH280191   0.981   2.465  14.850 -0.0464  0.2330  0.1314
19567TIP3    H180192   0.945   2.451  14.763 -0.5250  1.1433  0.1749
19567TIP3    H280193   1.042   2.393  14.863  0.9323  0.7477 -1.4303
19568TIP3   OH280194   2.114   5.834  14.236  0.4852 -0.3156 -0.2369
19568TIP3    H180195   2.201   5.874  14.237  0.6874 -0.7531 -0.3039
19568TIP3    H280196   2.084   5.838  14.326  0.6479 -0.3168 -0.1827
19569TIP3   OH280197   1.711   6.140  14.094 -0.8655 -0.1755  0.3907
19569TIP3    H180198   1.674   6.076  14.156 -1.7616 -1.0148 -0.9782
19569TIP3    H280199   1.679   6.111  14.009  0.6711  0.7498 -0.5155
19570TIP3   OH280200   0.045   5.677   5.803  0.4128 -0.1343 -0.1864
19570TIP3    H180201   0.095   5.756   5.782  1.3257 -0.3521  1.1121
19570TIP3    H280202   0.077   5.612   5.740 -0.8093  0.6858 -1.6862
19571TIP3   OH280203   0.121   4.665   3.543  0.4233 -0.2225  0.4213
19571TIP3    H180204   0.050   4.605   3.519  1.0318 -0.7210 -0.1354
19571TIP3    H280205   0.090   4.708   3.623  0.2771 -1.8021  1.2281
19572TIP3   OH280206   2.321   5.849  17.082 -0.6602  0.6472  0.1774
19572TIP3    H180207   2.391   5.785  17.069 -1.7619 -0.1336 -2.2409
19572TIP3    H280208   2.300   5.843  17.175  1.3421 -0.2631  0.6094
19573TIP3   OH280209   5.146   1.289  15.400 -0.4964 -0.1118 -0.3378
19573TIP3    H180210   5.065   1.339  15.412 -0.6944 -0.1766 -1.3669
19573TIP3    H280211   5.165   1.254  15.487 -0.8530  0.9957  0.2048
19574TIP3   OH280212   3.586   6.600  15.242  0.4242 -0.1255  0.5199
19574TIP3    H180213   3.658   6.547  15.209 -0.0198 -0.0499 -0.5663
19574TIP3    H280214   3.629   6.669  15.294  1.2198  0.7109 -1.2240
19575TIP3   OH280215   0.047   2.829   0.377  0.2230 -0.1590  0.2702
19575TIP3    H180216   0.034   2.911   0.330 -1.1600 -1.3365 -1.4773
19575TIP3    H280217   0.046   2.854   0.469 -3.5729  1.3704 -0.1142
19576TIP3   OH280218   4.581   3.457  15.747 -0.1365 -0.4402 -0.1499
19576TIP3    H180219   4.629   3.374  15.756 -0.3127 -0.4496  0.6973
19576TIP3    H280220   4.644   3.517  15.707 -0.0800 -1.0479 -0.9951
19577TIP3   OH280221   3.692   1.479  11.137  0.2291  0.0836  0.0504
19577TIP3    H180222   3.702   1.388  11.165 -0.8018 -0.3848 -1.0849
19577TIP3    H280223   3.708   1.478  11.043 -1.3582  0.8156 -0.2416
19578TIP3   OH280224   0.937   1.163   4.292 -0.0929  0.3183 -0.1125
19578TIP3    H180225   0.910   1.156   4.384  0.0400 -0.5172 -0.1366
19578TIP3    H280226   0.878   1.104   4.245  1.0687 -0.7020 -0.3132
19579TIP3   OH280227   5.823   1.479  15.187 -0.1889  0.5510  0.1394
19579TIP3    H180228   5.770   1.504  15.111  0.2113 -0.3312 -0.4371
19579TIP3    H280229   5.899   1.435  15.150  0.4824  0.9539  1.0136
19580TIP3   OH280230   0.473   6.684   5.546 -0.2639  0.2696  0.1494
19580TIP3    H180231   0.528   6.667   5.622 -0.8354 -1.2883  0.2149
19580TIP3    H280232   0.393   6.723   5.581  0.2108  1.2416  0.1735
19581TIP3   OH280233   4.762   4.069  16.280  0.0393  1.0764 -0.1021
19581TIP3    H180234   4.680   4.047  16.325 -0.7276  3.4569 -0.2507
19581TIP3    H280235   4.738   4.073  16.187  1.3901 -2.7829 -0.7146
19582TIP3   OH280236   5.952   1.645   3.957 -0.3452  0.4387 -0.2137
19582TIP3    H180237   5.991   1.667   3.872 -1.6217  1.0745 -0.6543
19582TIP3    H280238   5.871   1.697   3.960 -2.3635 -2.5588 -0.3476
19583TIP3   OH280239   4.798   0.319   2.588 -0.0778 -0.4562  0.3953
19583TIP3    H180240   4.834   0.266   2.517 -0.6550 -0.0954 -0.1680
19583TIP3    H280241   4.829   0.408   2.568 -0.0703 -0.3908  0.7073
19584TIP3   OH280242   5.600   2.062  15.692 -0.4957 -0.4725 -0.2212
19584TIP3    H180243   5.693   2.065  15.714 -0.5952  0.2461  0.1006
19584TIP3    H280244   5.556   2.096  15.769 -0.9126  1.0371 -1.0954
19585TIP3   OH280245   2.302   4.454  12.886 -0.0117 -0.2424 -0.5336
19585TIP3    H180246   2.210   4.474  12.903  0.6169  1.6687  0.7830
19585TIP3    H280247   2.331   4.403  12.961  0.9679  2.3764  0.9197
19586TIP3   OH280248   0.264   2.994  15.662  0.1330  0.1154  0.5757
19586TIP3    H180249   0.225   3.053  15.726 -2.7678  0.2401 -1.2289
19586TIP3    H280250   0.249   2.906  15.698 -0.8982  0.2111  0.3889
19587TIP3   OH280251   4.863   5.418   1.344 -0.2169  0.8397  0.0193
19587TIP3    H180252   4.842   5.364   1.420  2.4518  0.0530  0.2699
19587TIP3    H280253   4.924   5.485   1.378 -1.1900  2.2200 -0.8784
19588TIP3   OH280254   4.534   2.511   2.242  0.1308  0.6191 -0.5131
19588TIP3    H180255   4.619   2.482   2.208  0.7275  0.4320  1.1050
19588TIP3    H280256   4.486   2.430   2.260  0.5422  0.6748  0.8739
19589TIP3   OH280257   4.826   2.044   0.696  0.4046  0.5577 -0.6274
19589TIP3    H180258   4.848   2.025   0.605  2.2561 -1.3365  0.1710
19589TIP3    H280259   4.801   1.960   0.733  2.0477  0.8311  1.2170
19590TIP3   OH280260   1.744   5.703   4.245 -0.0326  0.9357  0.0589
19590TIP3    H180261   1.656   5.672   4.222  0.7144 -0.6063 -0.7732
19590TIP3    H280262   1.730   5.760   4.320 -1.6102 -0.2509  0.6933
19591TIP3   OH280263   2.894   5.899  15.586  0.2116 -0.3153  0.5576
19591TIP3    H180264   2.850   5.831  15.638 -0.2188 -1.6253 -1.4527
19591TIP3    H280265   2.824   5.944  15.540  0.6059  0.7301  0.9616
19592TIP3   OH280266   0.136   5.923   0.049  0.5912  0.0725  0.6236
19592TIP3    H180267   0.231   5.932   0.057  0.8467 -2.0468  0.4013
19592TIP3    H280268   0.107   5.893   0.135  0.0765  1.0692  0.7985
19593TIP3   OH280269   5.953   4.772   1.039  0.0195  0.1324 -0.1262
19593TIP3    H180270   5.882   4.745   1.098  0.7419  1.6080  1.4469
19593TIP3    H280271   5.939   4.865   1.026  1.3421  0.3201 -0.2615
19594TIP3   OH280272   3.174   3.272   4.278 -0.3948 -0.2338 -0.4386
19594TIP3    H180273   3.263   3.241   4.293 -0.4648 -0.8070 -1.1464
19594TIP3    H280274   3.180   3.326   4.199 -0.2206  1.8342  0.9441
19595TIP3   OH280275   2.213   2.117  12.788  0.1650 -0.2294 -0.4290
19595TIP3    H180276   2.174   2.144  12.871  1.3876  1.8969 -0.5250
19595TIP3    H280277   2.158   2.158  12.721  0.5894 -0.0030 -0.6357
19596TIP3   OH280278   4.065   5.926   4.837 -0.1931  0.0480 -0.6626
19596TIP3    H180279   4.117   5.932   4.756  1.4179  1.5588  0.4402
19596TIP3    H280280   4.035   6.016   4.852 -1.5563 -0.4716 -0.2503
19597TIP3   OH280281   3.026   1.829   1.893 -0.1387  0.1952  0.2196
19597TIP3    H180282   3.079   1.837   1.814  1.3794  0.1643  1.2231
19597TIP3    H280283   3.073   1.766   1.948 -1.6130 -0.4256  0.8164
19598TIP3   OH280284   2.615   1.504   2.395 -0.6545  0.6269 -0.5571
19598TIP3    H180285   2.614   1.589   2.438  2.0483  0.4603 -0.0960
19598TIP3    H280286   2.560   1.516   2.317 -2.6548  1.9326  1.0000
19599TIP3   OH280287   1.882   3.024   1.297  0.2002  0.2370 -0.0251
19599TIP3    H180288   1.874   3.076   1.377 -0.0971  0.2058 -0.0363
19599TIP3    H280289   1.935   3.079   1.239  0.8355  0.0495  0.3687
19600TIP3   OH280290   0.820   0.888  13.683 -0.0878 -0.2135 -0.5266
19600TIP3    H180291   0.737   0.865  13.642 -0.5014  1.8481 -0.9221
19600TIP3    H280292   0.840   0.976  13.650  2.5648 -0.9043 -0.9119
19601TIP3   OH280293   3.837   2.930  13.863  0.1016 -0.8303  0.1341
19601TIP3    H180294   3.851   2.839  13.838 -1.5493 -0.6384 -1.6430
19601TIP3    H280295   3.754   2.954  13.822  1.0041  1.7726 -0.3042
19602TIP3   OH280296   5.305   3.955  15.707  0.1382 -0.0506  0.4817
19602TIP3    H180297   5.401   3.951  15.717  0.2287 -0.1821 -0.4310
19602TIP3    H280298   5.288   4.046  15.684  0.2217 -0.4095 -1.0852
19603TIP3   OH280299   6.684   4.341   1.534  0.0606 -0.6442  0.3710
19603TIP3    H180300   6.700   4.416   1.477 -2.5241 -1.5853 -1.6746
19603TIP3    H280301   6.703   4.374   1.622 -0.8512  2.3767 -0.4893
19604TIP3   OH280302   1.804   2.954  12.828  0.3252 -0.5607 -0.2435
19604TIP3    H180303   1.878   3.013  12.841 -0.9574  1.2349 -0.9162
19604TIP3    H280304   1.809   2.892  12.901  0.9704  1.1240  1.1686
19605TIP3   OH280305   2.812   2.681  14.620  0.2091 -0.4233  0.5611
19605TIP3    H180306   2.883   2.657  14.679  0.5578 -1.3402 -0.2178
19605TIP3    H280307   2.856   2.711  14.540 -0.2509 -1.5449 -0.1416
19606TIP3   OH280308   5.797   1.868   5.279 -0.1916  0.4020  0.0911
19606TIP3    H180309   5.842   1.852   5.362  0.5971  2.0693 -0.0027
19606TIP3    H280310   5.733   1.797   5.273  0.4542 -0.3417  1.6147
19607TIP3   OH280311   4.387   6.263  17.266  0.4507  0.0755  0.0901
19607TIP3    H180312   4.335   6.282  17.344  1.7808  0.0646  0.9945
19607TIP3    H280313   4.325   6.222  17.205 -0.9254  1.3965  0.5800
19608TIP3   OH280314   4.881   3.331  14.409  0.6709  0.8231 -0.1995
19608TIP3    H180315   4.834   3.257  14.371  0.9678 -0.7695  2.4330
19608TIP3    H280316   4.819   3.371  14.470  1.2890  1.3254  0.1117
19609TIP3   OH280317   3.939   2.245   4.351  0.6399  0.2907 -0.3700
19609TIP3    H180318   3.934   2.231   4.446  1.5693  2.2650 -0.0139
19609TIP3    H280319   3.855   2.285   4.329  0.6940  0.4486 -0.2843
19610TIP3   OH280320   0.142   5.685  11.431  0.2052  0.3065  0.3225
19610TIP3    H180321   0.156   5.697  11.337 -1.2752 -3.3423 -0.4518
19610TIP3    H280322   0.056   5.722  11.447 -0.1127 -0.2589 -0.0489
19611TIP3   OH280323   5.531   3.264  15.550  0.2135 -0.5139  0.1780
19611TIP3    H180324   5.514   3.213  15.629 -0.5009 -0.1375  0.2670
19611TIP3    H280325   5.469   3.336  15.554  0.4098 -0.3010 -0.5545
19612TIP3   OH280326   4.752   2.550  15.816  0.3242 -0.8673 -0.1705
19612TIP3    H180327   4.789   2.555  15.904  0.0220 -0.6502 -0.0548
19612TIP3    H280328   4.660   2.528  15.829  0.5090 -1.8484 -0.4764
19613TIP3   OH280329   2.781   4.764  13.032  0.2974  0.1884  0.2273
19613TIP3    H180330   2.707   4.739  13.087  0.8427  0.8290  1.2835
19613TIP3    H280331   2.856   4.764  13.092  1.3791 -1.6417 -1.0916
19614TIP3   OH280332   5.125   1.294   0.967 -0.1158  0.4602 -0.1132
19614TIP3    H180333   5.184   1.363   0.936  0.4126  0.4878  0.9356
19614TIP3    H280334   5.046   1.340   0.993  0.2045  0.6759  0.5053
19615TIP3   OH280335   0.788   1.575  14.275  0.1988  0.0223 -1.1889
19615TIP3    H180336   0.865   1.617  14.314 -0.1707 -0.1732 -0.2473
19615TIP3    H280337   0.809   1.569  14.182  2.0145 -1.4672 -0.7196
19616TIP3   OH280338   2.442   1.405  14.303  0.1114  0.4074 -0.6834
19616TIP3    H180339   2.495   1.376  14.376 -0.0021  1.0038 -0.3675
19616TIP3    H280340   2.370   1.341  14.298  0.2039  0.2825 -0.3747
19617TIP3   OH280341   0.016   4.445   2.208 -0.3521  0.2616 -0.5977
19617TIP3    H180342   0.073   4.503   2.258 -0.1716 -1.1955  0.9382
19617TIP3    H280343   0.064   4.427   2.128  1.3753 -0.9522  0.6768
19618TIP3   OH280344   1.013   3.876   4.129 -0.4413  0.0841 -0.3820
19618TIP3    H180345   1.107   3.878   4.143 -0.5945 -0.3151  0.7408
19618TIP3    H280346   0.990   3.783   4.136 -1.1459  0.3444  0.9485
19619TIP3   OH280347   5.111   6.168  16.096  0.5543  0.4277 -1.1215
19619TIP3    H180348   5.019   6.194  16.099  0.4929  0.2884 -1.7518
19619TIP3    H280349   5.127   6.146  16.004  1.1614  0.2538 -0.9769
19620TIP3   OH280350   5.310   3.409  10.726  0.4159 -0.2361  0.1365
19620TIP3    H180351   5.334   3.443  10.812  1.9718  2.0378 -1.1277
19620TIP3    H280352   5.385   3.355  10.699  0.7725  0.6030 -0.5776
19621TIP3   OH280353   5.827   6.296  13.797  0.0013  0.0623 -0.3271
19621TIP3    H180354   5.828   6.391  13.806 -0.0913  0.1888 -1.5270
19621TIP3    H280355   5.818   6.281  13.703  1.4502 -1.1240 -0.2984
19622TIP3   OH280356   4.389   6.776  11.214  0.6616  0.0830 -0.0214
19622TIP3    H180357   4.350   6.742  11.133 -0.1210 -0.8800  0.7494
19622TIP3    H280358   4.330   6.846  11.242  0.3908 -0.2573  0.2553
19623TIP3   OH280359   1.089   4.617  11.622  0.0872  0.1095 -0.0994
19623TIP3    H180360   1.041   4.668  11.688 -1.6995 -1.5985 -0.0274
19623TIP3    H280361   1.169   4.589  11.667  0.6532  2.0566  0.1466
19624TIP3   OH280362   5.840   1.241   5.443 -0.2654  0.6456  0.1518
19624TIP3    H180363   5.780   1.307   5.409 -1.8814 -0.5862  0.5202
19624TIP3    H280364   5.792   1.158   5.434  1.0482 -0.2662  1.2272
19625TIP3   OH280365   5.676   1.122   3.747 -0.0380  0.3376  0.2530
19625TIP3    H180366   5.712   1.107   3.660 -1.3454  0.5518 -0.3307
19625TIP3    H280367   5.636   1.208   3.742 -0.5588  0.1398  0.9205
19626TIP3   OH280368   4.985   5.111   3.448 -0.1077 -0.0498 -0.0841
19626TIP3    H180369   4.915   5.065   3.495  1.8803 -1.7910  1.2432
19626TIP3    H280370   5.024   5.045   3.391  0.6440  0.8498 -0.6322
19627TIP3   OH280371   6.262   4.216  11.630  0.2484  0.4143 -0.0870
19627TIP3    H180372   6.177   4.227  11.672  0.2844 -0.6246  0.2679
19627TIP3    H280373   6.255   4.264  11.547 -0.8024  0.0249 -0.2191
19628TIP3   OH280374   5.168   0.906  13.465 -0.1711 -0.2149  0.0799
19628TIP3    H180375   5.192   0.814  13.458  0.4418  0.0631 -1.7853
19628TIP3    H280376   5.212   0.936  13.544 -2.1470 -2.0362  1.9227
19629TIP3   OH280377   5.680   0.253  16.687  0.1235 -0.4627  0.3457
19629TIP3    H180378   5.669   0.234  16.780  2.3921  0.2487  0.7869
19629TIP3    H280379   5.727   0.177  16.652 -0.6508 -0.6912 -0.2052
19630TIP3   OH280380   0.740   4.037  12.155  0.8735 -0.2268 -0.4005
19630TIP3    H180381   0.659   4.078  12.124  1.6229  1.6408  0.0240
19630TIP3    H280382   0.804   4.056  12.086  1.1019 -1.1803 -0.4533
19631TIP3   OH280383   5.567   6.591   0.687 -0.9180  0.1640 -0.1450
19631TIP3    H180384   5.650   6.625   0.653 -1.2043  0.4896 -0.5194
19631TIP3    H280385   5.553   6.510   0.638 -1.6169  0.9241 -1.2234
19632TIP3   OH280386   0.344   1.863   0.712 -0.0239 -0.1218 -0.4056
19632TIP3    H180387   0.267   1.879   0.656  0.4315  0.0884 -0.9823
19632TIP3    H280388   0.417   1.899   0.661  0.4513 -0.3137  0.1485
19633TIP3   OH280389   3.095   2.698   1.538  0.1062  0.6507  0.0767
19633TIP3    H180390   3.176   2.705   1.588 -0.0761  4.2542 -0.0047
19633TIP3    H280391   3.027   2.684   1.605  0.2277  2.4613  0.5909
19634TIP3   OH280392   5.900   2.522  16.980 -0.1523 -0.1900 -0.2099
19634TIP3    H180393   5.945   2.447  16.942  0.9881  1.6820 -2.7313
19634TIP3    H280394   5.968   2.590  16.986 -1.0547  0.5570  2.3849
19635TIP3   OH280395   3.287   6.515  12.491  0.5211  0.2174  0.0509
19635TIP3    H180396   3.349   6.455  12.450  0.0619  0.2683 -0.7320
19635TIP3    H280397   3.268   6.476  12.576  1.8823  0.3800  0.4463
19636TIP3   OH280398   1.961   5.682  11.461  0.0184  0.4344  0.2246
19636TIP3    H180399   2.003   5.767  11.473 -0.7900  0.7121  1.1578
19636TIP3    H280400   1.874   5.692  11.499 -0.4474 -0.5118 -0.5559
19637TIP3   OH280401   6.352   1.436  12.802  0.1343 -0.4365  0.2168
19637TIP3    H180402   6.366   1.471  12.890 -1.5136  0.7640  0.0389
19637TIP3    H280403   6.331   1.344  12.815 -1.1095 -0.0325  1.1989
19638TIP3   OH280404   6.453   1.215   1.275 -0.0986  0.2107 -0.2390
19638TIP3    H180405   6.495   1.129   1.282  1.1256  0.7950 -0.3576
19638TIP3    H280406   6.525   1.277   1.266 -0.9559  1.3136  0.3177
19639TIP3   OH280407   2.023   0.217   2.553  0.2702  0.4189  0.4673
19639TIP3    H180408   1.985   0.287   2.606  0.0965  0.6697  0.0119
19639TIP3    H280409   1.959   0.203   2.483 -1.2659 -2.3774  2.3165
19640TIP3   OH280410   6.596   1.316   5.244  0.2305 -0.2396  0.4555
19640TIP3    H180411   6.578   1.259   5.319 -0.4212 -1.5458 -0.6615
19640TIP3    H280412   6.684   1.349   5.259  0.4381 -1.1830  1.3533
19641TIP3   OH280413   1.939   5.443  12.162 -0.2171  0.1400 -0.5545
19641TIP3    H180414   2.004   5.487  12.218  0.4826 -1.8150  0.2111
19641TIP3    H280415   1.988   5.422  12.082 -0.1683 -0.4973 -0.3545
19642TIP3   OH280416   1.176   1.687   5.095  0.3015 -0.2899 -0.5246
19642TIP3    H180417   1.184   1.592   5.086  0.9192 -0.2839 -0.0362
19642TIP3    H280418   1.093   1.700   5.142  0.0193 -0.5661 -0.9408
19643TIP3   OH280419   2.177   1.031  14.203 -0.2774 -0.6049 -0.4753
19643TIP3    H180420   2.144   0.943  14.225  0.5516 -0.8242 -0.0890
19643TIP3    H280421   2.145   1.047  14.115 -1.3176 -0.8660 -0.1457
19644TIP3   OH280422   2.468   4.401   2.231 -0.3887  0.0143  0.1305
19644TIP3    H180423   2.422   4.318   2.245  0.0733  0.3082  4.0352
19644TIP3    H280424   2.398   4.462   2.205 -1.3667 -0.7409  0.9187
19645TIP3   OH280425   4.479   1.115   2.895  0.0946  0.7294  0.3220
19645TIP3    H180426   4.478   1.023   2.869 -0.6357  0.7244  0.3587
19645TIP3    H280427   4.389   1.146   2.878  0.3240  1.4228  0.3372
19646TIP3   OH280428   2.264   6.342   6.276  0.1901  0.2397 -0.0541
19646TIP3    H180429   2.266   6.436   6.291 -1.1408  0.1357  0.8033
19646TIP3    H280430   2.218   6.306   6.352  1.8493 -1.2351  0.2967
19647TIP3   OH280431   2.072   0.202   4.731  0.4066  0.0134  0.1347
19647TIP3    H180432   2.044   0.111   4.728 -1.3535  0.5291  0.5821
19647TIP3    H280433   2.057   0.230   4.821 -0.2304  1.1093 -0.2971
19648TIP3   OH280434   4.857   1.173   5.155 -0.2032 -0.0092 -0.2128
19648TIP3    H180435   4.816   1.237   5.096 -1.2807 -0.9039 -0.4506
19648TIP3    H280436   4.896   1.109   5.096 -1.8082 -1.2368  0.0351
19649TIP3   OH280437   0.819   5.044   1.442 -0.3007 -0.4857 -0.2063
19649TIP3    H180438   0.769   4.979   1.490 -3.8621 -0.1836 -3.2339
19649TIP3    H280439   0.887   4.994   1.397 -1.2841 -1.7677 -0.3140
19650TIP3   OH280440   3.113   4.409  16.702 -0.4851 -0.0088 -0.3944
19650TIP3    H180441   3.030   4.448  16.674 -1.0626 -0.4923  0.5950
19650TIP3    H280442   3.099   4.387  16.794  0.6495 -0.3590 -0.2993
19651TIP3   OH280443   2.984   4.637  14.664 -0.0988 -0.1319  0.1388
19651TIP3    H180444   2.916   4.586  14.709 -1.1922  1.9639  0.9566
19651TIP3    H280445   3.065   4.615  14.709 -0.5360 -1.2774  0.3689
19652TIP3   OH280446   2.570   0.148   1.071 -0.0736  0.0610 -0.0213
19652TIP3    H180447   2.540   0.106   1.151 -0.3869  1.2057  0.4710
19652TIP3    H280448   2.571   0.242   1.091  0.5505  0.3092 -1.1158
19653TIP3   OH280449   1.154   5.131  12.486 -0.3143 -0.3820 -0.4566
19653TIP3    H180450   1.201   5.174  12.557  0.8408 -1.1961 -0.7192
19653TIP3    H280451   1.125   5.203  12.429 -0.9593  0.2481  0.6364
19654TIP3   OH280452   3.865   3.160   2.433 -0.3903 -0.9608  0.2715
19654TIP3    H180453   3.862   3.136   2.340 -1.9520 -1.0991  0.3502
19654TIP3    H280454   3.951   3.129   2.463  0.1655 -0.8309 -1.1413
19655TIP3   OH280455   3.044   6.189  14.931 -0.8610  0.3308  0.4118
19655TIP3    H180456   3.112   6.217  14.869 -2.4509  0.0128 -1.5446
19655TIP3    H280457   3.032   6.096  14.913 -2.2778  0.5356  0.2706
19656TIP3   OH280458   6.262   3.885  17.120 -0.1521  0.2149 -0.2101
19656TIP3    H180459   6.355   3.903  17.125  0.1122 -0.1981 -2.7517
19656TIP3    H280460   6.249   3.805  17.171  0.7022  0.8363  0.9814
19657TIP3   OH280461   5.593   4.701  11.620  0.2696  0.5264 -0.0527
19657TIP3    H180462   5.584   4.791  11.588  0.1609  1.2078  1.8658
19657TIP3    H280463   5.521   4.654  11.578  0.2865  1.3392 -1.0219
19658TIP3   OH280464   3.175   4.501  12.258 -0.3935 -0.2910 -0.3061
19658TIP3    H180465   3.155   4.585  12.299 -0.7122 -0.0743 -0.8963
19658TIP3    H280466   3.262   4.478  12.290  0.4850  1.1691 -1.6000
19659TIP3   OH280467   5.250   1.761  11.325 -0.1088 -0.1891 -0.0544
19659TIP3    H180468   5.198   1.750  11.245 -0.1797 -0.2137 -0.0058
19659TIP3    H280469   5.221   1.690  11.382  0.8393 -0.9228 -0.4806
19660TIP3   OH280470   0.514   6.140  10.264 -0.5503 -0.1684  0.0233
19660TIP3    H180471   0.586   6.090  10.226 -1.5088 -0.1950 -1.7906
19660TIP3    H280472   0.538   6.232  10.248 -0.5127 -0.1461  0.1987
19661TIP3   OH280473   5.999   5.548   3.164 -0.2436  0.4132  0.2459
19661TIP3    H180474   5.917   5.579   3.126 -0.4705 -1.5697 -0.9779
19661TIP3    H280475   6.064   5.559   3.094  0.5041  1.7408  1.1227
19662TIP3   OH280476   4.352   1.849   4.771 -0.2039 -0.0705 -0.0707
19662TIP3    H180477   4.337   1.759   4.799 -2.0922  0.3960  0.4906
19662TIP3    H280478   4.264   1.884   4.753  0.4118  1.9554  0.7037
19663TIP3   OH280479   1.698   6.711   2.633  0.3354  0.2894  0.8751
19663TIP3    H180480   1.642   6.718   2.556  0.4179  0.8373  0.8611
19663TIP3    H280481   1.783   6.683   2.599  0.6920  1.6329  0.6200
19664TIP3   OH280482   4.599   1.921  13.165  0.3071  0.2612  0.3292
19664TIP3    H180483   4.595   1.933  13.070  1.8003  0.1405  0.2399
19664TIP3    H280484   4.547   1.842  13.181 -1.4964  1.3326 -0.1629
19665TIP3   OH280485   1.992   0.919  11.906  0.5295 -0.6459  0.8483
19665TIP3    H180486   1.936   0.926  11.830  0.6748  1.4586  0.9286
19665TIP3    H280487   2.064   0.862  11.877  0.8927  0.6151 -0.7643
19666TIP3   OH280488   3.463   5.888  12.362 -0.2625 -0.5143  0.5143
19666TIP3    H180489   3.494   5.838  12.438 -2.8574 -0.9267  1.3349
19666TIP3    H280490   3.525   5.961  12.355  1.4772 -1.8534  1.4669
19667TIP3   OH280491   0.969   0.171  15.871 -0.0040 -0.1412  0.5991
19667TIP3    H180492   0.964   0.209  15.958 -0.1564 -0.9051  0.9288
19667TIP3    H280493   0.896   0.210  15.823  0.3659  0.6413  0.6685
19668TIP3   OH280494   3.232   5.194   2.289  0.2061 -0.1386 -0.0778
19668TIP3    H180495   3.157   5.236   2.331 -0.0187 -2.1757  1.6634
19668TIP3    H280496   3.307   5.247   2.317 -0.3846  0.9468 -0.5011
19669TIP3   OH280497   4.670   1.283  15.795 -0.6611  0.0493  0.9127
19669TIP3    H180498   4.616   1.242  15.727 -1.6824  2.2275  0.3612
19669TIP3    H280499   4.758   1.250  15.778 -1.4245 -1.9037  0.5146
19670TIP3   OH280500   0.023   3.541   3.139  0.5173 -0.1826  0.0254
19670TIP3    H180501   0.074   3.499   3.208 -1.3501 -0.4562  1.2490
19670TIP3    H280502  -0.058   3.567   3.181 -0.0986  0.8588 -1.7515
19671TIP3   OH280503   1.270   6.030   0.209 -0.1794 -0.1481  0.2396
19671TIP3    H180504   1.211   5.974   0.158  2.3503 -0.9819 -1.9266
19671TIP3    H280505   1.321   5.968   0.262 -0.6563  0.4892  1.4462
19672TIP3   OH280506   2.412   0.200  13.113  0.0733  0.1095  0.1661
19672TIP3    H180507   2.333   0.162  13.075 -1.0309  0.6956  1.8012
19672TIP3    H280508   2.412   0.169  13.204  1.3929  0.6251  0.3530
19673TIP3   OH280509   5.504   2.180  15.917  0.3872  0.5084  0.0448
19673TIP3    H180510   5.409   2.180  15.919  0.2872  1.5544 -2.8395
19673TIP3    H280511   5.530   2.187  16.009 -2.2626 -1.9129  1.0394
19674TIP3   OH280512   1.859   6.291  12.649  0.2372  0.1220 -0.5766
19674TIP3    H180513   1.832   6.232  12.579  0.2309  0.2350 -0.6692
19674TIP3    H280514   1.797   6.273  12.720  1.2603 -1.1977  0.0148
19675TIP3   OH280515   2.327   2.353   2.698 -0.1213 -0.1132 -0.4380
19675TIP3    H180516   2.326   2.397   2.783 -1.1931  0.2169 -0.6118
19675TIP3    H280517   2.419   2.330   2.684 -0.1574 -1.6323  1.5510
19676TIP3   OH280518   2.700   5.419  14.838 -0.0951  0.0781  0.6013
19676TIP3    H180519   2.746   5.336  14.849  0.4813  0.3512  0.2623
19676TIP3    H280520   2.752   5.467  14.773  0.6365  1.4696  2.1763
19677TIP3   OH280521   4.785   6.120  10.749 -0.1647 -0.4524  0.1027
19677TIP3    H180522   4.694   6.092  10.753  0.0413 -1.5570 -1.9706
19677TIP3    H280523   4.782   6.209  10.714 -0.5318  0.1216  1.5854
19678TIP3   OH280524   3.010   0.106  13.260  0.7083  0.3440 -0.1117
19678TIP3    H180525   2.976   0.040  13.320 -0.5219  1.3766  0.3426
19678TIP3    H280526   3.075   0.154  13.311  0.8419  0.1718 -0.1187
19679TIP3   OH280527   4.286   4.960  12.118  0.2880  0.2072  0.4947
19679TIP3    H180528   4.260   4.938  12.029 -2.0016  1.1583  0.8826
19679TIP3    H280529   4.382   4.956  12.118  0.2183 -2.3184 -1.3275
19680TIP3   OH280530   6.018   5.782   0.735  0.2556 -0.7993  0.2631
19680TIP3    H180531   6.100   5.738   0.712  0.6699  0.0181  0.1605
19680TIP3    H280532   6.045   5.866   0.772 -0.4208 -2.0007  3.6150
19681TIP3   OH280533   1.361   4.954   4.092 -0.5109 -0.4499  0.8094
19681TIP3    H180534   1.381   4.978   4.182 -0.1102 -0.4945  0.7321
19681TIP3    H280535   1.357   4.858   4.093 -0.8806 -0.4347  0.8580
19682TIP3   OH280536   2.994   5.338   2.404  0.2015  0.3231 -0.4393
19682TIP3    H180537   2.901   5.360   2.413  0.0704 -1.2833  2.7096
19682TIP3    H280538   3.040   5.420   2.426 -0.4518  0.3660  0.8220
19683TIP3   OH280539   0.752   3.361  14.769  0.1511  0.0608  0.1095
19683TIP3    H180540   0.826   3.422  14.762  0.9114 -0.7993  0.5333
19683TIP3    H280541   0.791   3.275  14.753 -0.7846 -0.3840  0.2232
19684TIP3   OH280542   0.676   3.371  15.041  0.0521  0.1534 -0.2613
19684TIP3    H180543   0.701   3.385  14.950 -0.1845 -1.6006 -0.6073
19684TIP3    H280544   0.704   3.282  15.061 -1.4008 -0.0728  0.8688
19685TIP3   OH280545   0.824   3.468   1.539 -0.4281  0.3228 -0.6595
19685TIP3    H180546   0.861   3.471   1.451 -1.1530  1.6754 -0.9357
19685TIP3    H280547   0.730   3.474   1.525 -0.7923 -2.8913  0.0420
19686TIP3   OH280548   3.697   2.546  11.275 -0.2879  0.3551 -0.5287
19686TIP3    H180549   3.637   2.527  11.202  0.6599  0.8089 -1.4350
19686TIP3    H280550   3.643   2.594  11.338 -1.4728 -1.2333 -0.3123
19687TIP3   OH280551   2.308   1.285  16.410  0.3462  0.1985  0.0218
19687TIP3    H180552   2.247   1.315  16.343  0.7282  0.0749 -0.3824
19687TIP3    H280553   2.315   1.190  16.395 -0.5219 -0.0404  1.0174
19688TIP3   OH280554   5.064   5.846  13.801  0.0476 -0.1570 -0.5670
19688TIP3    H180555   5.138   5.819  13.746  2.0541  0.6167  1.6396
19688TIP3    H280556   5.103   5.906  13.865 -2.2111 -0.9612  1.6379
19689TIP3   OH280557   3.159   4.127   1.943 -0.1429  0.1545  0.0256
19689TIP3    H180558   3.197   4.214   1.928  0.1473 -0.1479 -1.0283
19689TIP3    H280559   3.078   4.127   1.892 -0.9257  0.3473  1.2607
19690TIP3   OH280560   5.310   0.045  13.317 -0.2193 -0.0112 -0.6429
19690TIP3    H180561   5.290  -0.033  13.368 -1.4026 -1.5921 -3.3934
19690TIP3    H280562   5.399   0.030  13.285 -0.2521  0.0068 -0.7436
19691TIP3   OH280563   1.379   0.867   5.533  0.3160  0.1312 -0.4560
19691TIP3    H180564   1.344   0.815   5.461  0.1605 -1.2565  0.6051
19691TIP3    H280565   1.381   0.807   5.607 -0.8848  1.9425  1.0776
19692TIP3   OH280566   2.744   4.975   2.687  0.9037  0.5965 -0.2273
19692TIP3    H180567   2.659   4.949   2.650  1.0230 -0.8206  0.4618
19692TIP3    H280568   2.793   5.009   2.612  0.1941  0.2270 -0.8660
19693TIP3   OH280569   3.257   4.937   3.062 -0.0217 -0.2204  0.1156
19693TIP3    H180570   3.243   4.897   3.148 -1.3034 -0.0245  0.0161
19693TIP3    H280571   3.192   4.895   3.006 -0.7885  1.3438 -0.2000
19694TIP3   OH280572   6.534   6.452  11.589 -0.3418  0.0135  0.2094
19694TIP3    H180573   6.551   6.426  11.498 -0.0724  0.0249  0.2562
19694TIP3    H280574   6.460   6.397  11.616 -1.8277  1.5143 -0.6935
19695TIP3   OH280575   1.831   6.441   4.332 -0.2187  0.1254  0.4240
19695TIP3    H180576   1.776   6.464   4.407 -0.1929  0.1547  0.4335
19695TIP3    H280577   1.869   6.357   4.355  1.1546  0.9419  1.1893
19696TIP3   OH280578   4.185   2.988  13.523 -0.4175 -0.4270  0.1211
19696TIP3    H180579   4.131   2.953  13.452  0.1030 -0.8222 -0.0869
19696TIP3    H280580   4.205   2.912  13.578  0.0881 -0.3210  0.0885
19697TIP3   OH280581   1.003   5.857   3.207  0.4624  0.2319 -0.4935
19697TIP3    H180582   1.051   5.814   3.135 -1.8025 -0.4373 -1.6414
19697TIP3    H280583   0.930   5.798   3.226 -1.5820  2.6177 -0.7673
19698TIP3   OH280584   6.118   6.588  14.274  0.3102  0.1839  0.7546
19698TIP3    H180585   6.147   6.668  14.319  0.9436  0.2261  0.2772
19698TIP3    H280586   6.024   6.583  14.292  0.2893  0.9781  0.8784
19699TIP3   OH280587   2.223   3.457   2.429  0.2713 -0.4396 -0.6075
19699TIP3    H180588   2.139   3.411   2.436 -0.0839  0.2700 -0.2440
19699TIP3    H280589   2.270   3.433   2.508 -0.3118  0.6208  0.0664
19700TIP3   OH280590   6.292   5.222   2.455  0.7276 -0.4536 -0.1941
19700TIP3    H180591   6.343   5.149   2.422  2.9835  0.5722  0.8920
19700TIP3    H280592   6.276   5.277   2.378  2.1734 -0.2620 -0.3631
19701TIP3   OH280593   6.629   5.862  16.191 -0.0638 -0.4827  0.1723
19701TIP3    H180594   6.665   5.862  16.280 -0.4473  4.8347  0.5095
19701TIP3    H280595   6.538   5.892  16.202 -0.3547 -0.4782 -1.9679
19702TIP3   OH280596   2.023   5.533   4.818  0.5233  0.1567 -0.2015
19702TIP3    H180597   2.066   5.618   4.811  0.9640 -0.1360 -1.0936
19702TIP3    H280598   2.083   5.472   4.774  0.1868 -0.6045  0.3885
19703TIP3   OH280599   1.350   5.218   1.102 -0.3834  0.1913  0.5506
19703TIP3    H180600   1.402   5.244   1.178 -0.7397  0.2991  0.7564
19703TIP3    H280601   1.358   5.291   1.041 -0.4854  0.3102  0.6790
19704TIP3   OH280602   5.802   3.742  13.549 -0.2153 -0.2516  0.4160
19704TIP3    H180603   5.834   3.704  13.467 -2.0691 -0.8411 -0.0440
19704TIP3    H280604   5.797   3.836  13.532  1.8900 -0.0587  0.7171
19705TIP3   OH280605   1.993   6.278  17.137 -0.0378 -0.1798  0.3108
19705TIP3    H180606   1.986   6.224  17.059 -0.6076  2.5484 -1.6057
19705TIP3    H280607   1.902   6.289  17.167 -0.2049  1.8284 -0.8523
19706TIP3   OH280608   4.157   3.703  15.751 -0.0775  0.1751  0.2159
19706TIP3    H180609   4.066   3.673  15.750  0.2235 -0.8181 -3.1533
19706TIP3    H280610   4.155   3.788  15.709  0.3202  1.0203  1.8572
19707TIP3   OH280611   3.326   0.587   5.805  0.3356  0.3272 -0.4637
19707TIP3    H180612   3.250   0.619   5.756 -0.8918 -1.3784  0.2934
19707TIP3    H280613   3.329   0.641   5.884 -1.0260 -0.6091  0.2447
19708TIP3   OH280614   6.718   5.568  14.762  0.4652  0.2158 -0.0103
19708TIP3    H180615   6.780   5.609  14.702  3.3566 -1.9559  1.3309
19708TIP3    H280616   6.734   5.612  14.846 -0.5058  0.3070  0.1273
19709TIP3   OH280617   0.341   6.253  17.230 -0.1466  0.1847  0.2691
19709TIP3    H180618   0.296   6.251  17.314  0.3683  3.0017  0.6655
19709TIP3    H280619   0.331   6.343  17.199 -0.1718 -0.7325 -2.6149
19710TIP3   OH280620   6.736   5.197   1.833 -0.0262 -0.5259 -0.4696
19710TIP3    H180621   6.654   5.181   1.880  0.3369  0.2999  0.4694
19710TIP3    H280622   6.792   5.241   1.897  1.4539 -1.8188 -0.8444
19711TIP3   OH280623   1.050   4.704  15.481 -0.2403 -0.0525  0.4311
19711TIP3    H180624   1.131   4.671  15.442 -0.3123 -1.8492  1.7172
19711TIP3    H280625   1.077   4.732  15.569 -0.9225 -0.3145  0.7266
19712TIP3   OH280626   4.163   6.042   0.230  0.4058 -0.5964  0.8690
19712TIP3    H180627   4.086   6.072   0.181  1.0406 -0.8675 -0.3233
19712TIP3    H280628   4.187   5.959   0.188  2.9530  0.8131 -0.5825
19713TIP3   OH280629   5.919   5.472   4.112 -0.2848 -0.2920  0.6321
19713TIP3    H180630   5.842   5.428   4.148 -1.4970  1.7244  0.5760
19713TIP3    H280631   5.961   5.406   4.057 -2.0465 -1.3812  0.5693
19714TIP3   OH280632   5.773   4.764   2.260  0.0803 -0.4821  0.8012
19714TIP3    H180633   5.811   4.685   2.221 -1.0922 -0.3619 -0.6217
19714TIP3    H280634   5.843   4.799   2.315  2.4478  0.3487 -2.6076
19715TIP3   OH280635   5.583   0.891   4.379 -0.1125 -1.0485 -0.8515
19715TIP3    H180636   5.591   0.837   4.458 -0.2740  0.7185  0.4168
19715TIP3    H280637   5.508   0.855   4.333 -0.0063 -2.1264 -0.2063
19716TIP3   OH280638   4.165   3.798   4.177 -0.4817 -0.8852  0.3831
19716TIP3    H180639   4.159   3.712   4.137  2.2855 -0.6696 -0.5846
19716TIP3    H280640   4.220   3.786   4.253  0.2840  0.1050 -0.0004
19717TIP3   OH280641   3.373   1.123  13.428 -0.1749  0.0394  0.4117
19717TIP3    H180642   3.287   1.112  13.469  0.3619 -1.9206  1.0569
19717TIP3    H280643   3.354   1.131  13.334 -1.0158 -1.2955  0.4511
19718TIP3   OH280644   6.446   0.272  12.958  0.5625 -0.3722 -0.1784
19718TIP3    H180645   6.538   0.247  12.955  0.0321 -2.5388  0.6094
19718TIP3    H280646   6.416   0.246  13.045 -0.7312  0.6210 -0.2913
19719TIP3   OH280647   1.270   4.214  12.699  0.0556  0.0351 -0.3784
19719TIP3    H180648   1.340   4.148  12.701  1.0822  1.1373  0.8009
19719TIP3    H280649   1.190   4.162  12.701  0.8498 -1.1970  1.1639
19720TIP3   OH280650   2.473   5.250   5.842 -0.4341  0.5117  0.0090
19720TIP3    H180651   2.431   5.261   5.756 -1.4680 -1.0613  0.2931
19720TIP3    H280652   2.558   5.212   5.822 -0.8736 -0.3229 -0.2971
19721TIP3   OH280653   5.359   6.566  15.649 -0.0408 -0.1648  0.2085
19721TIP3    H180654   5.416   6.638  15.675  0.7275  0.4456 -2.9487
19721TIP3    H280655   5.346   6.515  15.729  0.2682  2.8627  2.2565
19722TIP3   OH280656   5.624   2.423  15.770 -0.1332  0.2147  0.1520
19722TIP3    H180657   5.580   2.440  15.687  1.4363 -1.8858 -1.1559
19722TIP3    H280658   5.576   2.349  15.808  0.7109 -0.4507 -0.0790
19723TIP3   OH280659   6.251   6.597   3.634  0.5579  0.3834 -0.2090
19723TIP3    H180660   6.248   6.518   3.687  1.3114  0.9610  0.7055
19723TIP3    H280661   6.332   6.640   3.660  0.0394  1.5751 -0.5355
19724TIP3   OH280662   2.314   4.108  16.662  0.3955  0.2684 -0.0207
19724TIP3    H180663   2.257   4.182  16.642 -0.1662 -0.3497 -0.7386
19724TIP3    H280664   2.339   4.120  16.753 -2.0711 -0.2361  0.7509
19725TIP3   OH280665   0.661   4.234  12.978  0.0866 -0.0445  0.3820
19725TIP3    H180666   0.592   4.280  13.025 -1.1533 -0.6541 -0.7985
19725TIP3    H280667   0.711   4.189  13.046 -1.3727 -0.5117  1.1675
19726TIP3   OH280668   3.001   2.112  11.467  0.1041  0.3409 -0.0511
19726TIP3    H180669   3.054   2.096  11.544 -0.6219 -0.3407  0.3132
19726TIP3    H280670   3.058   2.161  11.408  1.1460 -0.4231  0.3151
19727TIP3   OH280671   0.273   0.627   3.039  0.6568 -0.3164  0.5762
19727TIP3    H180672   0.281   0.721   3.058  0.0955 -0.5326  1.9750
19727TIP3    H280673   0.306   0.585   3.119 -0.3416 -1.2902  0.4719
19728TIP3   OH280674   6.210   5.965   6.652  0.0376 -0.6462  0.2459
19728TIP3    H180675   6.139   6.011   6.697 -0.6663 -0.9391 -0.5395
19728TIP3    H280676   6.184   5.872   6.655 -0.8970 -0.5084 -2.2308
19729TIP3   OH280677   3.142   0.400   6.174 -0.4944  0.0066 -0.0074
19729TIP3    H180678   3.135   0.426   6.266  0.3611  1.1583 -0.2576
19729TIP3    H280679   3.199   0.465   6.135  0.7290 -1.5748 -0.9329
19730TIP3   OH280680   5.855   2.559  15.880 -0.0329 -0.5491 -0.0296
19730TIP3    H180681   5.788   2.516  15.827  0.5840 -1.5913  0.0259
19730TIP3    H280682   5.913   2.601  15.816 -1.6528  1.8232 -0.0471
19731TIP3   OH280683   2.422   6.075  16.394  0.5560  0.0573 -0.1894
19731TIP3    H180684   2.370   6.040  16.466 -1.2785  0.2873 -1.3659
19731TIP3    H280685   2.512   6.071  16.425 -0.2765  0.9214  2.4230
19732TIP3   OH280686   5.156   2.952  14.831  0.6230 -0.9624 -0.0869
19732TIP3    H180687   5.116   2.870  14.860 -1.0016 -0.2360 -0.2377
19732TIP3    H280688   5.082   3.007  14.806  1.7932 -0.0908 -1.6862
19733TIP3   OH280689   0.400   4.233   1.304 -0.3334  0.4293 -0.0940
19733TIP3    H180690   0.341   4.186   1.245 -0.1687  2.0081 -1.5787
19733TIP3    H280691   0.342   4.286   1.359 -0.4252  0.0016  0.2186
19734TIP3   OH280692   5.901   0.802  16.045 -0.8079 -0.4209  0.3024
19734TIP3    H180693   5.857   0.864  16.102  0.3246  3.0282 -2.3751
19734TIP3    H280694   5.832   0.766  15.989 -0.9706  1.4014 -0.7080
19735TIP3   OH280695   4.951   6.171  13.124 -0.0009 -0.0894 -0.4107
19735TIP3    H180696   4.872   6.118  13.115 -0.9428  1.1533  0.4172
19735TIP3    H280697   5.007   6.121  13.183 -0.3070 -0.8134 -0.7255
19736TIP3   OH280698   6.564   5.128   0.754 -0.5970 -0.5098  0.2725
19736TIP3    H180699   6.475   5.114   0.785 -1.3903 -1.6408 -2.3550
19736TIP3    H280700   6.554   5.160   0.664  1.6486 -0.3511  0.0301
19737TIP3   OH280701   4.623   0.645   5.768  0.2561 -0.7779 -0.1667
19737TIP3    H180702   4.583   0.692   5.695  1.9038 -0.5897 -0.9692
19737TIP3    H280703   4.649   0.713   5.829 -0.0973 -0.8585  0.0742
19738TIP3   OH280704   5.684   5.053  15.859  0.7364  0.7825  0.2911
19738TIP3    H180705   5.642   5.026  15.940  0.7506  1.2565  0.4613
19738TIP3    H280706   5.687   5.149  15.865 -0.6482  0.9179 -0.9641
19739TIP3   OH280707   4.195   5.550   4.987  0.5677 -0.7971 -0.4174
19739TIP3    H180708   4.204   5.455   4.993  0.8130 -0.6956  1.2008
19739TIP3    H280709   4.285   5.582   4.981  0.4443 -0.7062 -1.9686
19740TIP3   OH280710   4.072   1.865  16.434  0.6579 -0.0737 -0.6317
19740TIP3    H180711   3.995   1.808  16.428  1.1147 -0.8041  0.2037
19740TIP3    H280712   4.089   1.892  16.344 -0.2983 -0.2757 -0.8824
19741TIP3   OH280713   2.930   5.148  17.059  0.2902  0.0881 -0.7274
19741TIP3    H180714   2.892   5.170  16.973 -1.7458 -1.3355 -0.2380
19741TIP3    H280715   2.997   5.215  17.073  0.9263  0.1348 -3.5876
19742TIP3   OH280716   0.383   3.460   0.541  0.7101 -0.1821  0.2454
19742TIP3    H180717   0.320   3.518   0.583 -0.1859 -1.4204  0.6582
19742TIP3    H280718   0.367   3.469   0.448  1.9218  1.7106  0.1906
19743TIP3   OH280719   6.598   5.468  17.054  0.1037 -0.6542  0.8430
19743TIP3    H180720   6.545   5.430  16.984 -2.1072  1.9146  1.0677
19743TIP3    H280721   6.583   5.410  17.129 -0.5477 -1.2354  0.2749
19744TIP3   OH280722   6.614   1.641  15.662  0.8489  0.5663  0.1637
19744TIP3    H180723   6.660   1.695  15.599 -0.0875 -0.7611 -1.7085
19744TIP3    H280724   6.529   1.684  15.674  1.0000  0.7809  0.4612
19745TIP3   OH280725   5.641   3.295   3.789  0.0213  0.0581  0.1846
19745TIP3    H180726   5.709   3.313   3.725  0.8118 -2.1605  0.3573
19745TIP3    H280727   5.582   3.234   3.745 -0.6032  0.1830  0.8353
19746TIP3   OH280728   6.572   4.790  13.822 -0.0846  0.4577  1.0257
19746TIP3    H180729   6.515   4.800  13.747  0.1590 -0.7906  0.6638
19746TIP3    H280730   6.657   4.765  13.785  0.2762  0.7306  1.6533
19747TIP3   OH280731   0.157   6.064  14.926  0.2339 -0.3947 -0.6347
19747TIP3    H180732   0.125   5.981  14.963  0.4672  0.2219  0.9778
19747TIP3    H280733   0.078   6.119  14.920  0.5428  0.2406  0.9548
19748TIP3   OH280734   3.452   6.784   4.172  0.4065 -0.2367  0.0664
19748TIP3    H180735   3.390   6.842   4.129  1.4874  0.7334 -0.2017
19748TIP3    H280736   3.400   6.738   4.238 -0.6230  0.4635 -0.2491
19749TIP3   OH280737   2.443   6.465   0.239 -0.4687  0.1227  0.3480
19749TIP3    H180738   2.486   6.379   0.237 -0.0451  0.3326  0.2316
19749TIP3    H280739   2.425   6.480   0.332  0.6010  0.4530  0.5213
19750TIP3   OH280740   6.130   2.145   4.069 -0.2287  0.2771  0.2414
19750TIP3    H180741   6.143   2.201   4.145  2.4475  0.9833 -0.6624
19750TIP3    H280742   6.173   2.063   4.092  3.6214  1.5995 -1.6396
19751TIP3   OH280743   3.408   5.136  13.651  0.3127  0.3408 -0.0251
19751TIP3    H180744   3.435   5.161  13.739  0.6451  2.4064 -0.6882
19751TIP3    H280745   3.318   5.170  13.644 -0.7767 -2.2832  0.4752
19752TIP3   OH280746   0.801   1.729   0.800 -0.0810  0.5665 -0.3301
19752TIP3    H180747   0.803   1.643   0.759  0.5174  0.5993 -0.3740
19752TIP3    H280748   0.863   1.781   0.750 -0.3161  0.9769 -0.1969
19753TIP3   OH280749   4.664   2.853  11.971 -0.0731  0.5367 -0.2112
19753TIP3    H180750   4.746   2.856  12.020  0.6386 -1.4123 -1.1928
19753TIP3    H280751   4.646   2.943  11.947  1.0929  1.1414  1.1269
19754TIP3   OH280752   3.822   6.460  15.823  0.3285  0.1891 -0.4939
19754TIP3    H180753   3.860   6.471  15.910 -0.3933 -0.2091 -0.1269
19754TIP3    H280754   3.854   6.535  15.773  2.1440 -0.4913 -0.3948
19755TIP3   OH280755   0.628   5.121  16.432 -0.2117  0.0629  0.1529
19755TIP3    H180756   0.690   5.050  16.448  1.4643  1.9047  2.1230
19755TIP3    H280757   0.634   5.138  16.338  1.5955 -0.4068  0.1667
19756TIP3   OH280758   6.414   0.771  14.667 -0.0085  0.1609  0.3486
19756TIP3    H180759   6.342   0.822  14.631 -0.0595  1.1571  1.8110
19756TIP3    H280760   6.446   0.823  14.741  2.9847  0.3335 -0.9753
19757TIP3   OH280761   6.372   3.604   1.043 -0.1163 -0.1531  0.7903
19757TIP3    H180762   6.452   3.552   1.038  0.3335  0.4316  1.8247
19757TIP3    H280763   6.402   3.694   1.055 -0.8908  0.4191 -1.4311
19758TIP3   OH280764   3.058   3.613   4.616  0.4947 -0.6992  0.5733
19758TIP3    H180765   2.982   3.646   4.567  0.8514 -0.2145  0.3479
19758TIP3    H280766   3.093   3.690   4.659  0.3204 -1.0879  1.4120
19759TIP3   OH280767   1.089   6.798  16.064  0.0552 -0.1436 -0.8101
19759TIP3    H180768   1.014   6.789  16.005 -0.9535 -1.7932  0.6708
19759TIP3    H280769   1.165   6.789  16.007 -0.8571  1.4717 -2.3294
19760TIP3   OH280770   3.588   5.606  15.624  0.4014 -0.1762 -0.6780
19760TIP3    H180771   3.545   5.551  15.558 -0.4445 -0.2682 -0.0582
19760TIP3    H280772   3.516   5.646  15.673  0.9949  2.0283 -1.5409
19761TIP3   OH280773   1.728   0.305  12.703 -0.0955 -0.5451 -0.1193
19761TIP3    H180774   1.820   0.308  12.674 -0.3492  0.8259 -0.8229
19761TIP3    H280775   1.678   0.330  12.626 -0.8103  2.6640  1.2966
19762TIP3   OH280776   6.630   5.912   0.070 -0.1347 -0.2627  0.0948
19762TIP3    H180777   6.726   5.913   0.070 -0.1165 -1.3503 -0.3687
19762TIP3    H280778   6.606   5.996   0.109  1.0117 -0.5953  1.6068
19763TIP3   OH280779   1.752   6.569  14.162 -0.6181  0.0855  1.1271
19763TIP3    H180780   1.693   6.525  14.223 -0.8732  0.1324  0.9139
19763TIP3    H280781   1.839   6.537  14.186 -0.7783 -0.3633  1.1179
19764TIP3   OH280782   1.584   3.283  12.559 -0.3564 -0.4194  0.4561
19764TIP3    H180783   1.625   3.351  12.613 -1.1432  0.4478 -0.0279
19764TIP3    H280784   1.593   3.204  12.611 -2.6332  0.7224  2.6920
19765TIP3   OH280785   3.370   4.208  11.086  0.0356  0.3169  0.0931
19765TIP3    H180786   3.432   4.251  11.028  1.0488 -0.7214  0.3835
19765TIP3    H280787   3.348   4.274  11.151 -0.3498  1.1741 -0.8909
19766TIP3   OH280788   3.903   5.618  13.508 -0.2560  0.1549  0.0520
19766TIP3    H180789   3.825   5.565  13.523 -0.7596 -0.2321 -3.5069
19766TIP3    H280790   3.910   5.623  13.413  2.2915  2.8312  0.3342
19767TIP3   OH280791   4.859   1.617  17.054  0.1914  0.2340  0.3679
19767TIP3    H180792   4.808   1.686  17.097 -1.6554  0.2425 -1.6771
19767TIP3    H280793   4.854   1.640  16.961 -0.0971 -2.4026 -0.3076
19768TIP3   OH280794   0.919   4.668  17.277  0.1219  0.1149 -0.2173
19768TIP3    H180795   0.974   4.598  17.313 -0.9016 -0.4831  0.2079
19768TIP3    H280796   0.859   4.624  17.218 -0.2822  0.6875 -0.2362
19769TIP3   OH280797   0.048   6.435   1.466 -0.1712  0.0514 -0.6239
19769TIP3    H180798  -0.025   6.375   1.482  0.2197 -0.3346 -0.2768
19769TIP3    H280799   0.027   6.513   1.518 -1.4731  0.8716 -2.3221
19770TIP3   OH280800   1.673   6.016   6.596  0.0148  0.1291 -0.5293
19770TIP3    H180801   1.755   6.049   6.559 -0.4762  0.5049 -1.2954
19770TIP3    H280802   1.615   6.006   6.520 -1.8253  3.2366  0.3990
19771TIP3   OH280803   1.930   0.988   1.416  0.1130  0.2023 -0.2291
19771TIP3    H180804   1.856   0.937   1.448  0.9613 -0.0602  1.3667
19771TIP3    H280805   1.942   0.959   1.325  0.5259 -2.4185  0.6168
19772TIP3   OH280806   5.249   2.901  11.368  0.0261 -0.7847 -0.2464
19772TIP3    H180807   5.224   2.989  11.341  3.5489  0.7455  1.2448
19772TIP3    H280808   5.242   2.903  11.464 -3.4528 -3.3218 -0.3458
19773TIP3   OH280809   1.778   0.570   6.828  0.7307 -0.3469  0.2841
19773TIP3    H180810   1.765   0.479   6.853  0.7859 -0.7477 -1.0884
19773TIP3    H280811   1.735   0.578   6.743  0.6095  0.9406  0.4595
19774TIP3   OH280812   4.599   4.101   1.048  0.0117 -0.5767 -0.2596
19774TIP3    H180813   4.674   4.049   1.020 -0.0350  0.4932 -2.4429
19774TIP3    H280814   4.637   4.166   1.108  0.5884 -1.0553 -0.1019
19775TIP3   OH280815   4.776   2.461  12.244  0.0957 -0.2335  0.2717
19775TIP3    H180816   4.810   2.440  12.157 -1.1526 -0.0282 -0.2637
19775TIP3    H280817   4.776   2.378  12.290 -1.7183 -0.8454 -0.7800
19776TIP3   OH280818   1.849   0.931  15.198  0.1790 -0.1558  0.0759
19776TIP3    H180819   1.916   0.997  15.212  0.6660 -0.4367 -0.8743
19776TIP3    H280820   1.878   0.883  15.120 -1.6685  0.4177 -0.9938
19777TIP3   OH280821   6.645   4.247   2.166 -0.6893  0.5743 -0.0378
19777TIP3    H180822   6.637   4.185   2.237  0.0046  0.8483  0.2802
19777TIP3    H280823   6.702   4.316   2.200 -0.1154  0.5621 -0.9459
19778TIP3   OH280824   4.876   4.199  14.614 -0.1722 -0.3013  0.7617
19778TIP3    H180825   4.847   4.223  14.702 -0.8692  0.5968  0.2978
19778TIP3    H280826   4.803   4.224  14.557  0.7275  0.1663 -0.2025
19779TIP3   OH280827   3.196   3.523  15.807 -0.8534  0.3637 -0.0800
19779TIP3    H180828   3.146   3.581  15.865 -0.9773 -0.3010  0.4821
19779TIP3    H280829   3.267   3.490  15.861 -1.3133 -0.7285 -0.1252
19780TIP3   OH280830   0.889   3.921   4.549 -0.0989  0.0353  0.2460
19780TIP3    H180831   0.880   3.982   4.475 -0.0682 -0.4962 -0.2019
19780TIP3    H280832   0.876   3.835   4.510 -1.3420 -0.1609  1.0985
19781TIP3   OH280833   1.365   3.861  13.805  0.1043  0.2822 -0.5656
19781TIP3    H180834   1.308   3.876  13.881 -0.7874  2.4231 -1.6062
19781TIP3    H280835   1.409   3.779  13.824 -0.6964  0.3787  1.9105
19782TIP3   OH280836   4.020   2.871   0.129 -0.2087 -0.2306  0.3518
19782TIP3    H180837   3.948   2.897   0.186 -0.8071  0.8740 -0.8756
19782TIP3    H280838   4.099   2.904   0.173 -0.6950  0.9494  0.3591
19783TIP3   OH280839   5.222   2.424   5.094  0.1244  0.2414  0.4849
19783TIP3    H180840   5.207   2.404   5.187  0.5925  0.5146  0.6233
19783TIP3    H280841   5.140   2.401   5.051 -0.2410  0.5052  1.0282
19784TIP3   OH280842   1.195   6.361  14.578 -0.3896 -0.0130 -0.0885
19784TIP3    H180843   1.229   6.359  14.488  1.2108  0.1557  0.5129
19784TIP3    H280844   1.100   6.361  14.566 -0.2307  2.4750 -1.8560
19785TIP3   OH280845   1.496   4.596   0.477 -0.6384  0.2721 -0.0575
19785TIP3    H180846   1.580   4.553   0.490 -1.1119 -0.6244  0.0927
19785TIP3    H280847   1.450   4.586   0.561 -1.5543 -0.7524 -0.6542
19786TIP3   OH280848   3.532   5.851   2.149  0.8813  0.2396  0.1921
19786TIP3    H180849   3.570   5.805   2.224  0.2948  0.7871  0.8252
19786TIP3    H280850   3.573   5.809   2.073  0.6183 -1.0925  0.7678
19787TIP3   OH280851   2.315   2.178   5.416 -0.4884  0.4370  0.7668
19787TIP3    H180852   2.321   2.230   5.335  0.0282 -2.4124 -1.1191
19787TIP3    H280853   2.222   2.158   5.425 -0.4533  0.0716  0.3753
19788TIP3   OH280854   6.086   5.088  15.171 -0.4813 -0.0157 -0.2625
19788TIP3    H180855   6.153   5.019  15.169 -0.1355  0.2744  1.0616
19788TIP3    H280856   6.134   5.169  15.160 -0.4302  0.3056  2.1023
19789TIP3   OH280857   0.931   5.851   1.834 -0.2636 -0.0493 -0.6675
19789TIP3    H180858   0.978   5.921   1.790 -0.9485  0.1437 -1.0913
19789TIP3    H280859   0.930   5.779   1.771  0.3326 -0.3975 -0.2803
19790TIP3   OH280860   0.585   1.164  12.533 -0.2137  0.2760  0.5222
19790TIP3    H180861   0.610   1.248  12.495 -0.2522  0.8252  1.6746
19790TIP3    H280862   0.614   1.099  12.469  2.1223  1.0215  0.7752
19791TIP3   OH280863   1.327   5.758   3.710 -0.2366 -0.4106 -0.4256
19791TIP3    H180864   1.319   5.844   3.752  0.7539 -0.4723 -0.1106
19791TIP3    H280865   1.319   5.777   3.616 -2.6767 -0.3060 -0.2242
19792TIP3   OH280866   0.294   6.253  15.851  0.1067  0.2025 -0.2411
19792TIP3    H180867   0.229   6.183  15.852  1.6112 -1.2319  1.1361
19792TIP3    H280868   0.263   6.314  15.784 -0.9557 -2.0517 -1.8651
19793TIP3   OH280869   1.015   0.039  13.248 -0.4876 -0.1878  0.1134
19793TIP3    H180870   1.061  -0.034  13.289  0.7980  0.1635 -0.6769
19793TIP3    H280871   0.940   0.056  13.306 -0.2143 -1.4492  0.8486
19794TIP3   OH280872   6.424   0.513   3.631  0.3187  0.2457  0.4504
19794TIP3    H180873   6.460   0.573   3.697  1.8361 -1.1785  0.9703
19794TIP3    H280874   6.370   0.452   3.682  2.4343 -1.5795  0.6066
19795TIP3   OH280875   6.753   2.636  16.322 -0.0377 -0.2271  0.3734
19795TIP3    H180876   6.846   2.652  16.312  0.0363 -0.0737  1.2177
19795TIP3    H280877   6.727   2.588  16.243  0.3776  1.3139 -0.6985
19796TIP3   OH280878   5.433   2.922   5.191  0.1209 -0.0661  0.1541
19796TIP3    H180879   5.517   2.913   5.146  0.5676  0.3523  0.9031
19796TIP3    H280880   5.404   2.832   5.206 -0.4881 -0.2242 -1.7850
19797TIP3   OH280881   6.670   5.997   1.619  0.1766  0.0579 -0.3172
19797TIP3    H180882   6.694   6.001   1.527  0.6593  0.5647 -0.1759
19797TIP3    H280883   6.751   5.974   1.664  0.1543  0.7137  0.0632
19798TIP3   OH280884   6.009   1.945  16.301  0.0404  0.0238 -0.2667
19798TIP3    H180885   5.936   2.001  16.275 -1.0953 -1.2100  0.2276
19798TIP3    H280886   6.013   1.877  16.234 -0.1533 -0.7058  0.4543
19799TIP3   OH280887   5.326   1.118   5.413 -0.3749  0.1526  0.3200
19799TIP3    H180888   5.378   1.109   5.333  0.8553  2.1147  0.8801
19799TIP3    H280889   5.256   1.179   5.389 -0.8220 -0.3338  0.3675
19800TIP3   OH280890   6.579   1.366  13.944 -1.1221  0.7301 -0.2080
19800TIP3    H180891   6.515   1.341  14.011 -1.5628  1.5560 -0.3124
19800TIP3    H280892   6.660   1.323  13.971 -1.2134  1.3144  1.0312
19801TIP3   OH280893   5.991   0.611   5.084 -0.3198  0.8510  0.3221
19801TIP3    H180894   5.908   0.645   5.051 -0.2307  1.2562  0.5069
19801TIP3    H280895   6.026   0.682   5.137  0.8007  1.2035 -0.8732
19802TIP3   OH280896   1.035   1.329  12.913  0.1575  0.2189  0.0776
19802TIP3    H180897   0.948   1.360  12.889 -0.6546 -1.1802  1.1334
19802TIP3    H280898   1.038   1.238  12.883  0.6849 -0.2118  1.3900
19803TIP3   OH280899   1.447   0.338  14.438 -0.8292  0.1851 -0.6619
19803TIP3    H180900   1.520   0.400  14.450 -0.5014 -0.1257 -1.0495
19803TIP3    H280901   1.394   0.350  14.517  0.2714 -0.4319  0.1930
19804TIP3   OH280902   3.586   4.488  11.228  0.0529  0.4171  0.1625
19804TIP3    H180903   3.630   4.438  11.160 -1.6656  0.6369 -1.1177
19804TIP3    H280904   3.494   4.491  11.202 -0.7558  0.0327  2.7625
19805TIP3   OH280905   6.459   3.492   4.824  0.0431  0.0780  0.3651
19805TIP3    H180906   6.370   3.499   4.858  0.3776  4.2332  0.6286
19805TIP3    H280907   6.509   3.557   4.873  2.1899  1.0172 -2.8903
19806TIP3   OH280908   3.867   3.405  13.242 -0.1111 -0.6846  0.0864
19806TIP3    H180909   3.835   3.428  13.155  0.8741 -0.8305 -0.3225
19806TIP3    H280910   3.961   3.390  13.230  0.0311 -0.7215  1.1701
19807TIP3   OH280911   4.211   2.363  10.186 -0.5409 -0.6533  0.9139
19807TIP3    H180912   4.133   2.307  10.183 -0.2794 -1.1902  3.2388
19807TIP3    H280913   4.282   2.308  10.153 -1.5393  0.7091 -3.9611
19808TIP3   OH280914   6.453   2.377  11.541  0.3249  0.2801  0.4778
19808TIP3    H180915   6.475   2.457  11.493  1.4306 -0.6734 -0.6514
19808TIP3    H280916   6.438   2.407  11.631  0.7138  1.7622  0.0701
19809TIP3   OH280917   1.232   5.082  16.977 -0.0469 -0.3675  0.4000
19809TIP3    H180918   1.267   5.163  17.014  1.2729 -1.5108  1.7661
19809TIP3    H280919   1.308   5.040  16.937 -0.7966 -0.7415 -0.6255
19810TIP3   OH280920   5.798   6.264  13.212 -0.8545  0.3002 -0.2410
19810TIP3    H180921   5.892   6.273  13.226 -0.8429  0.5677 -0.4807
19810TIP3    H280922   5.775   6.183  13.257 -0.4322  0.0095 -0.5405
19811TIP3   OH280923   1.416   5.097  12.897  0.0916  0.5218 -0.4354
19811TIP3    H180924   1.379   5.024  12.847  1.1815  0.2081 -0.7879
19811TIP3    H280925   1.381   5.175  12.854  0.6274  0.2428 -1.3945
19812TIP3   OH280926   1.768   5.172  11.824  0.1503 -0.0834  0.1449
19812TIP3    H180927   1.820   5.095  11.848  0.2346  0.1043  0.5770
19812TIP3    H280928   1.830   5.245  11.826  0.8717 -0.4942 -3.7679
19813TIP3   OH280929   3.925   5.134  11.333  0.4373 -0.1560 -0.0626
19813TIP3    H180930   3.946   5.043  11.311  0.1767  0.1804 -1.7459
19813TIP3    H280931   3.885   5.129  11.420  2.0791 -1.4513  0.6516
19814TIP3   OH280932   4.029   4.140   3.305 -0.5562 -0.6343  0.5331
19814TIP3    H180933   3.992   4.161   3.219  0.1328  0.4013  0.4835
19814TIP3    H280934   3.958   4.099   3.353 -1.0675 -0.8481 -0.3957
19815TIP3   OH280935   3.073   4.101  13.926 -0.4629 -0.1937  0.2733
19815TIP3    H180936   3.076   4.196  13.915  0.3698 -0.1746  0.6414
19815TIP3    H280937   3.031   4.088  14.010  0.2700 -0.1241  0.6518
19816TIP3   OH280938   0.527   0.534  11.583 -0.0941 -0.1032 -0.1917
19816TIP3    H180939   0.550   0.452  11.541  0.8751  0.0414  0.0443
19816TIP3    H280940   0.559   0.526  11.672  3.1352  1.8492 -1.0989
19817TIP3   OH280941   6.629   6.011   0.630  0.2632 -0.5565  0.4898
19817TIP3    H180942   6.570   6.059   0.688 -0.1704 -0.4189 -0.0659
19817TIP3    H280943   6.615   5.919   0.651 -0.5488 -0.5493 -0.0299
19818TIP3   OH280944   0.231   6.208  15.511  0.2489 -0.0934 -0.1704
19818TIP3    H180945   0.175   6.138  15.543 -0.3374  0.5196  0.1719
19818TIP3    H280946   0.170   6.278  15.485  0.6833 -0.5631 -2.6412
19819TIP3   OH280947   3.363   2.177  15.005  0.1390  0.0601  0.7316
19819TIP3    H180948   3.431   2.120  14.971 -0.8727 -1.4586  1.2156
19819TIP3    H280949   3.281   2.129  14.991 -0.8762  1.9302 -0.0238
19820TIP3   OH280950   6.605   2.875   5.013  0.5961  0.2607  0.1687
19820TIP3    H180951   6.512   2.852   5.022  1.1809 -1.5896  1.7226
19820TIP3    H280952   6.622   2.866   4.919 -1.0237  1.5928 -0.2880
19821TIP3   OH280953   3.505   4.261  17.250  0.2015 -0.1983 -0.3823
19821TIP3    H180954   3.410   4.246  17.249  0.3616 -1.2393  0.0316
19821TIP3    H280955   3.539   4.200  17.184  0.7451 -0.9253  0.5658
19822TIP3   OH280956   3.086   0.801   6.171 -0.4658  0.4024  0.2955
19822TIP3    H180957   3.066   0.773   6.260  0.6481  1.1187  0.7929
19822TIP3    H280958   3.181   0.787   6.163 -0.1454  2.5811  0.0636
19823TIP3   OH280959   6.795   2.589  11.058 -0.8607 -0.1247 -0.2525
19823TIP3    H180960   6.888   2.584  11.035 -0.3080  0.1523  1.8164
19823TIP3    H280961   6.779   2.681  11.076 -1.7981 -0.0145 -1.6012
19824TIP3   OH280962   5.707   5.165  12.389 -0.5103 -0.3787 -0.1540
19824TIP3    H180963   5.654   5.200  12.318  0.8013  2.3579  0.1564
19824TIP3    H280964   5.645   5.149  12.461 -1.2138  0.8752 -0.4727
19825TIP3   OH280965   3.147   1.620   3.447  0.1678  1.2100 -0.1443
19825TIP3    H180966   3.110   1.585   3.528 -2.8885 -3.2019 -3.2261
19825TIP3    H280967   3.094   1.697   3.428 -1.3448  0.2760  0.2566
19826TIP3   OH280968   0.828   5.691   3.349 -0.6952 -0.1326 -0.2688
19826TIP3    H180969   0.796   5.763   3.402 -1.2626  0.8373 -1.8821
19826TIP3    H280970   0.770   5.689   3.273 -1.2056 -2.8507  0.1679
19827TIP3   OH280971   1.765   0.751  16.948 -0.1174  0.1801  0.0346
19827TIP3    H180972   1.844   0.805  16.940 -1.2073  2.0113  1.2750
19827TIP3    H280973   1.795   0.673  16.997  0.6681  1.4468  1.6443
19828TIP3   OH280974   6.574   0.526  11.530  0.2680 -0.3960  0.6917
19828TIP3    H180975   6.637   0.582  11.575 -0.3104  1.2395 -0.4905
19828TIP3    H280976   6.524   0.585  11.474  0.4267 -2.2259 -1.4961
19829TIP3   OH280977   6.487   4.682  16.286 -0.5525 -0.4406  0.1105
19829TIP3    H180978   6.393   4.696  16.289 -0.6874 -1.1484 -0.5568
19829TIP3    H280979   6.497   4.593  16.250  0.3887  0.1402 -1.1162
19830TIP3   OH280980   1.981   0.349   1.623  0.3342 -0.5654  0.3555
19830TIP3    H180981   1.924   0.319   1.693 -0.9906  1.8721  0.3939
19830TIP3    H280982   1.991   0.443   1.639 -0.5007  0.1722 -3.0450
19831TIP3   OH280983   1.024   0.831   0.657 -0.0802 -0.0573  0.5735
19831TIP3    H180984   1.021   0.790   0.743  1.4868 -1.4248 -0.0015
19831TIP3    H280985   0.979   0.770   0.599  0.5743 -0.0485  0.0566
19832TIP3   OH280986   5.104   2.065   3.499  0.0689  0.5645  0.2898
19832TIP3    H180987   5.155   2.001   3.449  0.0582 -0.0605  1.0741
19832TIP3    H280988   5.126   2.047   3.590  2.0324  3.3339  0.4238
19833TIP3   OH280989   4.822   1.796   0.840  0.0036 -1.1627 -0.0177
19833TIP3    H180990   4.815   1.758   0.752  3.1338 -2.0616  0.0737
19833TIP3    H280991   4.915   1.794   0.860 -0.4237  1.0207  2.4918
19834TIP3   OH280992   0.219   2.311  11.006  0.0631  0.0514  0.0546
19834TIP3    H180993   0.263   2.396  10.998 -0.1978  0.1132 -0.7088
19834TIP3    H280994   0.282   2.248  10.970  0.4552 -0.1477  1.0587
19835TIP3   OH280995   2.502   1.362  11.887 -0.1013  0.5194  0.1426
19835TIP3    H180996   2.576   1.368  11.826  0.4575  0.6697  0.8381
19835TIP3    H280997   2.463   1.449  11.885  1.5975  1.3463  2.1156
19836TIP3   OH280998   4.941   5.326  14.077 -0.1515  0.1485  0.0470
19836TIP3    H180999   5.013   5.338  14.015  0.4262 -1.1359  0.4449
19836TIP3    H281000   4.887   5.258  14.037  0.1446 -0.5797  0.8666
19837TIP3   OH281001   4.280   0.538  15.766 -0.0121  0.4486  0.6458
19837TIP3    H181002   4.293   0.596  15.691 -1.5266  0.2917  0.2446
19837TIP3    H281003   4.346   0.566  15.830  0.2464  1.6283 -0.1239
19838TIP3   OH281004   0.278   4.727  11.608  0.1402  0.1013 -0.2528
19838TIP3    H181005   0.348   4.723  11.543 -0.3418 -1.2555 -0.7015
19838TIP3    H281006   0.202   4.759  11.559 -0.0680 -0.3530 -0.2333
19839TIP3   OH281007   1.019   4.596   5.786 -0.2103  0.0963  0.5484
19839TIP3    H181008   1.093   4.656   5.784 -0.1929  0.0722  0.4126
19839TIP3    H281009   0.995   4.585   5.693  1.3840 -2.0507  0.3331
19840TIP3   OH281010   1.681   5.582   1.458 -0.1062  0.3902 -0.0535
19840TIP3    H181011   1.625   5.529   1.402 -0.0255  0.3243 -0.0712
19840TIP3    H281012   1.770   5.562   1.429 -0.1531  2.6396 -1.9937
19841TIP3   OH281013   2.297   1.727  16.107  0.1144  0.2120  0.2221
19841TIP3    H181014   2.271   1.782  16.033  1.0250 -0.5570 -0.6931
19841TIP3    H281015   2.317   1.642  16.068 -0.5995 -0.5772  1.5313
19842TIP3   OH281016   0.938   5.506   4.101 -0.1594 -0.6513 -0.4049
19842TIP3    H181017   0.972   5.595   4.099 -0.7388 -0.4196  0.0226
19842TIP3    H281018   0.851   5.513   4.063  0.0809 -1.1607 -1.0472
19843TIP3   OH281019   6.422   2.365  16.086  0.9664 -0.7339 -0.1747
19843TIP3    H181020   6.346   2.400  16.038 -0.2799 -0.3433  1.9987
19843TIP3    H281021   6.457   2.297  16.029 -1.1113 -1.0147 -1.1868
19844TIP3   OH281022   6.816   4.454   0.940 -0.1307  0.0066  0.7949
19844TIP3    H181023   6.801   4.361   0.921 -0.7608  0.1627  0.5172
19844TIP3    H281024   6.911   4.461   0.952 -0.0042 -0.5540  0.1593
19845TIP3   OH281025   4.940   3.830  13.241 -0.0186  0.8179 -0.2009
19845TIP3    H181026   4.976   3.797  13.324 -3.6916 -0.4774  0.9442
19845TIP3    H281027   4.940   3.925  13.252  0.6885  0.7219  0.7558
19846TIP3   OH281028   2.484   2.893   5.794 -0.4324  0.0845  0.2687
19846TIP3    H181029   2.534   2.860   5.868 -0.0321 -1.6968 -0.7716
19846TIP3    H281030   2.496   2.828   5.725  1.0993  2.8162 -2.1582
19847TIP3   OH281031   0.289   1.644   1.201  0.4982  0.3415 -0.1907
19847TIP3    H181032   0.350   1.572   1.189  0.1213 -0.1006  0.5144
19847TIP3    H281033   0.297   1.697   1.121 -0.7804 -1.6251 -1.6658
19848TIP3   OH281034   0.830   4.087   0.798  0.0433 -0.2825 -0.0832
19848TIP3    H181035   0.914   4.073   0.756 -0.8319 -0.6183 -1.7526
19848TIP3    H281036   0.812   4.180   0.785 -0.5904 -0.5516 -1.1326
19849TIP3   OH281037   1.879   0.680  13.172  0.0576  0.3818 -0.0757
19849TIP3    H181038   1.936   0.728  13.110 -1.4545  2.9891  0.4831
19849TIP3    H281039   1.930   0.678  13.253 -0.2234  1.8455  0.1482
19850TIP3   OH281040   3.158   4.096   0.350  0.1923 -0.0845 -0.2869
19850TIP3    H181041   3.064   4.079   0.354 -0.0312  0.2052 -3.0202
19850TIP3    H281042   3.197   4.011   0.332  0.4988 -0.2615  1.1767
19851TIP3   OH281043   1.972   5.227   5.245  0.2862  0.1318  0.4871
19851TIP3    H181044   1.927   5.244   5.328 -0.8758  0.7940 -0.2584
19851TIP3    H281045   2.063   5.211   5.270  0.0803  0.9433  1.8385
19852TIP3   OH281046   2.921   5.825   1.076 -1.1308 -0.3613 -0.1933
19852TIP3    H181047   2.917   5.766   1.001 -0.5363  0.3887 -0.8177
19852TIP3    H281048   3.014   5.846   1.086 -1.6213  3.0505 -2.0301
19853TIP3   OH281049   1.740   1.621  13.356 -0.2066 -0.0353 -0.4195
19853TIP3    H181050   1.707   1.710  13.360 -0.5917 -0.2321  1.1403
19853TIP3    H281051   1.674   1.568  13.401  1.2518 -0.7096  1.0202
19854TIP3   OH281052   1.235   1.990   3.220 -0.2919 -0.3231 -0.2706
19854TIP3    H181053   1.264   1.903   3.197 -0.8550 -0.8754  1.0253
19854TIP3    H281054   1.155   2.003   3.169 -0.9377 -1.1009  0.5221
19855TIP3   OH281055   1.272   0.192  15.890  0.8436 -0.3007 -0.3094
19855TIP3    H181056   1.283   0.157  15.802  0.1474  0.4704 -0.7057
19855TIP3    H281057   1.178   0.195  15.903  0.9420 -0.3930  0.4618
19856TIP3   OH281058   6.308   5.613   2.646 -0.1941  0.1782  0.0144
19856TIP3    H181059   6.384   5.671   2.642 -0.3360  0.3935  0.4341
19856TIP3    H281060   6.344   5.526   2.663 -0.0808  0.3572  0.6723
19857TIP3   OH281061   2.281   3.075   6.133 -0.2216 -0.1532  0.6166
19857TIP3    H181062   2.195   3.043   6.159 -0.1958 -1.0934 -0.4266
19857TIP3    H281063   2.341   3.005   6.156 -0.1576 -0.8852 -1.5971
19858TIP3   OH281064   2.187   3.935   2.334 -0.3991 -0.1376  0.1846
19858TIP3    H181065   2.126   3.948   2.407  0.3437 -0.5296  0.8746
19858TIP3    H281066   2.255   3.877   2.368  0.5263  0.5277 -0.4906
19859TIP3   OH281067   6.021   6.628   0.064  0.5745 -0.0311  0.1365
19859TIP3    H181068   5.981   6.662   0.144 -1.2999  0.2295 -0.8738
19859TIP3    H281069   6.019   6.533   0.075 -2.1441 -0.1302 -0.6841
19860TIP3   OH281070   3.748   6.158  14.701  0.5096  0.3829 -0.4561
19860TIP3    H181071   3.768   6.155  14.795  2.1710 -3.8112 -0.8333
19860TIP3    H281072   3.832   6.141  14.658 -0.6866 -0.2554 -2.6060
19861TIP3   OH281073   5.087   0.559  12.534 -0.3463 -0.2171  0.6415
19861TIP3    H181074   4.994   0.565  12.554 -0.6280 -0.1670 -0.6046
19861TIP3    H281075   5.097   0.609  12.453  1.0181  0.9769  1.5381
19862TIP3   OH281076   3.428   2.584  15.207  0.3892  0.2003  0.2749
19862TIP3    H181077   3.459   2.612  15.121  0.1930  2.5784  0.9368
19862TIP3    H281078   3.485   2.628  15.269 -2.3896  2.3230  1.4428
19863TIP3   OH281079   6.020   4.856   0.157 -0.2446 -0.1842 -0.1007
19863TIP3    H181080   6.113   4.832   0.155 -0.4570 -1.1339  0.8578
19863TIP3    H281081   6.011   4.907   0.238 -0.8902 -1.5695  0.7268
19864TIP3   OH281082   5.438   3.809   3.456 -0.2661  0.3025 -0.3290
19864TIP3    H181083   5.459   3.803   3.549 -0.6428  0.8350 -0.2023
19864TIP3    H281084   5.346   3.837   3.454 -0.1580  0.6241 -0.8563
19865TIP3   OH281085   5.164   2.039  12.360 -0.2293 -0.4670  0.2680
19865TIP3    H181086   5.156   2.130  12.332  0.5237 -0.2286  0.7946
19865TIP3    H281087   5.089   2.026  12.419 -1.0010 -0.5444 -0.7272
19866TIP3   OH281088   0.759   3.650  14.572 -0.0202 -0.5607  0.5098
19866TIP3    H181089   0.782   3.732  14.528 -1.7883  0.3639  1.2384
19866TIP3    H281090   0.783   3.664  14.664  0.5770 -1.2204  0.4536
19867TIP3   OH281091   0.642   2.234  15.386 -0.5283 -0.1854 -0.1966
19867TIP3    H181092   0.726   2.198  15.414 -0.8292  0.7996  2.0794
19867TIP3    H281093   0.664   2.320  15.349 -0.3346 -0.7119 -1.3146
19868TIP3   OH281094   1.860   4.124   1.154 -0.2981  0.1055  0.0599
19868TIP3    H181095   1.828   4.210   1.127 -0.6939  0.1600  0.6887
19868TIP3    H281096   1.952   4.123   1.126 -0.7742  0.0353 -1.5181
19869TIP3   OH281097   0.037   1.351  13.137 -0.8844 -0.5132 -0.1036
19869TIP3    H181098   0.018   1.434  13.094 -0.1205 -0.3080 -0.0396
19869TIP3    H281099   0.073   1.296  13.067 -1.8665 -0.9670 -0.2673
19870TIP3   OH281100   6.555   4.547   5.639  0.0876  0.0409  0.3640
19870TIP3    H181101   6.633   4.602   5.630  1.0282 -1.0972  1.2509
19870TIP3    H281102   6.590   4.461   5.666 -1.4808 -0.4328  0.9336
19871TIP3   OH281103   3.075   6.101  12.004 -0.1853  0.1642  0.0954
19871TIP3    H181104   3.086   6.186  12.048 -1.3263  0.4164 -0.0784
19871TIP3    H281105   3.122   6.039  12.060  2.5350  1.2272 -0.9119
19872TIP3   OH281106   2.850   2.934  15.576 -0.2138 -0.4796  0.1381
19872TIP3    H181107   2.782   2.931  15.644  0.4503  1.8131  0.9418
19872TIP3    H281108   2.932   2.939  15.625  0.2830  0.9575 -0.8147
19873TIP3   OH281109   2.312   6.816  11.421  0.1868  0.1971  0.3490
19873TIP3    H181110   2.399   6.833  11.384  0.0030 -0.0212 -0.1895
19873TIP3    H281111   2.256   6.884  11.382 -0.0399 -0.1309  0.0974
19874TIP3   OH281112   5.224   2.602  11.302  0.3894  0.3620  0.0311
19874TIP3    H181113   5.183   2.677  11.345 -3.1023 -0.7672 -1.1047
19874TIP3    H281114   5.308   2.635  11.270  0.9978  2.4816  3.5422
19875TIP3   OH281115   5.444   5.431  13.141  0.2666  0.0243 -0.2355
19875TIP3    H181116   5.482   5.483  13.212 -0.1847  1.3340 -0.9310
19875TIP3    H281117   5.350   5.434  13.157  0.2292 -0.4097 -0.3879
19876TIP3   OH281118   1.401   6.207  12.581 -0.4365  0.5343  0.6313
19876TIP3    H181119   1.341   6.282  12.580  0.8336  1.5959 -1.8283
19876TIP3    H281120   1.487   6.244  12.560 -0.2332 -1.8696 -3.5180
19877TIP3   OH281121   6.408   1.094  13.944 -0.1442 -0.6762 -0.0231
19877TIP3    H181122   6.499   1.101  13.915  0.3819 -0.1872  1.6829
19877TIP3    H281123   6.375   1.184  13.943 -1.1735 -1.0433 -2.3186
19878TIP3   OH281124   2.512   3.482   6.415 -0.0527 -0.0351  0.6838
19878TIP3    H181125   2.429   3.521   6.441  1.2297  1.8991  2.0223
19878TIP3    H281126   2.570   3.557   6.401  1.3759 -1.3385 -0.5742
19879TIP3   OH281127   1.595   2.054  12.653 -0.2216  0.1037 -0.1083
19879TIP3    H181128   1.613   1.960  12.653 -0.1348  0.1109 -0.9071
19879TIP3    H281129   1.512   2.063  12.698  0.5598 -0.1879  1.4305
19880TIP3   OH281130   6.318   5.065  13.723  0.1782 -0.1376  0.0976
19880TIP3    H181131   6.225   5.073  13.746  0.0291  0.6955 -0.7783
19880TIP3    H281132   6.327   4.975  13.691 -0.2285 -0.3557  0.5837
19881TIP3   OH281133   0.828   3.654   1.778 -0.8292 -0.2822  0.0984
19881TIP3    H181134   0.855   3.675   1.689  0.9178 -0.1977  0.6274
19881TIP3    H281135   0.804   3.562   1.775  0.1996 -0.5468 -0.2557
19882TIP3   OH281136   0.478   0.571   2.405  0.0096  0.7503  0.2216
19882TIP3    H181137   0.421   0.509   2.451  0.6898 -0.7659 -0.9562
19882TIP3    H281138   0.418   0.632   2.363 -0.6853  0.4500  0.7602
19883TIP3   OH281139   4.716   6.367   5.787  0.8152  0.4562 -0.0753
19883TIP3    H181140   4.700   6.297   5.850 -2.0623 -1.2514 -2.5777
19883TIP3    H281141   4.730   6.445   5.842  0.2122 -1.2901  2.6795
19884TIP3   OH281142   6.450   3.903  13.831  0.1682 -1.0277 -0.6855
19884TIP3    H181143   6.542   3.877  13.830  0.1571 -1.0924 -0.3406
19884TIP3    H281144   6.411   3.861  13.755  0.8218  0.4794 -1.8879
19885TIP3   OH281145   5.767   6.297   3.806  0.4418  0.1871 -0.1535
19885TIP3    H181146   5.842   6.283   3.747  1.9452  1.9806  1.2578
19885TIP3    H281147   5.806   6.297   3.893 -1.5490 -0.9269  0.7681
19886TIP3   OH281148   4.508   2.104   4.843  0.2522 -0.5837  0.4992
19886TIP3    H181149   4.423   2.101   4.887  0.1451 -0.9387  0.2729
19886TIP3    H281150   4.524   2.014   4.815 -0.3237 -0.1350 -1.3907
19887TIP3   OH281151   2.874   5.659  11.157  0.3263  0.1351  0.2812
19887TIP3    H181152   2.854   5.622  11.243 -0.2669  0.0230  0.0985
19887TIP3    H281153   2.839   5.595  11.095  1.7450 -0.3315 -0.0597
19888TIP3   OH281154   6.544   2.019  15.070 -0.3410  0.1339 -0.0070
19888TIP3    H181155   6.578   1.935  15.037  1.8848  1.0742 -0.1683
19888TIP3    H281156   6.573   2.022  15.161  0.4109  1.1517 -0.2742
19889TIP3   OH281157   5.627   2.741   4.242 -0.1317 -0.7288  0.8684
19889TIP3    H181158   5.568   2.724   4.169 -1.7853  2.0164  1.5030
19889TIP3    H281159   5.578   2.715   4.320 -0.8216  2.0849  1.4470
19890TIP3   OH281160   4.513   4.688  14.075 -0.4170 -0.3454  0.2346
19890TIP3    H181161   4.471   4.652  13.997 -1.0887  1.1039 -0.0970
19890TIP3    H281162   4.596   4.641  14.082 -0.4643 -0.6549 -1.2188
19891TIP3   OH281163   3.320   0.220   3.787 -0.4035  0.6910 -0.4807
19891TIP3    H181164   3.357   0.272   3.715  0.6073  0.1091 -0.3929
19891TIP3    H281165   3.394   0.201   3.843 -1.0243  0.3225  0.2210
19892TIP3   OH281166   4.616   3.122  16.812 -0.2654 -0.3813  0.1856
19892TIP3    H181167   4.569   3.101  16.893  1.0794  1.8475  1.5944
19892TIP3    H281168   4.663   3.042  16.790  0.0797 -0.7426  2.1308
19893TIP3   OH281169   0.989   6.242  15.314  0.2552  0.0759 -0.3168
19893TIP3    H181170   1.060   6.194  15.271  0.9846  1.7041 -0.9651
19893TIP3    H281171   0.909   6.202  15.280  0.8415  0.3380 -2.0598
19894TIP3   OH281172   2.368   2.860  14.263  0.1562 -0.1086 -0.2098
19894TIP3    H181173   2.346   2.894  14.176 -1.6109  1.2808  0.7391
19894TIP3    H281174   2.333   2.771  14.264 -0.8546  0.2826 -0.5157
19895TIP3   OH281175   5.476   0.846   1.360 -0.1920  0.3050 -0.0928
19895TIP3    H181176   5.409   0.777   1.358 -0.6117  0.6838  0.7771
19895TIP3    H281177   5.547   0.810   1.412 -0.1752  0.3204 -0.1056
19896TIP3   OH281178   4.285   3.975  14.882  0.4682  0.1831 -0.4390
19896TIP3    H181179   4.339   4.052  14.859  1.4927 -0.2277  0.5508
19896TIP3    H281180   4.250   3.945  14.798 -0.3674  2.0337 -0.7862
19897TIP3   OH281181   3.174   5.596   0.240  0.1281  0.0967  0.0323
19897TIP3    H181182   3.139   5.546   0.167  0.1527  2.6199 -1.7728
19897TIP3    H281183   3.268   5.603   0.221  0.6426 -1.5739  1.7715
19898TIP3   OH281184   4.806   3.255   0.472 -0.3050 -0.1430  0.2615
19898TIP3    H181185   4.824   3.222   0.560 -0.9167 -1.4682 -0.0910
19898TIP3    H281186   4.867   3.206   0.416 -1.3334 -0.7932 -0.2961
19899TIP3   OH281187   5.258   0.854  12.201 -0.6442  0.6528  0.1078
19899TIP3    H181188   5.308   0.798  12.141 -1.7053  1.1928 -1.3184
19899TIP3    H281189   5.288   0.943  12.181 -0.0937  0.7309  1.2750
19900TIP3   OH281190   5.503   3.222   5.048 -0.1721  0.1175 -0.1425
19900TIP3    H181191   5.480   3.171   4.971  0.6601 -1.2590  0.4995
19900TIP3    H281192   5.443   3.297   5.047 -1.3088 -0.7997 -1.1801
19901TIP3   OH281193   4.535   4.163  16.128  0.4977  0.5546 -0.1825
19901TIP3    H181194   4.466   4.177  16.063  2.7240  0.6686 -2.6155
19901TIP3    H281195   4.488   4.150  16.210 -2.4870 -1.2065 -2.0624
19902TIP3   OH281196   0.944   2.346   3.684  0.0176 -0.0073 -0.3516
19902TIP3    H181197   1.004   2.369   3.754 -1.8970 -0.1518  1.3799
19902TIP3    H281198   0.957   2.252   3.671 -0.3357 -0.1742  0.5031
19903TIP3   OH281199   4.098   0.755   2.225 -0.1837  0.4487 -0.4645
19903TIP3    H181200   4.054   0.760   2.140  0.7105 -0.1079 -0.9714
19903TIP3    H281201   4.086   0.664   2.252 -0.2535  0.5628 -0.1117
19904TIP3   OH281202   4.394   1.036   2.579 -0.1089 -0.2947  0.7738
19904TIP3    H181203   4.326   0.973   2.603  0.4371 -1.7089 -1.2901
19904TIP3    H281204   4.475   0.998   2.613 -0.1225  0.6603  1.9199
19905TIP3   OH281205   5.076   6.580   1.172  0.2783 -0.3628  0.1499
19905TIP3    H181206   4.983   6.564   1.188  0.7544 -1.7809  1.6203
19905TIP3    H281207   5.081   6.673   1.149 -1.6670 -0.6180 -1.3623
19906TIP3   OH281208   4.527   4.039  11.377 -0.0267 -0.5653  0.2757
19906TIP3    H181209   4.588   4.021  11.448 -0.9600 -0.8877  1.0063
19906TIP3    H281210   4.444   4.000  11.406 -0.5422 -0.2626 -0.7631
19907TIP3   OH281211   3.211   1.850  12.999  1.1388 -0.0190 -0.4183
19907TIP3    H181212   3.273   1.894  12.941 -0.5189 -0.3837 -2.5493
19907TIP3    H281213   3.163   1.920  13.043 -0.3708  0.3653 -2.5800
19908TIP3   OH281214   3.999   2.089  17.071  0.3303  0.0328 -0.2870
19908TIP3    H181215   4.031   2.003  17.044 -0.4517 -0.2233 -0.4174
19908TIP3    H281216   3.951   2.121  16.994 -1.1477 -0.3164  0.4625
19909TIP3   OH281217   3.364   3.135   2.725  0.1912  0.1572  0.1032
19909TIP3    H181218   3.375   3.212   2.670  1.4894  0.6583  1.0385
19909TIP3    H281219   3.269   3.120   2.726 -0.0859  1.8182  0.0125
19910TIP3   OH281220   5.084   4.604  12.636  0.0595 -0.1485  0.0516
19910TIP3    H181221   4.997   4.641  12.622  0.5580  0.3989 -1.7768
19910TIP3    H281222   5.140   4.680  12.654  0.0559 -0.5569  1.9123
19911TIP3   OH281223   1.737   0.698   0.781 -0.3045  0.2489 -0.2649
19911TIP3    H181224   1.680   0.666   0.851 -1.2970  0.5111 -0.9448
19911TIP3    H281225   1.761   0.620   0.732 -1.3060  0.3155 -0.8750
19912TIP3   OH281226   2.103   6.636   0.662  0.0534 -0.2969 -0.0396
19912TIP3    H181227   2.036   6.699   0.635 -0.0742 -0.7536 -0.7797
19912TIP3    H281228   2.076   6.610   0.750 -0.7378 -0.4662 -0.3290
19913TIP3   OH281229   6.511   0.600  14.481 -0.6459 -0.0279 -0.0775
19913TIP3    H181230   6.602   0.626  14.468 -0.5740 -0.0015  0.4665
19913TIP3    H281231   6.476   0.667  14.540 -0.7921 -0.4960  0.3675
19914TIP3   OH281232   2.343   6.129  17.145 -0.7599 -0.1492  0.1296
19914TIP3    H181233   2.325   6.173  17.063  3.3244 -1.4548 -1.5872
19914TIP3    H281234   2.326   6.036  17.127  1.0905 -0.5640  0.4013
19915TIP3   OH281235   3.349   5.395  16.778  0.0743  0.0063  0.1902
19915TIP3    H181236   3.426   5.449  16.798 -0.1783  0.2143  0.6160
19915TIP3    H281237   3.288   5.456  16.735  0.0698 -0.1055  0.0403
19916TIP3   OH281238   1.801   5.850  10.573  0.3796 -0.0308 -0.1616
19916TIP3    H181239   1.858   5.788  10.526  0.5973 -0.2608  0.3992
19916TIP3    H281240   1.852   5.931  10.577  1.0662 -0.5159  1.1741
19917TIP3   OH281241   4.625   1.342   4.203  0.4654 -0.5709  0.5086
19917TIP3    H181242   4.667   1.337   4.117  0.2273  0.3763  0.3276
19917TIP3    H281243   4.541   1.385   4.186 -0.2003 -1.6569  1.0054
19918TIP3   OH281244   2.438   3.784  12.028  0.2700 -0.2106  0.2609
19918TIP3    H181245   2.461   3.829  11.947  0.0494  0.7374  0.7200
19918TIP3    H281246   2.477   3.697  12.019  1.0659  0.2147 -0.4495
19919TIP3   OH281247   1.468   4.825  14.485 -0.1444  0.1304 -0.5459
19919TIP3    H181248   1.455   4.781  14.401 -1.8861 -0.3781 -0.0088
19919TIP3    H281249   1.519   4.763  14.537 -0.7897 -0.3855 -0.5269
19920TIP3   OH281250   1.979   3.305  15.198 -0.3082  0.2592  0.3381
19920TIP3    H181251   2.056   3.274  15.149 -0.2058  1.1522 -0.0941
19920TIP3    H281252   1.974   3.248  15.274 -0.6113 -1.3172 -0.8518
19921TIP3   OH281253   1.070   4.119   0.048  0.0511  0.1188 -0.4374
19921TIP3    H181254   1.134   4.128  -0.022 -1.4085  0.1793 -1.7952
19921TIP3    H281255   1.082   4.030   0.080  2.4967  0.9345  1.0360
19922TIP3   OH281256   0.688   6.253  12.155 -1.0379  0.4079 -0.4255
19922TIP3    H181257   0.623   6.305  12.202 -1.4772  0.5343 -1.1630
19922TIP3    H281258   0.695   6.172  12.205 -1.3173  0.6424 -0.0041
19923TIP3   OH281259   1.826   3.250   1.923  0.3263 -0.4593  0.0022
19923TIP3    H181260   1.841   3.157   1.909  0.3045 -0.6537  1.2642
19923TIP3    H281261   1.770   3.276   1.849 -1.1082 -1.8282  0.5665
19924TIP3   OH281262   6.378   0.065  16.673  0.7843 -0.2753  0.0133
19924TIP3    H181263   6.396  -0.011  16.618  2.6066 -0.8339  1.3190
19924TIP3    H281264   6.362   0.028  16.760  1.4078  0.8121  0.5983
19925TIP3   OH281265   4.319   5.572  16.743 -0.6502 -0.2515 -0.0869
19925TIP3    H181266   4.304   5.523  16.824  0.0545  0.5142  0.5070
19925TIP3    H281267   4.356   5.507  16.683 -0.7035 -0.7000  0.3590
19926TIP3   OH281268   0.099   5.404   3.478 -0.0635  0.2110 -0.4399
19926TIP3    H181269   0.052   5.485   3.457  1.9090  1.4138 -0.3359
19926TIP3    H281270   0.114   5.362   3.393 -0.3789  0.3509 -0.5646
19927TIP3   OH281271   3.702   5.524   0.368 -0.4790 -0.1282 -0.8175
19927TIP3    H181272   3.782   5.504   0.319 -0.5788 -3.0452  0.0943
19927TIP3    H281273   3.633   5.475   0.323 -1.3908  0.7931 -0.4331
19928TIP3   OH281274   1.686   2.443  13.553  0.2193  0.1917 -0.0922
19928TIP3    H181275   1.681   2.538  13.565  0.3448  0.0631  1.0422
19928TIP3    H281276   1.725   2.432  13.466  0.5835  1.1788 -0.0597
19929TIP3   OH281277   2.590   0.659   4.704 -0.0110  0.9046  0.2739
19929TIP3    H181278   2.608   0.625   4.616  0.2041  1.3303  0.1528
19929TIP3    H281279   2.606   0.753   4.697  0.3258  0.8932  0.8517
19930TIP3   OH281280   4.478   0.735   4.793 -0.3534  0.3634  0.1824
19930TIP3    H181281   4.417   0.772   4.857 -1.6551 -1.1140 -0.1905
19930TIP3    H281282   4.491   0.644   4.822 -0.6238 -0.1931 -1.3941
19931TIP3   OH281283   1.942   1.707   1.279 -0.7333 -0.4617 -0.1820
19931TIP3    H181284   1.914   1.695   1.369  0.5999  0.6662  0.4022
19931TIP3    H281285   1.944   1.802   1.267 -0.5639 -0.5952 -1.2908
19932TIP3   OH281286   6.488   0.345  16.330  0.3155  0.4784 -0.3196
19932TIP3    H181287   6.534   0.310  16.407  0.5680 -1.0224 -1.1392
19932TIP3    H281288   6.529   0.300  16.256 -1.4505  0.2651 -1.1671
19933TIP3   OH281289   5.819   5.395   2.947  0.0961 -0.0192  0.5433
19933TIP3    H181290   5.882   5.406   2.875 -0.9763 -0.5684 -0.5037
19933TIP3    H281291   5.850   5.319   2.995  1.5807  1.1562  1.4806
19934TIP3   OH281292   1.245   0.730  14.229 -0.5880 -0.0102 -0.3808
19934TIP3    H181293   1.199   0.690  14.155 -0.2746  0.3019 -0.7489
19934TIP3    H281294   1.315   0.781  14.188  0.3883 -0.8653  0.1948
19935TIP3   OH281295   2.330   1.812  12.864 -0.7320 -0.5619 -0.3278
19935TIP3    H181296   2.424   1.806  12.880 -0.4523 -0.0552 -1.7692
19935TIP3    H281297   2.307   1.902  12.888 -0.6304 -0.3372 -1.0498
19936TIP3   OH281298   5.693   5.287   4.696  0.1104  0.2753  0.0682
19936TIP3    H181299   5.738   5.366   4.666  0.4647 -0.6247 -1.8575
19936TIP3    H281300   5.757   5.217   4.685  0.0856 -0.1728  2.5662
19937TIP3   OH281301   5.812   3.442   4.112  0.1318 -0.0421 -0.8891
19937TIP3    H181302   5.775   3.520   4.071 -1.3859  0.1232  0.7244
19937TIP3    H281303   5.900   3.435   4.077 -0.3084  1.4508 -2.3155
19938TIP3   OH281304   5.639   1.016  15.878  0.3286  0.5469  0.5196
19938TIP3    H181305   5.565   1.024  15.938  0.3013  0.2106  0.5318
19938TIP3    H281306   5.644   0.922  15.859  0.4279  0.6379  0.1080
19939TIP3   OH281307   1.227   1.481  16.426  0.4611  0.9283  0.3324
19939TIP3    H181308   1.192   1.547  16.486  0.3218  0.0717  1.2067
19939TIP3    H281309   1.154   1.422  16.410  0.5315  1.0877 -0.5956
19940TIP3   OH281310   6.427   0.289  14.704 -0.8832  0.4004 -0.0029
19940TIP3    H181311   6.416   0.320  14.614  1.0700 -0.1391 -0.4439
19940TIP3    H281312   6.442   0.368  14.756  2.0048  0.4216 -0.7959
19941TIP3   OH281313   2.819   1.149   3.938 -0.5269 -0.3840  0.0067
19941TIP3    H181314   2.831   1.161   4.032 -1.2971 -0.6081  0.1363
19941TIP3    H281315   2.732   1.111   3.929 -0.7031  0.2023 -0.8383
19942TIP3   OH281316   6.050   3.478   5.505 -0.4372  0.1960 -0.1189
19942TIP3    H181317   5.972   3.532   5.488 -1.3898 -0.3265  2.3750
19942TIP3    H281318   6.091   3.519   5.582  1.3212 -0.0047 -0.9340
19943TIP3   OH281319   0.906   6.625   5.066  0.1034  0.4932  0.3256
19943TIP3    H181320   0.970   6.696   5.072 -1.5483  1.8417  3.0880
19943TIP3    H281321   0.831   6.665   5.021 -0.3636  0.1326  0.7815
19944TIP3   OH281322   5.839   0.493  15.304 -0.1314 -0.1517 -0.5130
19944TIP3    H181323   5.886   0.465  15.382 -0.2487 -1.4785 -0.9127
19944TIP3    H281324   5.827   0.587  15.316 -0.3416 -0.3766  1.1810
19945TIP3   OH281325   3.116   5.354  17.099 -0.1621 -0.6004 -0.4064
19945TIP3    H181326   3.177   5.410  17.148 -0.2818  1.3818 -2.4354
19945TIP3    H281327   3.173   5.296  17.049 -0.0382 -2.5012  1.8502
19946TIP3   OH281328   5.127   6.493  12.563  0.3163  0.7758 -0.4457
19946TIP3    H181329   5.094   6.409  12.532  2.2416 -0.1802  0.0398
19946TIP3    H281330   5.056   6.528  12.617 -0.6527 -0.3476 -0.9842
19947TIP3   OH281331   1.744   1.242  13.554  0.9544 -0.4392 -0.0739
19947TIP3    H181332   1.713   1.244  13.464 -0.3074 -2.4788  0.2818
19947TIP3    H281333   1.686   1.303  13.601  1.6572  0.6752 -0.6355
19948TIP3   OH281334   5.814   2.542  15.047  1.1588 -0.3250 -0.4184
19948TIP3    H181335   5.778   2.460  15.011 -1.1314 -0.3831  1.8753
19948TIP3    H281336   5.780   2.546  15.136  3.3402  1.8846  0.3600
19949TIP3   OH281337   1.007   3.965   6.138 -0.3045 -0.1590 -0.1695
19949TIP3    H181338   1.053   4.049   6.138  1.3395 -1.0320 -0.3829
19949TIP3    H281339   1.066   3.906   6.091 -0.8222 -1.7589  1.1318
19950TIP3   OH281340   2.498   1.618   0.930  0.2938 -0.3275  0.2395
19950TIP3    H181341   2.498   1.584   1.020  0.0606 -0.8689  0.0378
19950TIP3    H281342   2.459   1.547   0.878  2.1487 -0.7709 -0.5796
19951TIP3   OH281343   1.146   0.957   4.225 -0.1000 -0.2694  0.2412
19951TIP3    H181344   1.133   0.954   4.130  0.2129  1.3106  0.1274
19951TIP3    H281345   1.082   1.022   4.256  0.7531  0.2543  0.9260
19952TIP3   OH281346   4.097   6.230   3.616 -0.1596 -0.2910 -0.4791
19952TIP3    H181347   4.162   6.167   3.645  1.3312  1.7624  0.7608
19952TIP3    H281348   4.023   6.177   3.585  0.5070 -2.5876  1.7829
19953TIP3   OH281349   5.485   3.981   5.403  0.1639 -0.8331  0.1701
19953TIP3    H181350   5.518   3.983   5.314  0.6725 -0.4655  0.3661
19953TIP3    H281351   5.394   3.951   5.394  0.3692 -1.2956 -0.4187
19954TIP3   OH281352   2.110   5.842   1.235  0.0931  0.1768  0.2906
19954TIP3    H181353   2.152   5.928   1.246  2.3767 -0.6429 -1.7126
19954TIP3    H281354   2.181   5.783   1.211 -1.9995 -1.5403 -1.9362
19955TIP3   OH281355   1.627   2.671   0.063 -0.0969  0.4323  0.3737
19955TIP3    H181356   1.629   2.724  -0.017 -0.5007  0.4857  0.3993
19955TIP3    H281357   1.655   2.732   0.132 -4.3906  1.7761  1.0639
19956TIP3   OH281358   2.633   3.989  13.902 -0.4530 -0.1077 -0.3891
19956TIP3    H181359   2.655   4.081  13.911  2.0012 -0.6732 -0.1197
19956TIP3    H281360   2.716   3.946  13.881 -1.1351 -2.5251  1.5111
19957TIP3   OH281361   6.172   1.732   5.685  0.4062  0.4661 -0.8942
19957TIP3    H181362   6.161   1.735   5.780 -0.7283  1.0422 -1.0395
19957TIP3    H281363   6.266   1.746   5.671  0.3116  2.2028  0.0592
19958TIP3   OH281364   5.323   2.510   2.671  0.0691 -0.7328 -0.2196
19958TIP3    H181365   5.270   2.489   2.594  0.1074 -0.0919 -0.4275
19958TIP3    H281366   5.267   2.489   2.745 -0.5202  0.0530 -0.4386
19959TIP3   OH281367   3.083   1.973  16.412  0.0623  0.0387 -0.0264
19959TIP3    H181368   3.140   1.904  16.444  1.2806  0.0072 -2.1497
19959TIP3    H281369   3.131   2.054  16.429 -0.4440  0.2185  0.5783
19960TIP3   OH281370   1.784   4.763  13.459 -0.0966 -0.2619  0.6628
19960TIP3    H181371   1.708   4.814  13.431 -0.1334 -2.1996 -3.1774
19960TIP3    H281372   1.850   4.781  13.392  0.9548 -2.7911  0.9778
19961TIP3   OH281373   5.986   0.895   3.630 -0.1373  0.6636 -0.3720
19961TIP3    H181374   6.047   0.961   3.664  1.0974  0.1014 -1.4524
19961TIP3    H281375   5.934   0.869   3.707  1.2027  0.9104  0.6442
19962TIP3   OH281376   0.702   6.075   1.619  0.6556 -0.2731  0.2609
19962TIP3    H181377   0.634   6.008   1.623 -0.3532  0.6970 -0.5210
19962TIP3    H281378   0.701   6.105   1.528  1.8882 -0.0034  0.3308
19963TIP3   OH281379   3.715   2.315   3.732 -0.3174  0.3933 -0.1491
19963TIP3    H181380   3.753   2.336   3.647 -1.9890  1.0807 -0.7634
19963TIP3    H281381   3.621   2.304   3.714 -0.4846 -0.8580  1.3621
19964TIP3   OH281382   6.542   2.302  15.385 -0.0991 -0.3089 -0.3414
19964TIP3    H181383   6.521   2.212  15.360  1.6744 -0.8918  0.1612
19964TIP3    H281384   6.459   2.350  15.377 -1.0692 -1.9933 -0.5647
19965TIP3   OH281385   0.306   3.709  13.369  0.5523 -0.2739  0.0582
19965TIP3    H181386   0.370   3.767  13.328 -1.7146  2.4475  0.2364
19965TIP3    H281387   0.261   3.667  13.296 -0.3092  1.0219 -0.1667
19966TIP3   OH281388   0.497   1.728   3.737 -0.0734  0.2562 -0.3060
19966TIP3    H181389   0.473   1.650   3.688 -0.5445  0.3940 -0.2927
19966TIP3    H281390   0.432   1.793   3.712 -0.2418  0.3612  0.4184
19967TIP3   OH281391   1.831   4.054  14.990 -0.2932  0.5633 -0.3735
19967TIP3    H181392   1.793   3.966  14.981 -0.0842 -0.0258  3.6481
19967TIP3    H281393   1.873   4.071  14.906 -0.3846 -3.1882 -1.2553
19968TIP3   OH281394   1.679   2.459  11.463 -0.2458 -0.6620 -0.3452
19968TIP3    H181395   1.636   2.542  11.444  1.5313  0.3071 -0.2525
19968TIP3    H281396   1.612   2.393  11.449 -1.3182  0.6910 -1.6627
19969TIP3   OH281397   2.243   3.638  12.646 -0.1354 -0.5084  0.3722
19969TIP3    H181398   2.303   3.712  12.654 -1.2979  0.7062 -1.5774
19969TIP3    H281399   2.300   3.561  12.643  1.2494  0.5025  0.0668
19970TIP3   OH281400   0.556   2.546   2.249 -0.4178  0.3521  0.3196
19970TIP3    H181401   0.548   2.641   2.250  0.4404  0.4330  1.0620
19970TIP3    H281402   0.649   2.531   2.232 -0.6668 -0.3635 -0.4095
19971TIP3   OH281403   2.743   6.733   3.456 -0.3420 -0.2617 -0.5740
19971TIP3    H181404   2.719   6.656   3.405  0.7466  0.8678 -2.8792
19971TIP3    H281405   2.837   6.742   3.444 -0.7067  2.4064 -1.8095
19972TIP3   OH281406   5.348   0.648  11.082 -0.0251 -0.2441  0.1588
19972TIP3    H181407   5.348   0.566  11.131  1.1713  0.2011  0.9105
19972TIP3    H281408   5.440   0.671  11.072 -0.3112  0.4537 -0.9868
19973TIP3   OH281409   0.986   3.309   1.735 -0.3035  0.0831  0.2896
19973TIP3    H181410   0.959   3.331   1.824 -0.4252 -1.2626  0.5958
19973TIP3    H281411   0.911   3.334   1.681 -0.0278  1.3764  0.4952
19974TIP3   OH281412   1.075   5.422  12.059  0.1033  0.3847 -0.7481
19974TIP3    H181413   1.131   5.475  12.002  0.8071  0.6021  0.1309
19974TIP3    H281414   1.125   5.342  12.074 -0.7275 -0.3103 -1.6347
19975TIP3   OH281415   2.342   1.796   4.820  1.0968 -0.3403  0.0718
19975TIP3    H181416   2.435   1.777   4.828  1.2292  0.8590  1.6843
19975TIP3    H281417   2.326   1.867   4.882 -1.0660 -1.1057  0.4519
19976TIP3   OH281418   2.184   3.311   0.238 -0.8178  0.6438  0.5064
19976TIP3    H181419   2.228   3.273   0.162  0.6821  0.1312  1.6075
19976TIP3    H281420   2.216   3.401   0.242 -0.5759  0.5473  0.7675
19977TIP3   OH281421   1.372   5.495   5.869  0.2867 -0.0410  0.4515
19977TIP3    H181422   1.388   5.588   5.848 -1.6253  0.4524  1.1296
19977TIP3    H281423   1.369   5.452   5.783 -1.4615  0.9739 -0.0185
19978TIP3   OH281424   1.816   0.829  12.310 -0.2328  0.1864  0.0093
19978TIP3    H181425   1.881   0.852  12.376 -0.7056 -0.8592  0.8534
19978TIP3    H281426   1.790   0.913  12.272 -0.9184  0.9411  2.0635
19979TIP3   OH281427   4.319   5.296  11.210  0.3380  0.0889 -0.2829
19979TIP3    H181428   4.243   5.261  11.256 -0.3455 -0.3261 -1.7037
19979TIP3    H281429   4.312   5.261  11.121  0.5887  2.4023 -1.2516
19980TIP3   OH281430   3.441   3.110  15.496  0.4429 -0.1039 -0.5641
19980TIP3    H181431   3.471   3.201  15.494 -0.7711  0.3888  1.8490
19980TIP3    H281432   3.365   3.108  15.438  0.2478  0.5133 -0.3359
19981TIP3   OH281433   0.056   3.210  15.564  0.4627  0.3737 -0.1208
19981TIP3    H181434   0.073   3.226  15.471 -0.4672  0.5676 -0.2620
19981TIP3    H281435   0.102   3.129  15.584  2.6696  1.5775 -0.1670
19982TIP3   OH281436   1.880   0.266   4.067 -0.2430  0.6310 -0.0389
19982TIP3    H181437   1.823   0.227   4.001 -1.2115  0.2071  1.0284
19982TIP3    H281438   1.941   0.196   4.090 -0.0775  0.6936 -0.2842
19983TIP3   OH281439   0.936   6.715  16.789  0.2860  0.6237 -0.5443
19983TIP3    H181440   0.981   6.736  16.706  2.2805  0.2536  0.4125
19983TIP3    H281441   0.914   6.622  16.782  2.0387  0.1470  0.0400
19984TIP3   OH281442   0.314   0.166  13.665  0.3228  0.1204  0.3892
19984TIP3    H181443   0.317   0.170  13.570 -0.8064 -0.9970  0.2860
19984TIP3    H281444   0.296   0.074  13.685  0.4241  0.3650  1.6686
19985TIP3   OH281445   1.159   5.399  13.622  0.6294  0.3688  0.0701
19985TIP3    H181446   1.215   5.363  13.691  1.2635  0.6495 -0.2921
19985TIP3    H281447   1.081   5.344  13.623  0.9110 -0.0221  0.5853
19986TIP3   OH281448   4.182   5.713   5.667 -0.5041 -0.1020  0.3958
19986TIP3    H181449   4.138   5.656   5.604 -0.7256  1.1486 -0.5920
19986TIP3    H281450   4.111   5.741   5.726 -1.2526  2.6352 -1.7344
19987TIP3   OH281451   3.077   3.204  14.789  0.1537 -0.0648  0.1206
19987TIP3    H181452   3.104   3.224  14.879  1.4187 -2.3473  0.2936
19987TIP3    H281453   3.150   3.153  14.754 -0.2480  0.9734 -2.2884
19988TIP3   OH281454   2.490   3.848  16.048  0.1528  0.0093  0.3435
19988TIP3    H181455   2.512   3.923  16.103  2.3883 -0.1371 -0.3245
19988TIP3    H281456   2.573   3.805  16.031 -0.3869  0.3157 -3.5665
19989TIP3   OH281457   2.493   1.967  15.687  0.0896  0.1262  0.0991
19989TIP3    H181458   2.516   1.968  15.594 -0.1122  0.4217  0.0520
19989TIP3    H281459   2.489   1.874  15.710  0.2020  0.0551 -0.1727
19990TIP3   OH281460   6.263   1.441  14.916  0.1831 -0.2370  0.2261
19990TIP3    H181461   6.345   1.413  14.957 -0.3603 -2.1213  0.0317
19990TIP3    H281462   6.235   1.516  14.969  2.0510  0.5011  0.2435
19991TIP3   OH281463   3.216   4.604   5.720 -0.1245  0.0127 -0.1053
19991TIP3    H181464   3.300   4.611   5.765 -0.2851  1.8687 -0.0538
19991TIP3    H281465   3.237   4.612   5.627 -0.2014  0.2562 -0.1047
19992TIP3   OH281466   4.453   3.495   0.774  0.2288 -0.2760 -0.3159
19992TIP3    H181467   4.499   3.574   0.747 -0.2257 -0.2253 -0.9583
19992TIP3    H281468   4.377   3.490   0.716  0.1066 -1.0343 -0.1047
19993TIP3   OH281469   6.714   6.390  10.788  0.1854  0.1996  0.2781
19993TIP3    H181470   6.683   6.468  10.741  1.2540  0.6463  0.2912
19993TIP3    H281471   6.782   6.424  10.847  1.1305 -0.8397 -0.2049
19994TIP3   OH281472   2.970   3.381   3.350 -0.4605  0.8388  0.3386
19994TIP3    H181473   3.011   3.406   3.267 -0.6499  2.1336  0.6276
19994TIP3    H281474   3.043   3.368   3.410 -0.2469 -1.3534 -0.3428
19995TIP3   OH281475   5.914   1.782   4.897  0.3638  0.1320 -0.0013
19995TIP3    H181476   5.959   1.819   4.973 -0.7173  0.7003  0.3652
19995TIP3    H281477   5.958   1.698   4.882 -0.0918 -0.4783  1.8906
19996TIP3   OH281478   0.784   1.830   1.739  0.2619 -0.0833 -0.1284
19996TIP3    H181479   0.805   1.770   1.811 -0.7537 -0.4977 -0.1787
19996TIP3    H281480   0.696   1.862   1.758  0.2859  0.3948 -0.7853
19997TIP3   OH281481   5.957   1.319  11.472  0.0614 -0.4128  0.1990
19997TIP3    H181482   5.929   1.380  11.541 -0.6949 -1.7398  1.1010
19997TIP3    H281483   5.907   1.345  11.395 -0.6157 -0.1893  0.7073
19998TIP3   OH281484   1.204   0.775   5.337  0.2094  0.1466  0.0107
19998TIP3    H181485   1.139   0.831   5.296 -0.4651 -1.2635 -0.8812
19998TIP3    H281486   1.215   0.702   5.276  1.3974 -0.4657  0.9334
19999TIP3   OH281487   0.920   1.121   1.896  0.5938 -0.6501  0.4848
19999TIP3    H181488   0.826   1.117   1.917  0.1073 -1.9532 -1.7254
19999TIP3    H281489   0.956   1.185   1.957 -2.6824  3.8311 -2.0217
20000TIP3   OH281490   5.133   4.470   0.723  0.0012 -0.0596 -0.0371
20000TIP3    H181491   5.106   4.511   0.641  0.5011 -1.3044 -0.8415
20000TIP3    H281492   5.222   4.502   0.738 -0.2298  0.4658  0.2243
20001TIP3   OH281493   1.906   1.132   1.750  0.5690  0.5173 -0.0345
20001TIP3    H181494   1.850   1.164   1.821 -1.4059  0.2501 -1.4370
20001TIP3    H281495   1.953   1.058   1.788  1.3487  1.8646  1.6975
20002TIP3   OH281496   4.301   4.679   5.882 -0.1483 -0.5892  0.7471
20002TIP3    H181497   4.223   4.625   5.885 -0.5610  0.0157  1.0825
20002TIP3    H281498   4.269   4.769   5.888  0.5557 -0.3206  0.6522
20003TIP3   OH281499   6.584   0.566  13.767 -0.2083  0.1880 -0.0590
20003TIP3    H181500   6.528   0.499  13.807 -0.1621  1.3627  2.0981
20003TIP3    H281501   6.523   0.628  13.728 -0.3662  0.3610  0.4494
20004TIP3   OH281502   1.073   5.098   3.424  0.1241  0.0789 -0.7819
20004TIP3    H181503   1.136   5.062   3.487 -0.1426  0.8493 -0.0622
20004TIP3    H281504   0.989   5.058   3.450 -0.2288  1.4365  0.2128
20005TIP3   OH281505   6.429   1.761   3.493 -1.0888 -0.6246 -0.3187
20005TIP3    H181506   6.494   1.744   3.424 -1.0012 -0.3958 -0.2924
20005TIP3    H281507   6.398   1.674   3.518 -3.2684 -0.5885 -2.7258
20006TIP3   OH281508   1.192   6.695   0.405  0.1537  0.2039 -0.2948
20006TIP3    H181509   1.184   6.761   0.335 -1.5812 -0.1690 -0.4594
20006TIP3    H281510   1.255   6.631   0.370 -0.3983  0.2300 -1.3508
20007TIP3   OH281511   1.762   0.536   1.456  0.1064 -0.2576  0.0136
20007TIP3    H181512   1.856   0.552   1.458  0.3926 -1.5419 -1.7980
20007TIP3    H281513   1.738   0.541   1.364 -1.9462  1.8071  0.5921
20008TIP3   OH281514   0.105   4.109   1.813 -0.7328  0.3624 -0.0483
20008TIP3    H181515   0.149   4.116   1.898 -0.4608  1.4470 -0.2723
20008TIP3    H281516   0.027   4.164   1.821  0.9217  3.0492 -1.5115
20009TIP3   OH281517   4.606   5.103  14.971 -0.0113  0.1038  0.5276
20009TIP3    H181518   4.665   5.112  14.896 -0.3902 -1.2727  0.0477
20009TIP3    H281519   4.621   5.014  15.003 -3.5770 -1.2222 -1.1500
20010TIP3   OH281520   1.042   6.476   4.846  0.0986 -0.7665 -0.1207
20010TIP3    H181521   1.007   6.393   4.812  2.8698 -2.2356  0.4856
20010TIP3    H281522   0.974   6.508   4.906 -0.9146 -2.7192 -0.1902
20011TIP3   OH281523   6.369   3.234   2.274 -0.0143 -0.7915  0.4436
20011TIP3    H181524   6.375   3.318   2.229  0.2940 -0.0320  1.8683
20011TIP3    H281525   6.278   3.207   2.263 -0.0752 -0.3409 -0.1596
20012TIP3   OH281526   4.736   6.347   5.106 -0.3187 -0.2468  0.3835
20012TIP3    H181527   4.677   6.414   5.071 -0.4026 -1.0452 -1.0218
20012TIP3    H281528   4.729   6.274   5.045  0.7801 -1.0361  1.1813
20013TIP3   OH281529   4.460   4.167   4.431 -0.0125 -0.4671 -0.3080
20013TIP3    H181530   4.467   4.236   4.365  0.8710 -0.4264 -0.1836
20013TIP3    H281531   4.479   4.086   4.383  1.5833 -0.3385  0.0753
20014TIP3   OH281532   6.582   3.082  16.476  0.0331 -0.2266 -0.4814
20014TIP3    H181533   6.575   2.991  16.445 -0.0458 -0.0635 -0.9505
20014TIP3    H281534   6.500   3.099  16.521 -0.9798  0.3862 -2.4796
20015TIP3   OH281535   6.478   2.171  15.900  0.0140  0.1861 -0.3394
20015TIP3    H181536   6.450   2.095  15.952  2.1116 -0.0132  0.5384
20015TIP3    H281537   6.529   2.134  15.829 -0.1698  0.6874 -0.7343
20016TIP3   OH281538   6.237   1.115  13.665  0.2033 -0.6113  0.2340
20016TIP3    H181539   6.205   1.094  13.752 -1.0103  1.3777  0.3141
20016TIP3    H281540   6.293   1.192  13.678 -0.3757  0.0002 -0.7768
20017TIP3   OH281541   2.336   4.323  11.927 -0.0683 -0.9025 -0.8685
20017TIP3    H181542   2.240   4.315  11.922 -0.0979 -0.2874 -1.2264
20017TIP3    H281543   2.362   4.361  11.844  0.3479  0.3148 -0.1892
20018TIP3   OH281544   4.521   4.483   3.694 -0.1796  0.7939  0.6768
20018TIP3    H181545   4.441   4.453   3.736 -1.4013  2.2790 -0.4865
20018TIP3    H281546   4.555   4.406   3.648 -1.5931  0.4374  0.2075
20019TIP3   OH281547   3.302   1.003  16.908 -0.4294  0.6214  0.2172
20019TIP3    H181548   3.365   0.932  16.920  0.7656  1.6657  0.1830
20019TIP3    H281549   3.316   1.060  16.984 -0.5472  1.4414 -0.3696
20020TIP3   OH281550   2.271   1.528   4.963  0.3770 -0.1823 -0.5429
20020TIP3    H181551   2.256   1.619   4.935  2.3224  0.9075  1.7197
20020TIP3    H281552   2.347   1.500   4.911 -1.9482 -1.5960 -3.3523
20021TIP3   OH281553   4.920   3.824   5.008  0.3604  0.4966  0.3199
20021TIP3    H181554   4.995   3.877   5.036 -0.1932  0.8861  1.0690
20021TIP3    H281555   4.888   3.784   5.089 -1.8539  2.3924  0.4461
20022TIP3   OH281556   0.194   6.517  12.973  0.6202  0.1112  0.3754
20022TIP3    H181557   0.221   6.604  13.002  1.1400  0.7265 -1.8444
20022TIP3    H281558   0.117   6.533  12.918 -0.7975 -1.0878  1.9382
20023TIP3   OH281559   4.048   5.680  14.345 -0.6885 -0.3744 -0.4470
20023TIP3    H181560   4.060   5.643  14.258 -1.2518  1.4059 -1.3051
20023TIP3    H281561   3.953   5.682  14.358 -0.6259 -0.1921  0.0092
20024TIP3   OH281562   6.054   4.244   6.542  0.1195 -0.1933 -0.0571
20024TIP3    H181563   5.969   4.220   6.578  0.3165 -1.1261 -0.2219
20024TIP3    H281564   6.088   4.164   6.503  1.5811 -0.1258  1.0214
20025TIP3   OH281565   6.169   2.980  15.871  0.3051  0.6061 -0.3488
20025TIP3    H181566   6.209   2.982  15.958 -0.1447 -0.9423 -0.0936
20025TIP3    H281567   6.229   3.030  15.816  0.2749  2.1405  0.9739
20026TIP3   OH281568   0.110   3.664  16.945  0.0668  0.2210  0.2893
20026TIP3    H181569   0.150   3.595  16.893  0.9146  0.4947  0.5711
20026TIP3    H281570   0.173   3.736  16.942 -0.6447  0.8502  0.2977
20027TIP3   OH281571   4.220   1.089   5.252  0.3586 -0.0946 -0.3295
20027TIP3    H181572   4.187   1.097   5.163 -0.0797  1.4574 -0.0496
20027TIP3    H281573   4.215   1.178   5.287 -1.3112 -1.0189  1.8912
20028TIP3   OH281574   1.347   0.964   1.766 -0.0910 -0.3397  0.1328
20028TIP3    H181575   1.283   0.953   1.837  1.1658  1.2304  1.5639
20028TIP3    H281576   1.427   0.994   1.811  1.0474 -0.3648 -1.8380
20029TIP3   OH281577   5.902   0.140   5.502  0.8344 -0.5584  0.5640
20029TIP3    H181578   5.860   0.056   5.484 -0.5815  0.3174 -0.3232
20029TIP3    H281579   5.829   0.199   5.526  1.5704  0.8787 -0.6173
20030TIP3   OH281580   6.473   0.624  11.312  0.4054 -0.1724  0.0542
20030TIP3    H181581   6.411   0.693  11.337 -0.2385 -0.4396 -0.7645
20030TIP3    H281582   6.461   0.615  11.217  1.4465 -0.4799 -0.0571
20031TIP3   OH281583   3.057   4.748  14.231  0.2702  0.1610  0.3561
20031TIP3    H181584   3.080   4.664  14.192  0.9761 -0.6721  2.5065
20031TIP3    H281585   3.138   4.799  14.231  0.1859  0.2980  0.3962
20032TIP3   OH281586   6.350   4.992  15.153  0.1205 -0.0987  0.4939
20032TIP3    H181587   6.370   5.063  15.092 -0.6040 -0.2288  0.0962
20032TIP3    H281588   6.408   5.007  15.228 -0.9182  1.6761  0.9801
20033TIP3   OH281589   5.593   5.051   0.657  0.3242  0.2083  0.2504
20033TIP3    H181590   5.520   4.998   0.690  0.9527 -1.9327 -1.7087
20033TIP3    H281591   5.650   5.064   0.733 -2.0596  1.9380  1.8256
20034TIP3   OH281592   1.790   1.897   2.434  0.5353 -0.1942 -0.3610
20034TIP3    H181593   1.744   1.981   2.439 -0.2775 -0.7368  1.8312
20034TIP3    H281594   1.873   1.912   2.479  1.4544  0.0903 -2.1174
20035TIP3   OH281595   4.213   2.794   5.403  0.3019 -0.2170 -0.2203
20035TIP3    H181596   4.271   2.867   5.380 -0.7077  0.7460  0.2643
20035TIP3    H281597   4.270   2.733   5.449  0.2798  2.2730  3.3378
20036TIP3   OH281598   0.718   5.429  10.540 -0.2934  0.0497  0.0636
20036TIP3    H181599   0.770   5.505  10.515 -1.0616  0.1072 -1.3892
20036TIP3    H281600   0.754   5.402  10.625 -1.7552  3.6766  1.9564
20037TIP3   OH281601   4.711   6.589   4.323 -0.2177  0.4363  0.2959
20037TIP3    H181602   4.691   6.502   4.358  0.5045  0.5212  0.9472
20037TIP3    H281603   4.801   6.582   4.291 -0.6769  0.5294 -1.0368
20038TIP3   OH281604   2.020   1.841  13.358  0.0329  0.2141  0.2955
20038TIP3    H181605   2.053   1.794  13.281 -0.4065  1.7590 -0.8548
20038TIP3    H281606   2.010   1.773  13.425 -0.2585 -1.2769 -1.2329
20039TIP3   OH281607   5.122   4.415  10.859  0.4899 -0.1992 -0.3304
20039TIP3    H181608   5.055   4.356  10.896 -0.9575  0.6968 -1.4589
20039TIP3    H281609   5.185   4.428  10.930 -1.9755  1.1213  1.6875
20040TIP3   OH281610   5.806   5.380  14.387 -0.4616  0.0636 -0.4555
20040TIP3    H181611   5.790   5.316  14.318 -0.4266  1.0619 -1.3982
20040TIP3    H281612   5.744   5.357  14.456 -1.1249 -0.3868 -1.1929
20041TIP3   OH281613   3.105   4.016  11.579 -0.1458 -0.4420 -0.2562
20041TIP3    H181614   3.022   4.052  11.548  0.4022  1.7395  0.7075
20041TIP3    H281615   3.093   4.008  11.674  0.8425  0.1627 -0.0751
20042TIP3   OH281616   4.809   6.639   4.964  0.0355  0.1639 -0.1840
20042TIP3    H181617   4.854   6.683   4.893 -2.0965  0.3447 -1.4653
20042TIP3    H281618   4.799   6.549   4.935 -1.6551  0.4485 -0.5508
20043TIP3   OH281619   0.325   3.716  16.029  0.3952  0.4796 -0.5610
20043TIP3    H181620   0.232   3.693  16.032  0.5161  0.0087 -0.2751
20043TIP3    H281621   0.327   3.811  16.034 -0.1292  0.5688 -1.7876
20044TIP3   OH281622   3.138   3.719   1.719 -0.4781  0.8324 -0.0295
20044TIP3    H181623   3.204   3.763   1.666  0.2570  0.3707  0.4949
20044TIP3    H281624   3.188   3.668   1.783 -1.2030 -2.7709 -2.1852
20045TIP3   OH281625   4.141   0.753  11.797 -0.2584 -0.0476 -0.1708
20045TIP3    H181626   4.146   0.849  11.798 -0.1613 -0.0387 -1.1039
20045TIP3    H281627   4.110   0.730  11.885 -1.8666  0.9394 -0.4521
20046TIP3   OH281628   0.355   0.174   2.265 -0.2760 -0.3172  0.5305
20046TIP3    H181629   0.326   0.085   2.246  2.5561 -1.3668  0.9082
20046TIP3    H281630   0.403   0.166   2.348  3.0570  0.8846 -1.2108
20047TIP3   OH281631   0.620   0.335   2.404  0.7773 -0.4520  0.6954
20047TIP3    H181632   0.588   0.421   2.378  1.2878 -0.8011 -1.1514
20047TIP3    H281633   0.551   0.298   2.459 -1.5110 -0.7123 -2.2233
20048TIP3   OH281634   2.286   5.885  16.586 -0.2564 -0.2851 -0.5275
20048TIP3    H181635   2.267   5.818  16.521 -0.5204 -0.8786  0.1395
20048TIP3    H281636   2.201   5.924  16.605 -0.0126  0.6474 -1.3502
20049TIP3   OH281637   2.023   2.604   2.852 -0.0540 -0.1798 -0.1020
20049TIP3    H181638   2.092   2.631   2.792  1.1068 -0.8214  0.9029
20049TIP3    H281639   2.041   2.652   2.933 -1.7268  0.8442 -0.3265
20050TIP3   OH281640   4.444   5.310   2.854  0.2916 -0.6865  0.3603
20050TIP3    H181641   4.348   5.304   2.852  0.2444  0.2898 -0.9388
20050TIP3    H281642   4.462   5.392   2.899  0.5041 -0.5183 -0.0309
20051TIP3   OH281643   3.676   1.186   5.421 -0.5547  0.3217 -0.8237
20051TIP3    H181644   3.604   1.144   5.468 -0.1532  2.3327  1.7381
20051TIP3    H281645   3.697   1.126   5.349 -3.3995 -1.2684 -0.3946
20052TIP3   OH281646   0.860   6.485  16.083 -0.5039  0.1728  0.0883
20052TIP3    H181647   0.831   6.564  16.037  0.2701 -0.3523 -1.3392
20052TIP3    H281648   0.791   6.421  16.065 -0.1219 -0.0807 -0.5011
20053TIP3   OH281649   0.746   0.074  11.370  0.1480 -0.2651  1.1521
20053TIP3    H181650   0.763   0.044  11.459  0.2175 -1.1326  0.8454
20053TIP3    H281651   0.828   0.116  11.344 -0.1587  0.7755  1.8030
20054TIP3   OH281652   1.814   0.001   4.476 -0.2533  0.4488 -0.0486
20054TIP3    H181653   1.733   0.029   4.518 -0.1158  2.7582 -1.2620
20054TIP3    H281654   1.862   0.082   4.459  0.0410 -0.4141 -3.8983
20055TIP3   OH281655   4.552   0.761   1.554 -0.0857  0.0896 -0.2281
20055TIP3    H181656   4.643   0.770   1.526  0.1919  0.6769  0.8274
20055TIP3    H281657   4.552   0.684   1.612  0.4451  2.0708  2.5209
20056TIP3   OH281658   6.597   0.227   2.173  0.0558  0.5291 -0.5761
20056TIP3    H181659   6.663   0.228   2.242  0.4241 -0.3933 -0.9100
20056TIP3    H281660   6.514   0.216   2.219  0.3017 -0.1079 -0.2777
20057TIP3   OH281661   5.334   0.707   4.743  0.1096 -0.1572  0.4186
20057TIP3    H181662   5.298   0.637   4.798 -1.4548  0.3678  0.0979
20057TIP3    H281663   5.366   0.772   4.806 -1.9494  0.5821  0.7440
20058TIP3   OH281664   5.719   3.414   1.060 -0.3660 -0.0047  0.1445
20058TIP3    H181665   5.722   3.365   1.142  0.8323 -0.4898 -0.1905
20058TIP3    H281666   5.804   3.399   1.019 -0.3617  1.5156 -0.4463
20059TIP3   OH281667   1.198   6.732   1.026  0.1156  0.6237  0.5292
20059TIP3    H181668   1.152   6.767   1.102  0.3622  1.8665  0.1194
20059TIP3    H281669   1.131   6.721   0.959 -0.1671 -0.8205  1.0269
20060TIP3   OH281670   5.039   6.716   3.925  0.5342  0.3351  0.6702
20060TIP3    H181671   5.128   6.739   3.901  0.5061  0.0395  0.2835
20060TIP3    H281672   5.033   6.621   3.910  0.1320  0.3666  0.6140
20061TIP3   OH281673   4.501   2.889  11.550 -0.0833  0.5295 -0.5909
20061TIP3    H181674   4.456   2.811  11.517 -2.2058  0.8645  1.3798
20061TIP3    H281675   4.581   2.855  11.590 -0.8298 -0.6335 -0.0278
20062TIP3   OH281676   6.624   2.420  10.924 -0.0959 -0.0328 -0.1728
20062TIP3    H181677   6.667   2.491  10.973 -0.2699  0.6238 -0.9555
20062TIP3    H281678   6.665   2.340  10.956 -0.6200  0.3473  1.4804
20063TIP3   OH281679   6.285   5.027   1.788 -0.5358 -0.5365 -0.2172
20063TIP3    H181680   6.230   4.981   1.852 -1.5582  0.3821 -0.4047
20063TIP3    H281681   6.250   5.001   1.703 -1.6377  1.1623 -0.3081
20064TIP3   OH281682   1.354   0.702  14.470 -0.2778 -0.0919  0.8647
20064TIP3    H181683   1.279   0.718  14.527 -0.4460  1.9776  0.0763
20064TIP3    H281684   1.316   0.693  14.382  0.2834 -0.3162  0.6432
20065TIP3   OH281685   1.381   1.170  16.155  0.1897  0.6342 -0.2056
20065TIP3    H181686   1.364   1.076  16.160  0.1862  0.7023  1.2768
20065TIP3    H281687   1.449   1.179  16.089 -0.2132 -0.3546 -0.7606
20066TIP3   OH281688   2.098   2.367  12.346 -0.2504  0.3497  0.3386
20066TIP3    H181689   2.140   2.447  12.313  0.3484  0.3514  1.0854
20066TIP3    H281690   2.037   2.342  12.278 -1.4328  2.2182  0.6746
20067TIP3   OH281691   4.336   4.881   0.704  0.6166 -0.3557 -0.3613
20067TIP3    H181692   4.421   4.924   0.704  2.0201 -2.9288 -2.5305
20067TIP3    H281693   4.347   4.805   0.761 -1.2986  1.0847  2.0478
20068TIP3   OH281694   6.193   4.761  14.726  0.1016  0.6949  0.3951
20068TIP3    H181695   6.138   4.735  14.651 -2.4083  2.3510  1.5696
20068TIP3    H281696   6.180   4.691  14.790 -0.8045  1.1551  0.7278
20069TIP3   OH281697   3.365   2.423   0.206  0.9544 -0.0010  0.1087
20069TIP3    H181698   3.347   2.391   0.294  1.2290  0.3444  0.2919
20069TIP3    H281699   3.286   2.470   0.180  0.4357 -1.0858 -0.2790
20070TIP3   OH281700   2.743   4.837  16.447  0.9548 -0.4925 -0.1717
20070TIP3    H181701   2.760   4.749  16.413  1.7737 -0.0752 -0.8551
20070TIP3    H281702   2.742   4.892  16.369  2.0351  0.3501  0.4092
20071TIP3   OH281703   6.224   5.756  12.036 -0.0938  0.3493 -0.1802
20071TIP3    H181704   6.183   5.783  11.954 -0.8577  0.6529  0.2968
20071TIP3    H281705   6.263   5.671  12.016  0.2806  0.7098 -1.0311
20072TIP3   OH281706   1.538   2.867  16.125  0.4496  0.0637 -0.3858
20072TIP3    H181707   1.452   2.905  16.142  0.7116  1.4538 -2.0186
20072TIP3    H281708   1.562   2.900  16.039  2.9427  0.2626  0.3498
20073TIP3   OH281709   5.033   3.052  12.216  0.0793  0.4862 -0.8934
20073TIP3    H181710   5.025   3.141  12.183  0.0597  0.4339 -1.0328
20073TIP3    H281711   5.011   3.057  12.309  1.2208  0.8271 -0.6349
20074TIP3   OH281712   2.438   2.298   4.787 -0.5173 -0.0339  0.8197
20074TIP3    H181713   2.468   2.372   4.840  1.1779  1.1107 -1.6362
20074TIP3    H281714   2.504   2.231   4.801 -0.6223 -0.1041  0.9741
20075TIP3   OH281715   4.456   3.093  14.719 -0.6459 -0.6740  0.1938
20075TIP3    H181716   4.434   3.000  14.717 -1.8025 -0.3939 -0.4501
20075TIP3    H281717   4.382   3.136  14.676 -0.4387  0.6080  1.0941
20076TIP3   OH281718   2.644   6.794  11.555  0.2038 -0.1196 -0.2967
20076TIP3    H181719   2.704   6.781  11.629  1.7710  1.7896 -1.1606
20076TIP3    H281720   2.615   6.885  11.563 -1.0326 -0.4365 -1.0198
20077TIP3   OH281721   5.522   5.569  11.663  0.1807  0.1287  0.4600
20077TIP3    H181722   5.579   5.599  11.734 -1.6456  0.4275  1.8322
20077TIP3    H281723   5.530   5.474  11.664  0.6984  0.1694  0.5871
20078TIP3   OH281724   0.751   1.366  16.274  0.4807 -0.0019  0.4006
20078TIP3    H181725   0.756   1.350  16.368 -1.1909  1.5039  0.7815
20078TIP3    H281726   0.779   1.457  16.264 -2.1184  0.7613 -0.1877
20079TIP3   OH281727   3.718   3.736   1.716  0.0526  0.0902 -0.8301
20079TIP3    H181728   3.774   3.688   1.777 -1.6163 -0.1308  0.5905
20079TIP3    H281729   3.660   3.786   1.773 -0.4698  1.1413 -2.2795
20080TIP3   OH281730   3.613   6.156  13.510  0.6266 -0.5166 -0.4646
20080TIP3    H181731   3.688   6.118  13.464  1.1272 -0.8799  0.6264
20080TIP3    H281732   3.645   6.241  13.541  1.1381 -1.3636  1.4104
20081TIP3   OH281733   3.582   0.145  15.630 -0.4220  0.2165 -0.0892
20081TIP3    H181734   3.626   0.060  15.623 -0.9495 -0.2299  1.7315
20081TIP3    H281735   3.591   0.168  15.722 -1.8654  1.2853 -0.2105
20082TIP3   OH281736   5.372   1.849   6.633 -0.4139 -0.4676  0.0364
20082TIP3    H181737   5.452   1.861   6.584 -1.1124  0.8572 -0.8053
20082TIP3    H281738   5.382   1.764   6.676  2.0165  0.3044  1.0721
20083TIP3   OH281739   5.411   1.066  17.030  0.2569  0.0138  0.3984
20083TIP3    H181740   5.484   1.012  17.000 -0.3260 -0.5191 -0.0767
20083TIP3    H281741   5.391   1.123  16.955  0.8153  0.8404  0.8699
20084TIP3   OH281742   6.333   2.956  13.476 -0.2149  0.1265 -0.0527
20084TIP3    H181743   6.377   3.033  13.440  1.2305  0.0883  1.5475
20084TIP3    H281744   6.387   2.883  13.448  2.0417  0.2399  3.6572
20085TIP3   OH281745   1.664   3.356  15.061 -0.0681  0.0117  0.0948
20085TIP3    H181746   1.611   3.373  15.139 -0.1517 -1.3323  0.3579
20085TIP3    H281747   1.709   3.273  15.081  0.0025 -0.2784 -1.2334
20086TIP3   OH281748   4.088   5.022  17.149  0.0640 -0.4815 -0.2206
20086TIP3    H181749   4.174   5.005  17.112  0.5070 -1.2519  1.1374
20086TIP3    H281750   4.070   5.114  17.127  2.2764  0.4080  1.5257
20087TIP3   OH281751   3.418   6.040  11.662  0.5109 -0.5422  0.3225
20087TIP3    H181752   3.363   6.028  11.585  0.7736 -1.1676  0.2322
20087TIP3    H281753   3.397   5.965  11.718 -0.4722  0.4657  1.3467
20088TIP3   OH281754   1.854   5.164   3.116  0.2008 -0.3414 -0.0206
20088TIP3    H181755   1.929   5.188   3.170 -0.2476 -1.3741  1.0819
20088TIP3    H281756   1.778   5.185   3.169 -0.2464 -1.3833 -0.2292
20089TIP3   OH281757   2.552   0.268  10.919 -0.5585 -0.5084 -0.3492
20089TIP3    H181758   2.549   0.353  10.875 -1.4772 -0.9528 -1.1668
20089TIP3    H281759   2.520   0.286  11.007 -2.2924 -0.2968 -1.0074
20090TIP3   OH281760   1.129   0.761   3.755  0.2996 -0.2965 -0.4270
20090TIP3    H181761   1.151   0.800   3.671 -0.3718  0.7343 -0.1341
20090TIP3    H281762   1.045   0.717   3.739 -0.5404  1.0982  0.0494
20091TIP3   OH281763   0.499   1.471   1.259  0.9934 -0.1516 -0.0671
20091TIP3    H181764   0.495   1.375   1.264  0.2643 -0.0927  0.6855
20091TIP3    H281765   0.572   1.489   1.200  2.0433 -1.1462  0.9132
20092TIP3   OH281766   0.028   2.227  12.071  0.3600  0.3742  0.3396
20092TIP3    H181767   0.056   2.144  12.032 -0.5733 -0.1339  0.7332
20092TIP3    H281768   0.108   2.266  12.106  0.6130 -0.9562  1.2769
20093TIP3   OH281769   1.886   2.281   4.328  0.0830  0.2189 -0.5116
20093TIP3    H181770   1.951   2.230   4.279 -0.4007 -0.4929 -0.4259
20093TIP3    H281771   1.856   2.222   4.397  0.3266  1.0114  0.2791
20094TIP3   OH281772   6.692   2.468   1.705  0.2757  0.1175 -0.3440
20094TIP3    H181773   6.701   2.536   1.772  0.1303 -0.1575 -0.0404
20094TIP3    H281774   6.782   2.445   1.682  0.4108 -1.6474  1.6803
20095TIP3   OH281775   4.023   2.542  12.216 -0.2685 -0.3590  0.2321
20095TIP3    H181776   4.051   2.620  12.167  0.6952  0.2337  1.6801
20095TIP3    H281777   4.046   2.562  12.307 -1.4474 -1.6969  0.8364
20096TIP3   OH281778   4.819   2.895  14.906  0.0335  0.5791  0.2474
20096TIP3    H181779   4.805   2.876  14.813  1.4531  4.0899 -0.7691
20096TIP3    H281780   4.897   2.843  14.929 -0.5075 -0.5478 -0.4312
20097TIP3   OH281781   6.459   4.907   5.612 -0.2042  0.1661 -0.2428
20097TIP3    H181782   6.441   4.898   5.706  0.5688  0.0853 -0.0975
20097TIP3    H281783   6.413   4.987   5.587  0.7881  0.9898  0.5239
20098TIP3   OH281784   4.545   3.783   5.326  0.6189 -0.2197  0.0741
20098TIP3    H181785   4.473   3.830   5.283  1.2230  0.7861  0.1355
20098TIP3    H281786   4.517   3.775   5.418 -0.2489 -1.5262 -0.2927
20099TIP3   OH281787   3.708   1.817  14.230  0.3597  0.4306  0.1989
20099TIP3    H181788   3.693   1.793  14.138  2.2765  2.8340 -0.8058
20099TIP3    H281789   3.780   1.762  14.258  0.2263  0.1715  0.0304
20100TIP3   OH281790   2.623   1.573   4.117  0.1140  0.0831 -0.2127
20100TIP3    H181791   2.601   1.654   4.162 -0.0158  0.6421 -1.2552
20100TIP3    H281792   2.716   1.560   4.132  0.8972  2.2253 -2.8165
20101TIP3   OH281793   0.092   1.142  11.944 -0.6445  0.2490  0.1411
20101TIP3    H181794   0.047   1.167  11.863  0.7616 -1.4586 -1.2086
20101TIP3    H281795   0.151   1.071  11.917  2.1894  1.8252  2.0446
20102TIP3   OH281796   2.041   3.382   5.278  1.1665 -0.2252 -0.5809
20102TIP3    H181797   2.059   3.386   5.184 -0.9471  0.0450 -0.9942
20102TIP3    H281798   1.954   3.341   5.284 -0.0156  2.4193  1.0997
20103TIP3   OH281799   2.948   3.238  13.237  0.0089  0.3575 -0.1732
20103TIP3    H181800   2.871   3.200  13.279 -0.0434  1.6652  0.9563
20103TIP3    H281801   2.932   3.332  13.237  1.2965  0.5915 -0.5636
20104TIP3   OH281802   6.113   1.508   5.562  0.4003 -0.3603 -0.1927
20104TIP3    H181803   6.120   1.598   5.592 -0.1759 -0.5973  0.6721
20104TIP3    H281804   6.034   1.508   5.507 -1.6381 -1.0843  2.6427
20105TIP3   OH281805   5.775   5.115   0.876  0.0683  0.2707  0.0758
20105TIP3    H181806   5.861   5.087   0.905  0.8882  0.4370 -2.1091
20105TIP3    H281807   5.724   5.124   0.956  1.5705 -1.5034  1.2483
20106TIP3   OH281808   1.596   2.248  12.139 -0.1837  0.1333  0.3547
20106TIP3    H181809   1.592   2.334  12.181 -2.2908  0.2954 -0.1606
20106TIP3    H281810   1.665   2.258  12.073  0.0706  1.2037  0.7617
20107TIP3   OH281811   1.817   6.251   3.514 -0.1309 -0.3888 -0.1663
20107TIP3    H181812   1.867   6.313   3.461 -3.1134  1.1723 -1.2991
20107TIP3    H281813   1.875   6.230   3.587  2.0804  1.4923 -1.3048
20108TIP3   OH281814   0.565   0.203   3.667 -0.0444 -0.4584 -0.5863
20108TIP3    H181815   0.610   0.153   3.599 -2.0401  0.9474 -3.0240
20108TIP3    H281816   0.614   0.183   3.747  3.3737 -0.9301 -2.6634
20109TIP3   OH281817   5.273   1.077  12.534 -0.6213  0.3706  0.1916
20109TIP3    H181818   5.358   1.111  12.561 -0.0266  1.2124 -2.6279
20109TIP3    H281819   5.223   1.154  12.508 -1.7700 -0.2625  0.4727
20110TIP3   OH281820   4.677   6.689  14.181 -0.0615 -0.6518 -0.5171
20110TIP3    H181821   4.767   6.719  14.189  0.3581 -1.7607 -0.9547
20110TIP3    H281822   4.638   6.706  14.266  0.4299  0.2778 -0.4784
20111TIP3   OH281823   0.186   2.741  16.420  0.0151  0.4563  0.5543
20111TIP3    H181824   0.134   2.814  16.452 -0.6177 -0.8037  2.4434
20111TIP3    H281825   0.202   2.687  16.497  4.0442  0.7327  0.0705
20112TIP3   OH281826   2.643   0.086   4.008 -0.0037 -0.2172 -0.0184
20112TIP3    H181827   2.558   0.122   3.985 -1.1598 -1.7824  1.6581
20112TIP3    H281828   2.626   0.029   4.083  2.7139  0.3864  1.1480
20113TIP3   OH281829   1.089   1.353   4.155  0.1540  0.3179  0.3149
20113TIP3    H181830   1.018   1.408   4.123  0.2031  0.6710  0.8171
20113TIP3    H281831   1.045   1.286   4.208  0.1444  0.1840  0.1404
20114TIP3   OH281832   4.476   2.785  12.364  0.1150 -0.2850  0.4876
20114TIP3    H181833   4.449   2.777  12.273  0.2118 -1.8065  0.5814
20114TIP3    H281834   4.397   2.811  12.411 -0.5347 -1.9248  0.3345
20115TIP3   OH281835   3.681   4.120  14.552 -0.1208  0.3457 -0.1727
20115TIP3    H181836   3.603   4.168  14.577 -0.7939 -0.6532 -0.3105
20115TIP3    H281837   3.748   4.147  14.615 -0.3343  1.8562 -0.5862
20116TIP3   OH281838   1.283   4.466  16.799  0.1121 -0.2257  0.0098
20116TIP3    H181839   1.239   4.552  16.796 -0.8733 -0.7568 -1.7852
20116TIP3    H281840   1.213   4.403  16.781  0.4766 -1.5819  2.9806
20117TIP3   OH281841   0.610   5.974   5.656 -0.0192  0.4431  0.0399
20117TIP3    H181842   0.616   6.060   5.699 -1.2430  0.5881 -0.0761
20117TIP3    H281843   0.648   5.913   5.719 -1.4736  0.7059  1.1952
20118TIP3   OH281844   0.682   6.435  11.939  0.1018 -0.0783  0.3118
20118TIP3    H181845   0.673   6.362  12.001 -0.7233 -0.1544  0.1035
20118TIP3    H281846   0.686   6.512  11.995  1.5758 -0.3182  0.5648
20119TIP3   OH281847   5.387   1.658   2.295  0.1915  0.0643  0.4010
20119TIP3    H181848   5.462   1.687   2.242  1.4247 -1.6848  1.1366
20119TIP3    H281849   5.387   1.716   2.371  0.0568  0.8490 -0.1960
20120TIP3   OH281850   3.519   6.675  13.203  0.1115  0.1196 -0.4501
20120TIP3    H181851   3.426   6.660  13.186  0.3917 -0.0022 -1.9394
20120TIP3    H281852   3.553   6.712  13.121  1.5124 -0.4439 -0.1455
20121TIP3   OH281853   5.091   1.422  15.072 -0.3404 -0.3790 -0.0329
20121TIP3    H181854   5.117   1.453  15.159 -1.2555  1.4144 -0.3705
20121TIP3    H281855   5.167   1.439  15.017 -0.6867  0.9827 -0.1275
20122TIP3   OH281856   1.014   3.654  13.994  0.0019  0.3357  0.1407
20122TIP3    H181857   0.998   3.598  14.070 -3.0523 -0.8874 -1.3625
20122TIP3    H281858   1.015   3.743  14.030 -1.0729 -0.2485  1.6575
20123TIP3   OH281859   5.077   2.741   4.061 -0.1399 -0.2024  0.3335
20123TIP3    H181860   5.117   2.748   4.148 -0.6256 -1.0319  0.6316
20123TIP3    H281861   5.067   2.647   4.047  0.1693 -0.0830 -0.7328
20124TIP3   OH281862   5.594   6.247   3.576 -0.0483 -0.9956 -0.2907
20124TIP3    H181863   5.536   6.216   3.506  0.4832 -2.7927  0.0441
20124TIP3    H281864   5.661   6.179   3.583  1.3406  0.4019  0.2556
20125TIP3   OH281865   3.705   0.037   3.124  0.2581 -0.7602 -0.7319
20125TIP3    H181866   3.746   0.007   3.205 -0.3695  0.7702  0.1757
20125TIP3    H281867   3.616   0.004   3.129  0.7217 -2.2345 -1.6912
20126TIP3   OH281868   2.910   4.157   1.807  0.0624  0.4062 -0.3106
20126TIP3    H181869   2.817   4.141   1.794  0.4811 -0.6741 -2.2614
20126TIP3    H281870   2.943   4.176   1.719  1.3549  2.6333  0.6104
20127TIP3   OH281871   2.697   1.480   4.688 -0.1730 -0.3434  0.1559
20127TIP3    H181872   2.777   1.498   4.737 -0.3012  0.4355  0.0849
20127TIP3    H281873   2.725   1.419   4.619  0.2359 -0.5452  0.4950
20128TIP3   OH281874   3.137   1.725   1.588  0.3950  0.1409 -0.2745
20128TIP3    H181875   3.049   1.747   1.559  0.1677  0.1776  0.4475
20128TIP3    H281876   3.192   1.794   1.550  0.1231  0.0828 -0.7741
20129TIP3   OH281877   0.288   5.617   4.765 -0.5480 -0.1192  0.1747
20129TIP3    H181878   0.211   5.579   4.723 -1.2032 -0.6468  1.8092
20129TIP3    H281879   0.265   5.621   4.858  1.0734  0.5101  0.5648
20130TIP3   OH281880   2.136   0.513  13.565 -0.1432  0.5450  0.5030
20130TIP3    H181881   2.052   0.489  13.526  0.0201 -2.4971  1.8294
20130TIP3    H281882   2.199   0.453  13.524  0.7209  0.1628  2.3443
20131TIP3   OH281883   3.220   0.636  15.801 -0.1853  0.0027 -0.1955
20131TIP3    H181884   3.214   0.730  15.782  0.4825  0.2329  0.6605
20131TIP3    H281885   3.217   0.594  15.716 -1.5804  0.7452 -0.5213
20132TIP3   OH281886   5.220   0.476  15.598 -0.4484 -0.2451 -0.2919
20132TIP3    H181887   5.302   0.428  15.611 -0.4886 -0.0947  0.6023
20132TIP3    H281888   5.205   0.475  15.504 -0.1859 -1.5365 -0.3196
20133TIP3   OH281889   0.168   3.538   2.400  0.0395 -0.7202 -0.0290
20133TIP3    H181890   0.138   3.449   2.379 -0.8106 -0.4303 -0.0658
20133TIP3    H281891   0.149   3.589   2.322 -2.1262  0.1178  0.9928
20134TIP3   OH281892   3.550   1.613  16.814  0.6981 -0.1882  0.2611
20134TIP3    H181893   3.619   1.624  16.747  0.1475 -1.6541 -0.5562
20134TIP3    H281894   3.536   1.702  16.848  2.3224  0.2790 -0.2364
20135TIP3   OH281895   6.051   0.385   2.705  0.4290 -0.1554  0.0028
20135TIP3    H181896   6.129   0.330   2.708 -0.4230 -1.4678 -1.2946
20135TIP3    H281897   6.048   0.417   2.615  0.6534  1.6405  0.6279
20136TIP3   OH281898   6.114   5.619   6.210  0.0316 -0.1479 -0.0595
20136TIP3    H181899   6.169   5.691   6.240  0.5137 -0.8355  0.7531
20136TIP3    H281900   6.176   5.552   6.181 -0.4314  0.3696 -2.3202
20137TIP3   OH281901   5.636   1.604   5.343  0.3537  0.1102 -0.0024
20137TIP3    H181902   5.568   1.669   5.361 -0.3843 -0.5852 -0.2511
20137TIP3    H281903   5.616   1.532   5.402  1.0000 -0.0155  0.0648
20138TIP3   OH281904   6.600   5.652   5.434  0.5417  0.3334 -0.2339
20138TIP3    H181905   6.527   5.677   5.490  0.0987 -0.6085 -0.3798
20138TIP3    H281906   6.611   5.558   5.449  0.3634  0.0540 -1.7777
20139TIP3   OH281907   1.033   2.769  16.945 -0.0833  0.0028 -0.8495
20139TIP3    H181908   1.069   2.826  16.878 -2.8671  0.1042 -2.3357
20139TIP3    H281909   1.044   2.680  16.910  1.5140 -0.1938  0.1077
20140TIP3   OH281910   1.344   4.747  12.014  0.4831  0.4769 -0.3935
20140TIP3    H181911   1.286   4.820  12.035  0.3952 -0.2090  1.8600
20140TIP3    H281912   1.410   4.785  11.956 -0.0013  2.1595  0.1279
20141TIP3   OH281913   4.506   6.089  11.294 -0.3615 -0.6414  0.1914
20141TIP3    H181914   4.594   6.083  11.330 -0.4842 -2.1777  0.2533
20141TIP3    H281915   4.517   6.074  11.200 -0.2590  1.6862 -0.2086
20142TIP3   OH281916   0.106   2.579   5.231 -0.1298  0.0269  0.4570
20142TIP3    H181917   0.137   2.595   5.142  0.6215  0.2275  0.7552
20142TIP3    H281918   0.022   2.624   5.236  0.4725  1.1818  0.2791
20143TIP3   OH281919   6.309   1.749  11.461  0.0041 -0.1746  0.2901
20143TIP3    H181920   6.315   1.707  11.547  1.9563 -0.8882 -0.1835
20143TIP3    H281921   6.359   1.830  11.471  0.0375 -0.1469 -0.1100
20144TIP3   OH281922   5.879   3.978  14.646 -0.4938 -0.5253 -0.0895
20144TIP3    H181923   5.820   3.991  14.720 -0.2975  0.4991 -0.1083
20144TIP3    H281924   5.852   4.044  14.582 -1.7396 -2.4510 -1.6211
20145TIP3   OH281925   2.569   3.691   4.630  0.5687 -0.1304 -0.6253
20145TIP3    H181926   2.567   3.739   4.548 -1.3278 -0.2001 -0.6610
20145TIP3    H281927   2.656   3.706   4.666  0.7817  1.3975 -1.7589
20146TIP3   OH281928   5.579   1.110  15.176  0.3170 -0.2608 -0.6317
20146TIP3    H181929   5.498   1.160  15.188  0.6266  0.0500  0.1732
20146TIP3    H281930   5.631   1.163  15.115  0.1225 -0.2262 -0.7687
20147TIP3   OH281931   5.759   4.448  16.153  0.1593 -0.4054  0.2379
20147TIP3    H181932   5.713   4.459  16.070  0.4661 -0.0884  0.1082
20147TIP3    H281933   5.690   4.436  16.217 -0.0406 -1.9379 -0.2424
20148TIP3   OH281934   4.596   5.517   2.116  0.0493 -0.3038 -0.1355
20148TIP3    H181935   4.637   5.550   2.195  0.2014 -2.1386  0.5858
20148TIP3    H281936   4.526   5.580   2.097  1.5795  1.4923  0.0257
20149TIP3   OH281937   0.719   4.665  11.683 -0.0251  0.0757 -0.0801
20149TIP3    H181938   0.746   4.750  11.648  1.8148 -0.2585  0.5186
20149TIP3    H281939   0.778   4.602  11.642 -2.0101 -1.0598 -1.2957
20150TIP3   OH281940   5.701   4.368   1.612 -0.1345 -0.4381  0.1151
20150TIP3    H181941   5.762   4.420   1.665  0.6741  0.3082 -1.5009
20150TIP3    H281942   5.623   4.360   1.666  1.0659 -0.6059  1.8480
20151TIP3   OH281943   2.303   3.321  11.831 -0.0126 -0.0432 -0.1293
20151TIP3    H181944   2.299   3.226  11.837 -0.3415 -0.1273 -1.5120
20151TIP3    H281945   2.381   3.345  11.881  2.3550 -1.3473 -3.0892
20152TIP3   OH281946   4.726   0.061   5.509  0.2906 -0.1314  0.9837
20152TIP3    H181947   4.800   0.005   5.484 -0.8173 -0.8949 -0.6465
20152TIP3    H281948   4.693   0.096   5.427 -2.5392 -1.5609  1.4388
20153TIP3   OH281949   4.685   0.457   0.553  0.2202  0.0810  0.2109
20153TIP3    H181950   4.624   0.473   0.624 -0.9050 -0.6303 -0.5793
20153TIP3    H281951   4.769   0.488   0.586 -0.2225 -0.5333  1.9616
20154TIP3   OH281952   5.140   2.332   1.071 -0.0846 -0.0245 -0.0591
20154TIP3    H181953   5.074   2.331   1.140  0.1281 -0.5399  0.1391
20154TIP3    H281954   5.113   2.263   1.011  0.2947 -0.2661  0.0448
20155TIP3   OH281955   5.214   2.857   3.228  0.3219  0.0939  0.3615
20155TIP3    H181956   5.176   2.853   3.140 -0.0401 -0.3809  0.5402
20155TIP3    H281957   5.265   2.938   3.228 -0.3249  0.5059 -0.0241
20156TIP3   OH281958   4.311   3.502   2.088 -0.0255  0.3420  0.8117
20156TIP3    H181959   4.288   3.583   2.042 -1.8122  0.1200  1.2659
20156TIP3    H281960   4.405   3.491   2.072 -0.2908  1.1239 -1.3895
20157TIP3   OH281961   3.498   6.139   5.396  0.4931 -0.0059 -0.4093
20157TIP3    H181962   3.543   6.123   5.479  0.8312  0.5162 -0.4912
20157TIP3    H281963   3.417   6.088   5.402  0.1935  0.5665  0.5091
20158TIP3   OH281964   3.907   4.166  13.762 -0.6195 -0.2610  0.0423
20158TIP3    H181965   3.852   4.100  13.805 -0.7707 -1.0105 -1.2591
20158TIP3    H281966   3.947   4.119  13.688  2.6646 -0.0244  1.5811
20159TIP3   OH281967   2.798   3.333   2.611 -0.4511 -0.0761  0.0742
20159TIP3    H181968   2.869   3.309   2.552  0.0055 -1.9623  1.3392
20159TIP3    H281969   2.769   3.250   2.649 -0.1301  1.1374  3.1465
20160TIP3   OH281970   6.354   2.493  12.054 -0.0095  0.0136 -0.2345
20160TIP3    H181971   6.366   2.539  12.137 -1.0771  0.0132 -0.0794
20160TIP3    H281972   6.436   2.445  12.041  0.5815  0.8822  0.2709
20161TIP3   OH281973   3.257   3.155  13.186  0.5226 -0.4534 -0.1897
20161TIP3    H181974   3.184   3.199  13.230 -0.6155 -0.2455 -2.2008
20161TIP3    H281975   3.311   3.227  13.152 -0.4168 -0.5723 -1.9957
20162TIP3   OH281976   6.490   5.121   3.362 -0.9389 -0.2056 -0.5745
20162TIP3    H181977   6.576   5.101   3.324  0.5044  1.2285  1.8110
20162TIP3    H281978   6.450   5.035   3.376  0.3994 -0.9379 -1.1161
20163TIP3   OH281979   2.814   5.093   6.374 -0.5199 -0.0982 -0.3690
20163TIP3    H181980   2.893   5.064   6.329 -0.3395  1.4704 -1.0970
20163TIP3    H281981   2.763   5.013   6.387  1.5291 -1.2195  0.8277
20164TIP3   OH281982   3.301   2.557  13.219  0.0093 -0.1181  0.3603
20164TIP3    H181983   3.282   2.573  13.311 -1.1801  1.1966 -0.0901
20164TIP3    H281984   3.293   2.643  13.178  1.7953 -0.4695 -0.7645
20165TIP3   OH281985   0.412   5.672   2.313  0.1665  0.4254  0.3458
20165TIP3    H181986   0.469   5.605   2.276  1.1993  0.8729  1.1134
20165TIP3    H281987   0.351   5.694   2.242  1.7017  0.7891 -0.8829
20166TIP3   OH281988   5.882   2.527   1.565  0.4062 -0.0612  0.1906
20166TIP3    H181989   5.871   2.590   1.636 -0.3702 -0.6471  0.5964
20166TIP3    H281990   5.793   2.512   1.533  0.2201 -3.1123  1.9839
20167TIP3   OH281991   2.999   4.767   4.321  0.1809 -0.1714 -0.0510
20167TIP3    H181992   2.941   4.716   4.264  0.2619  2.0073 -2.1537
20167TIP3    H281993   3.031   4.703   4.385 -3.6082 -1.6819  0.4917
20168TIP3   OH281994   5.336   4.882   2.001  0.1596  0.1001  0.0504
20168TIP3    H181995   5.287   4.805   2.031  1.1234 -0.8601 -0.7555
20168TIP3    H281996   5.405   4.893   2.066  0.1092  0.1825  0.0897
20169TIP3   OH281997   3.203   4.387   2.043 -0.2506 -0.0778  0.1288
20169TIP3    H181998   3.237   4.463   2.089  0.3337 -1.0017  1.2340
20169TIP3    H281999   3.127   4.360   2.094 -0.1690 -0.5305  0.0137
20170TIP3   OH282000   4.472   6.203  14.804 -0.5010 -0.1976 -0.0915
20170TIP3    H182001   4.435   6.123  14.842  0.2547 -0.2464  0.5543
20170TIP3    H282002   4.559   6.211  14.845 -0.8360  1.3079  0.3495
20171TIP3   OH282003   4.278   1.540  16.280 -0.0130  0.5754 -0.4283
20171TIP3    H182004   4.292   1.572  16.369 -0.6700  1.9968 -0.8337
20171TIP3    H282005   4.193   1.496  16.284  0.5960 -0.5876 -0.0297
20172TIP3   OH282006   6.798   6.705  14.628  0.2802  0.4338  0.0778
20172TIP3    H182007   6.820   6.780  14.573  0.6535  1.7965  2.0334
20172TIP3    H282008   6.718   6.731  14.673 -1.8011 -1.9190 -2.1131
20173TIP3   OH282009   2.804   3.209  14.721  0.1292  0.3708  0.4605
20173TIP3    H182010   2.883   3.169  14.757 -0.7606 -1.0726  0.8358
20173TIP3    H282011   2.772   3.267  14.789 -0.0136 -0.2662  0.9427
20174TIP3   OH282012   3.154   4.069   3.460 -0.1808  0.2686  0.4687
20174TIP3    H182013   3.147   4.143   3.400 -0.0506  1.5717  2.0310
20174TIP3    H282014   3.064   4.044   3.478 -0.2232 -0.0012 -0.1060
20175TIP3   OH282015   1.026   1.368  15.014  0.1977  0.2916  0.1492
20175TIP3    H182016   1.113   1.329  15.023 -0.1417 -0.6466 -0.6601
20175TIP3    H282017   1.033   1.451  15.062  1.6389  0.3811 -0.1739
20176TIP3   OH282018   4.473   0.608   3.369  0.0257 -0.4054 -0.3594
20176TIP3    H182019   4.505   0.640   3.453  0.0581 -1.8202  0.1932
20176TIP3    H282020   4.453   0.516   3.385  0.2662 -0.7581 -1.9680
20177TIP3   OH282021   0.730   3.126  11.994  0.1417  0.2089 -0.0730
20177TIP3    H182022   0.675   3.177  11.934 -0.9313  0.1301  0.8472
20177TIP3    H282023   0.738   3.040  11.952 -0.2153  0.2978 -0.3262
20178TIP3   OH282024   0.859   3.445   0.807  0.0229  0.3287  0.3657
20178TIP3    H182025   0.858   3.349   0.800 -1.6388  0.3377  0.3310
20178TIP3    H282026   0.840   3.462   0.899  0.2074  0.6269  0.3483
20179TIP3   OH282027   4.138   4.467  13.179  0.0973 -0.1174  0.5567
20179TIP3    H182028   4.212   4.443  13.235  0.7500 -0.6503 -0.5174
20179TIP3    H282029   4.125   4.391  13.122  0.5589  1.0791 -1.1802
20180TIP3   OH282030   3.424   6.533  12.874  0.0905 -0.6804 -0.4336
20180TIP3    H182031   3.507   6.507  12.832 -0.2661 -0.2822 -1.4096
20180TIP3    H282032   3.407   6.464  12.938  0.9153 -1.0376 -0.5843
20181TIP3   OH282033   5.289   6.359  16.190  0.5777 -0.2510  0.0459
20181TIP3    H182034   5.242   6.282  16.160  0.7169 -1.0680  1.8552
20181TIP3    H282035   5.377   6.328  16.212  0.7165  0.4734  0.5525
20182TIP3   OH282036   6.344   0.748  10.963  0.1291  0.2777  0.4441
20182TIP3    H182037   6.339   0.828  11.016  1.1710  0.4840  0.2444
20182TIP3    H282038   6.253   0.724  10.948 -0.2011  0.0046  2.6396
20183TIP3   OH282039   4.695   4.908  11.509  0.1200 -0.4135 -0.2788
20183TIP3    H182040   4.618   4.903  11.565 -2.1368 -0.5884 -3.2717
20183TIP3    H282041   4.751   4.837  11.539 -1.4561 -1.0941  1.1292
20184TIP3   OH282042   2.220   0.271  15.080 -0.7132  0.5392 -0.6027
20184TIP3    H182043   2.289   0.276  15.015 -0.4965 -0.7615 -0.4942
20184TIP3    H282044   2.141   0.299  15.034 -0.3444  0.8104 -1.0722
20185TIP3   OH282045   6.663   3.104   2.706 -0.3046  0.0865  0.3997
20185TIP3    H182046   6.712   3.022   2.699 -1.6181 -0.6488 -0.3373
20185TIP3    H282047   6.590   3.084   2.765  0.5576  1.3323  1.9573
20186TIP3   OH282048   5.184   2.035   4.757 -0.2131  0.0870 -0.5384
20186TIP3    H182049   5.117   2.096   4.787  0.1609  0.4127 -0.3500
20186TIP3    H282050   5.266   2.072   4.789 -0.1608 -1.6440  1.4672
20187TIP3   OH282051   4.017   2.480   0.417 -0.7658  0.9046 -0.0749
20187TIP3    H182052   3.946   2.479   0.481  0.2196  0.5476  1.0406
20187TIP3    H282053   4.007   2.398   0.368  0.6063 -0.6266  2.0729
20188TIP3   OH282054   1.369   0.979   2.787 -0.5469  0.8334 -0.5027
20188TIP3    H182055   1.397   0.932   2.866  0.0382  1.0826 -0.5531
20188TIP3    H282056   1.325   0.914   2.734  2.2941 -0.2461 -1.6295
20189TIP3   OH282057   4.915   6.415  11.780  0.1014 -0.4239  0.0157
20189TIP3    H182058   4.843   6.475  11.794  0.3435 -0.5455  2.0367
20189TIP3    H282059   4.934   6.420  11.686 -1.9814  0.2026 -0.3879
20190TIP3   OH282060   1.410   3.027   4.496 -0.4329  0.6854  0.0196
20190TIP3    H182061   1.323   2.989   4.485 -1.1252  2.1201  0.5208
20190TIP3    H282062   1.406   3.072   4.581  0.2411  2.2491 -0.7722
20191TIP3   OH282063   4.892   5.829   3.165  0.0343 -0.1414 -0.6335
20191TIP3    H182064   4.872   5.900   3.226  0.5796 -0.6807  0.1757
20191TIP3    H282065   4.808   5.785   3.151 -0.2368  0.4493 -0.8673
20192TIP3   OH282066   1.176   6.383   3.047  0.0982  0.0245  0.2189
20192TIP3    H182067   1.111   6.450   3.026 -0.2966 -0.0725  1.1081
20192TIP3    H282068   1.132   6.300   3.027 -0.4455 -0.0885  1.8286
20193TIP3   OH282069   1.259   0.494   5.228 -0.3205 -0.0647 -0.0100
20193TIP3    H182070   1.231   0.480   5.318  0.4647  1.0407  0.4249
20193TIP3    H282071   1.264   0.406   5.190  3.3650 -0.9907  2.2752
20194TIP3   OH282072   6.389   3.166  12.674 -0.1244  0.1641  0.1218
20194TIP3    H182073   6.416   3.076  12.691 -0.7130 -0.3491 -1.6721
20194TIP3    H282074   6.305   3.175  12.718 -1.1852 -0.8735 -1.6781
20195TIP3   OH282075   2.422   5.559   2.420 -0.0211  0.1287  0.1623
20195TIP3    H182076   2.426   5.609   2.339  0.8893 -0.1328  0.0429
20195TIP3    H282077   2.331   5.569   2.450 -0.3369  0.3017 -0.8342
20196TIP3   OH282078   6.527   0.923  11.388  0.3080  0.4919  0.5308
20196TIP3    H182079   6.468   0.864  11.435  0.8383 -0.1634  0.3818
20196TIP3    H282080   6.610   0.915  11.434  1.1350 -1.0166 -1.2049
20197TIP3   OH282081   3.402   4.540   1.764  0.5396  0.1632 -0.1915
20197TIP3    H182082   3.399   4.459   1.816 -0.1439 -0.5130 -1.2513
20197TIP3    H282083   3.356   4.604   1.817  0.0028 -0.4746  0.1304
20198TIP3   OH282084   3.801   3.114  10.584  0.0457 -0.4822 -0.1944
20198TIP3    H182085   3.712   3.101  10.617 -1.1828  2.5533 -2.1000
20198TIP3    H282086   3.828   3.198  10.621  1.3674 -0.4366 -1.2132
20199TIP3   OH282087   4.043   1.260   2.192  0.2629 -0.3231  0.2843
20199TIP3    H182088   3.991   1.331   2.153 -0.1762 -0.5451  0.4593
20199TIP3    H282089   4.130   1.298   2.204  0.6838 -0.5376 -1.7990
20200TIP3   OH282090   4.651   3.351   6.411  0.0505 -0.1673 -0.2532
20200TIP3    H182091   4.679   3.442   6.398  1.2806 -0.4888  0.0375
20200TIP3    H282092   4.558   3.357   6.433 -0.1269  0.9447 -1.2843
20201TIP3   OH282093   0.473   3.622  16.251  0.7137 -0.1881  0.5281
20201TIP3    H182094   0.381   3.645  16.242  0.8300  0.2024  0.3355
20201TIP3    H282095   0.514   3.649  16.169  0.9441 -0.6345  0.4916
20202TIP3   OH282096   2.370   6.247   3.991  0.0705  0.4052 -0.6289
20202TIP3    H182097   2.414   6.168   3.960  1.1571 -0.2861  2.4320
20202TIP3    H282098   2.426   6.319   3.960  2.0798 -0.3510  1.0820
20203TIP3   OH282099   2.547   3.586  11.445 -0.3630  0.4792 -0.2163
20203TIP3    H182100   2.480   3.610  11.509  0.2756  1.9123 -0.0739
20203TIP3    H282101   2.567   3.494  11.464 -0.6821  0.6950  1.1766
20204TIP3   OH282102   2.542   1.676   4.520  0.0598  0.1999  0.1721
20204TIP3    H182103   2.601   1.747   4.496 -0.9819  1.1034  0.2238
20204TIP3    H282104   2.599   1.603   4.541  1.1322  0.8074 -0.5729
20205TIP3   OH282105   3.157   6.377   3.499 -0.0496  0.3534 -0.0458
20205TIP3    H182106   3.125   6.382   3.408  0.7867  1.3270 -0.3022
20205TIP3    H282107   3.128   6.459   3.539  0.8356  0.5890  0.1383
20206TIP3   OH282108   1.112   4.240   6.188 -0.0478  0.0606 -0.5103
20206TIP3    H182109   1.148   4.207   6.270  1.1624  0.7913 -0.7494
20206TIP3    H282110   1.173   4.308   6.160 -1.1662  0.7408 -1.3329
20207TIP3   OH282111   3.097   6.303  10.770 -0.1918  0.1872  0.4040
20207TIP3    H182112   3.176   6.346  10.804  0.3699 -1.8949  1.9014
20207TIP3    H282113   3.114   6.291  10.677  1.5725 -0.8196  0.8319
20208TIP3   OH282114   0.488   5.411   4.890  0.6753  0.4363  0.6567
20208TIP3    H182115   0.448   5.442   4.972  0.6707  2.2367  0.0042
20208TIP3    H282116   0.422   5.428   4.823  1.6017  1.2044 -0.0732
20209TIP3   OH282117   6.336   0.662  12.125  0.2957 -0.0425 -0.1001
20209TIP3    H182118   6.300   0.750  12.134 -0.8065 -0.3375 -1.5000
20209TIP3    H282119   6.404   0.671  12.058  0.9390 -0.0400  0.5495
20210TIP3   OH282120   3.647   3.560  10.219 -0.9911 -0.1160  0.3372
20210TIP3    H182121   3.553   3.579  10.220 -0.8255  0.6873  1.3045
20210TIP3    H282122   3.673   3.562  10.311  0.3698  1.7464 -0.0590
20211TIP3   OH282123   3.930   6.170   0.610  0.4068  0.6493  0.3712
20211TIP3    H182124   3.940   6.153   0.703  0.7494 -0.7697  0.0897
20211TIP3    H282125   4.004   6.226   0.587  1.1770 -0.2388  0.6533
20212TIP3   OH282126   1.748   2.154  12.455  0.4091 -0.2910  0.0375
20212TIP3    H182127   1.674   2.146  12.516 -1.8642 -0.6149 -2.6551
20212TIP3    H282128   1.781   2.065  12.446  0.4808 -0.3083  0.4583
20213TIP3   OH282129   1.317   2.867  13.946 -0.1163 -0.9589 -0.3355
20213TIP3    H182130   1.312   2.962  13.939  2.7547 -0.9040 -3.1132
20213TIP3    H282131   1.383   2.851  14.013  0.4690 -0.9647 -0.9103
20214TIP3   OH282132   1.378   5.725  11.637  0.2288  0.2843  0.4016
20214TIP3    H182133   1.438   5.783  11.591  0.2004  0.8076  1.0131
20214TIP3    H282134   1.427   5.645  11.650 -0.1025 -0.2444 -1.4355
20215TIP3   OH282135   5.141   4.690  10.816  0.2213 -0.0901  0.2581
20215TIP3    H182136   5.208   4.707  10.751  1.4870  0.6475  1.7336
20215TIP3    H282137   5.112   4.600  10.798  0.5811  0.0916 -1.2722
20216TIP3   OH282138   4.680   1.076   0.594  0.3888  0.2320  0.2595
20216TIP3    H182139   4.639   1.056   0.678 -3.5291 -0.9294 -1.8016
20216TIP3    H282140   4.630   1.150   0.560  0.9971 -0.2151 -1.6722
20217TIP3   OH282141   2.259   5.786  12.325 -0.1874  0.4919  0.1157
20217TIP3    H182142   2.218   5.867  12.353 -1.9208 -0.1903 -0.4038
20217TIP3    H282143   2.297   5.748  12.404 -3.2143 -0.3799  1.2019
20218TIP3   OH282144   0.904   0.713   4.765  0.0220 -0.0543  0.5931
20218TIP3    H182145   0.883   0.773   4.837 -0.4584  0.6200 -0.0935
20218TIP3    H282146   0.921   0.629   4.808  0.8364  0.6003  1.5816
20219TIP3   OH282147   0.205   2.508   3.912 -0.3601  0.5600  0.6567
20219TIP3    H182148   0.287   2.521   3.961 -1.1528 -1.2215  2.5277
20219TIP3    H282149   0.168   2.428   3.949 -2.3988  0.7338 -0.9610
20220TIP3   OH282150   3.262   3.439  14.793  0.4551  0.0908  0.4647
20220TIP3    H182151   3.292   3.513  14.741  3.0783 -1.0188  0.3377
20220TIP3    H282152   3.299   3.362  14.751  0.7839 -1.0071  2.6631
20221TIP3   OH282153   2.263   4.196  11.690 -0.5047 -0.6585  0.2124
20221TIP3    H182154   2.340   4.140  11.677 -0.5083 -0.8280  0.9040
20221TIP3    H282155   2.298   4.284  11.702 -0.5158 -0.4474 -1.2072
20222TIP3   OH282156   6.543   6.598  14.373 -0.2911 -0.3294  0.0458
20222TIP3    H182157   6.501   6.670  14.420 -1.2749 -1.5529  1.0728
20222TIP3    H282158   6.494   6.592  14.291 -1.0178 -0.6160  0.4888
20223TIP3   OH282159   4.178   6.116  14.088  0.8356  0.4196 -0.1021
20223TIP3    H182160   4.115   6.171  14.135 -1.2915 -0.0182 -2.3281
20223TIP3    H282161   4.177   6.033  14.136 -0.6544  0.2590 -0.3947
20224TIP3   OH282162   6.153   3.872   2.332 -0.5729  0.2728  0.3949
20224TIP3    H182163   6.207   3.950   2.318  1.2328 -0.8034  1.1736
20224TIP3    H282164   6.083   3.879   2.267 -2.7526  4.5718  3.0093
20225TIP3   OH282165   6.671   1.617   5.145  0.2726  0.2860  0.3861
20225TIP3    H182166   6.761   1.585   5.139 -0.1668 -1.2216  1.3207
20225TIP3    H282167   6.630   1.590   5.062  0.5259  0.4422  0.2109
20226TIP3   OH282168   3.050   4.472  17.263  0.2361 -0.1004 -0.3764
20226TIP3    H182169   3.089   4.450  17.348  2.1235  2.4417 -0.5306
20226TIP3    H282170   2.996   4.549  17.280  0.5284  0.3513 -1.4713
20227TIP3   OH282171   4.864   3.242   4.136  0.3613  0.5661  1.0137
20227TIP3    H182172   4.848   3.250   4.230 -0.3483  2.1442  0.7752
20227TIP3    H282173   4.790   3.287   4.095  1.5466  1.4117 -0.2473
20228TIP3   OH282174   1.371   5.308  11.222 -0.0481 -0.5970  0.1810
20228TIP3    H182175   1.384   5.312  11.317  0.1306  0.4160  0.1115
20228TIP3    H282176   1.279   5.332  11.209  0.5423  1.6181 -0.0820
20229TIP3   OH282177   4.109   0.037  11.855 -0.5668 -0.2227 -0.2284
20229TIP3    H182178   4.107   0.053  11.760 -0.2253  0.2270 -0.1569
20229TIP3    H282179   4.198   0.006  11.872 -0.9379 -1.3036 -0.2179
20230TIP3   OH282180   4.759   1.507   2.216 -0.0397  0.2690 -0.6035
20230TIP3    H182181   4.851   1.517   2.194 -0.0751  1.1558 -0.3722
20230TIP3    H282182   4.712   1.523   2.134  0.0348 -0.7960 -0.8618
20231TIP3   OH282183   0.827   2.129  10.669 -0.3051 -0.2840 -0.2632
20231TIP3    H182184   0.738   2.099  10.685 -0.1757 -0.7196 -0.3424
20231TIP3    H282185   0.875   2.049  10.643  0.3688 -0.2623  0.8604
20232TIP3   OH282186   2.949   0.892  16.488 -0.6625 -0.1856 -0.2113
20232TIP3    H182187   2.892   0.882  16.565 -0.0164 -0.1779  0.2745
20232TIP3    H282188   3.031   0.927  16.524  0.8594 -3.3782 -0.4475
20233TIP3   OH282189   4.121   4.243   4.992 -0.3620  0.4286  0.8498
20233TIP3    H182190   4.201   4.213   5.035 -0.2733  1.5106  1.4707
20233TIP3    H282191   4.065   4.272   5.063 -0.6505  1.2228  0.3058
20234TIP3   OH282192   3.424   3.197   4.299  0.4254 -0.3096 -0.2791
20234TIP3    H182193   3.475   3.275   4.280  0.8458 -0.4218  0.3896
20234TIP3    H282194   3.487   3.125   4.297  0.5722 -0.2867  1.8702
20235TIP3   OH282195   2.636   1.166  15.252 -0.1545 -0.9592  0.2598
20235TIP3    H182196   2.580   1.243  15.242  1.6167  0.1657 -1.4128
20235TIP3    H282197   2.576   1.092  15.244 -1.6337  0.2263  0.0483
20236TIP3   OH282198   6.805   3.476  15.561 -0.0958  0.4808 -0.2550
20236TIP3    H182199   6.770   3.502  15.646  0.4176  0.4749 -0.0393
20236TIP3    H282200   6.806   3.381  15.563 -0.9299  0.4567 -0.6164
20237TIP3   OH282201   6.050   6.221  14.320 -0.1477  0.2077 -0.5370
20237TIP3    H182202   6.125   6.164  14.301  0.2284  0.1585  1.0896
20237TIP3    H282203   6.031   6.263  14.236  0.7499 -0.9053 -1.3190
20238TIP3   OH282204   6.458   1.123  14.283 -0.1870  0.4257 -0.4034
20238TIP3    H182205   6.372   1.164  14.277 -0.8686 -0.8783  0.4313
20238TIP3    H282206   6.518   1.191  14.252 -1.5838  1.0394 -1.8417
20239TIP3   OH282207   6.669   4.095   2.394  0.8154  0.4318  0.0278
20239TIP3    H182208   6.604   4.032   2.425 -0.6478  1.7877 -0.2349
20239TIP3    H282209   6.739   4.091   2.458  0.8765 -1.6718 -0.1457
20240TIP3   OH282210   1.475   2.106  14.708  0.7269  0.2053 -0.6199
20240TIP3    H182211   1.504   2.133  14.621 -1.5634  0.3206 -1.3881
20240TIP3    H282212   1.446   2.188  14.749  1.0541  0.0379 -0.0580
20241TIP3   OH282213   4.673   6.280  15.835 -0.7940 -0.2014  0.0216
20241TIP3    H182214   4.718   6.290  15.751  0.8644  3.0166  1.1899
20241TIP3    H282215   4.743   6.263  15.898 -2.0372 -2.7680  0.7541
20242TIP3   OH282216   4.703   4.244  15.407 -0.2813  0.5995  0.2375
20242TIP3    H182217   4.678   4.319  15.353  1.5179 -0.8481 -2.7359
20242TIP3    H282218   4.787   4.270  15.446 -0.6820  0.9107  0.9182
20243TIP3   OH282219   1.741   5.601  13.449  0.2868 -0.1006 -0.6845
20243TIP3    H182220   1.809   5.598  13.516 -0.2251  0.4032 -0.1386
20243TIP3    H282221   1.691   5.521  13.462 -0.2426  0.3359 -0.0048
20244TIP3   OH282222   3.400   3.396  14.273  0.2225  0.1017 -0.0633
20244TIP3    H182223   3.329   3.451  14.307 -0.8636 -0.5363 -1.2220
20244TIP3    H282224   3.452   3.454  14.218 -0.4451  0.1760 -0.6277
20245TIP3   OH282225   2.124   4.777   3.592  0.2984  0.3141  0.7174
20245TIP3    H182226   2.052   4.840   3.584  0.4693  0.4345  0.1499
20245TIP3    H282227   2.123   4.728   3.510  1.7814  1.2962  0.0856
20246TIP3   OH282228   1.512   0.542  15.730  0.2429  0.3287  0.0640
20246TIP3    H182229   1.431   0.494  15.746 -0.8508  1.7068 -1.1971
20246TIP3    H282230   1.495   0.630  15.763  1.8178  0.1933  1.2882
20247TIP3   OH282231   4.495   5.009  13.497  0.4569  0.2738 -0.3681
20247TIP3    H182232   4.437   4.954  13.445  0.2626 -0.0744  0.2144
20247TIP3    H282233   4.448   5.023  13.579  0.9417  0.4787 -0.1253
20248TIP3   OH282234   6.759   1.426   0.523 -0.0057 -0.3440 -0.0607
20248TIP3    H182235   6.816   1.501   0.541 -1.7544  1.3517 -1.4331
20248TIP3    H282236   6.688   1.434   0.586  0.0241 -1.0803  0.0647
20249TIP3   OH282237   3.006   4.362   0.425 -0.3862  0.1941  1.0916
20249TIP3    H182238   2.986   4.274   0.455  0.2279 -0.2201  0.3136
20249TIP3    H282239   3.084   4.387   0.475 -0.2315  0.0767  0.9107
20250TIP3   OH282240   5.865   3.739   2.731 -0.1904  0.3795  0.5677
20250TIP3    H182241   5.901   3.688   2.803 -2.2459 -1.0711  0.6185
20250TIP3    H282242   5.941   3.768   2.681  1.0237 -4.0730 -0.3614
20251TIP3   OH282243   3.007   5.908   0.184  0.2364  0.0620 -0.3335
20251TIP3    H182244   2.964   5.837   0.231  1.0485 -0.6068 -0.5812
20251TIP3    H282245   2.940   5.942   0.125 -0.5714  0.4295  0.7810
20252TIP3   OH282246   0.039   2.835  14.605 -0.0636 -0.5169 -0.2121
20252TIP3    H182247  -0.055   2.849  14.606  0.1730  1.1526 -0.2040
20252TIP3    H282248   0.063   2.826  14.698 -0.3362 -1.9655 -0.2610
20253TIP3   OH282249   4.757   2.351  13.801  0.0514  0.1372 -0.3575
20253TIP3    H182250   4.797   2.379  13.719  0.4107  0.7684  0.0263
20253TIP3    H282251   4.825   2.300  13.845 -0.1764 -0.2880 -0.4974
20254TIP3   OH282252   1.416   1.757   1.679 -0.0851 -0.5191 -0.6857
20254TIP3    H182253   1.334   1.801   1.659  1.8216  3.0227 -0.9790
20254TIP3    H282254   1.437   1.785   1.768  0.6444 -1.6847 -0.4849
20255TIP3   OH282255   1.798   2.430   0.144 -0.1631  0.3916 -0.3443
20255TIP3    H182256   1.753   2.505   0.104 -0.6397 -0.4602 -1.4199
20255TIP3    H282257   1.728   2.372   0.172  0.2251 -0.3664 -0.9142
20256TIP3   OH282258   3.538   6.470  14.550 -0.0453  0.3443  0.1524
20256TIP3    H182259   3.582   6.530  14.490 -1.2055  0.8652 -0.1895
20256TIP3    H282260   3.566   6.498  14.637  1.5501 -0.3361 -0.1174
20257TIP3   OH282261   2.876   5.135  10.811 -0.1366  0.3508  0.3627
20257TIP3    H182262   2.791   5.109  10.776  0.3591  1.0351 -1.3605
20257TIP3    H282263   2.930   5.056  10.805 -0.0737  0.4499 -0.3163
20258TIP3   OH282264   6.163   3.822   5.722  0.0984  0.1114 -0.5172
20258TIP3    H182265   6.252   3.833   5.688  0.8197 -0.0589  1.2444
20258TIP3    H282266   6.134   3.910   5.746  0.5528 -0.0609  0.7093
20259TIP3   OH282267   6.567   0.815   1.988 -0.6112 -0.6321  0.2279
20259TIP3    H182268   6.615   0.752   1.935 -0.9910 -0.4893 -0.2883
20259TIP3    H282269   6.588   0.900   1.949 -0.8668 -0.5230  0.3302
20260TIP3   OH282270   0.321   6.399   2.302  0.0289  0.1355 -0.7770
20260TIP3    H182271   0.232   6.428   2.323  0.1011  0.5497 -1.0192
20260TIP3    H282272   0.373   6.425   2.378 -0.3413 -1.5496  0.0645
20261TIP3   OH282273   0.042   3.676  16.080 -0.2035  0.3154 -0.4319
20261TIP3    H182274   0.054   3.625  16.160  0.2274 -1.1393 -1.3912
20261TIP3    H282275  -0.003   3.755  16.108  0.8022  0.2670  1.3900
20262TIP3   OH282276   5.179   1.578   1.161 -0.2413 -0.1605 -0.0885
20262TIP3    H182277   5.165   1.567   1.255  0.6567 -0.7989 -0.0230
20262TIP3    H282278   5.225   1.661   1.153  0.5003 -0.5496  0.1134
20263TIP3   OH282279   5.724   6.691  15.511 -0.5424  0.5736  0.5198
20263TIP3    H182280   5.765   6.613  15.547 -2.5323 -0.2991  0.9523
20263TIP3    H282281   5.704   6.669  15.420 -2.8346 -0.1627  1.1551
20264TIP3   OH282282   3.288   2.216  10.754 -0.0596  0.3934  0.3497
20264TIP3    H182283   3.332   2.294  10.786  0.0473  0.0131  1.1408
20264TIP3    H282284   3.253   2.174  10.832 -0.5640 -0.0772 -0.1224
20265TIP3   OH282285   0.012   4.827   2.584  0.7138 -0.3471  0.2857
20265TIP3    H182286  -0.041   4.748   2.599 -0.1795  0.3511  0.8279
20265TIP3    H282287   0.032   4.825   2.490  0.4852 -1.0827  0.2471
20266TIP3   OH282288   5.245   6.551  12.869  0.0662 -0.5195 -0.4231
20266TIP3    H182289   5.192   6.471  12.874  1.1318 -1.1925  0.1954
20266TIP3    H282290   5.188   6.620  12.902 -0.2612 -1.3200  0.6959
20267TIP3   OH282291   5.014   0.197  12.395  0.2911 -0.4804  0.3794
20267TIP3    H182292   4.982   0.199  12.305 -2.5928 -0.0530  1.3631
20267TIP3    H282293   5.093   0.252  12.394 -0.5726  0.7701 -1.5678
20268TIP3   OH282294   6.461   6.225   5.426 -0.0959 -0.0651 -0.8071
20268TIP3    H182295   6.529   6.283   5.460 -0.4879  0.2988 -0.6436
20268TIP3    H282296   6.419   6.190   5.504  0.0249 -0.4379 -0.9063
20269TIP3   OH282297   0.664   4.658   1.391 -0.0635 -0.6543 -0.1283
20269TIP3    H182298   0.665   4.570   1.429  1.3396  0.0341  1.5048
20269TIP3    H282299   0.757   4.678   1.377 -0.2005  1.6455  2.1010
20270TIP3   OH282300   6.735   3.499  15.864  0.3011  0.6974  0.3117
20270TIP3    H182301   6.667   3.559  15.834 -0.6906 -0.2559  0.5849
20270TIP3    H282302   6.765   3.536  15.947 -1.2053  0.1552  1.1157
20271TIP3   OH282303   2.467   4.646   1.396  0.8108 -0.1678 -0.1407
20271TIP3    H182304   2.400   4.661   1.329 -0.4135 -1.3224  0.8202
20271TIP3    H282305   2.486   4.734   1.431  1.1963  0.3979 -1.7227
20272TIP3   OH282306   2.433   3.432   2.988 -0.6690  0.1861 -0.5251
20272TIP3    H182307   2.346   3.444   2.951  0.0361 -0.9030 -2.6287
20272TIP3    H282308   2.490   3.421   2.912  1.6976  3.2761  0.6887
20273LIG      O82309   4.816   1.645  16.581 -0.1810 -0.0232  0.2246
20273LIG     C182310   4.940   1.676  16.510  0.2406 -0.0802 -0.3568
20273LIG     C282311   5.040   1.603  16.602  0.4846  0.2429  0.4502
20273LIG     C382312   4.932   1.608  16.376  0.1912 -0.2540  0.2982
20273LIG     H182313   4.956   1.786  16.500 -1.7127  0.3688  1.2026
20273LIG     H282314   5.051   1.631  16.709 -0.4744 -1.2134  0.9394
20273LIG     H382315   5.142   1.621  16.561  0.5060  2.4959  1.4324
20273LIG     H482316   5.011   1.497  16.591 -1.4993  0.8051  0.0744
20273LIG     H582317   4.837   1.628  16.322 -0.3522  0.8932  1.6540
20273LIG     H682318   4.925   1.498  16.380  0.2466 -0.2292  1.1369
20273LIG     H782319   5.018   1.638  16.313  0.0408  1.6500  0.9561
20273LIG     H882320   4.826   1.686  16.667  0.7152  0.8602 -0.2814
   6.82013   6.82013  17.29240
